
                                 *****************
                                 * O   R   C   A *
                                 *****************

           --- An Ab Initio, DFT and Semiempirical electronic structure package ---

                  #######################################################
                  #                        -***-                        #
                  #          Department of theory and spectroscopy      #
                  #               Directorship: Frank Neese             #
                  #        Max Planck Institute fuer Kohlenforschung    #
                  #                Kaiser Wilhelm Platz 1               #
                  #                 D-45470 Muelheim/Ruhr               #
                  #                      Germany                        #
                  #                                                     #
                  #                  All rights reserved                #
                  #                        -***-                        #
                  #######################################################


                         Program Version 4.2.0 -  RELEASE  -


 With contributions from (in alphabetic order):
   Daniel Aravena         : Magnetic Suceptibility
   Michael Atanasov       : Ab Initio Ligand Field Theory (pilot matlab implementation)
   Alexander A. Auer      : GIAO ZORA, VPT2
   Ute Becker             : Parallelization
   Giovanni Bistoni       : ED, misc. LED, open-shell LED, HFLED
   Martin Brehm           : Molecular dynamics
   Dmytro Bykov           : SCF Hessian
   Vijay G. Chilkuri      : MRCI spin determinant printing, contributions to CSF-ICE
   Dipayan Datta          : RHF DLPNO-CCSD density
   Achintya Kumar Dutta   : EOM-CC, STEOM-CC
   Dmitry Ganyushin       : Spin-Orbit,Spin-Spin,Magnetic field MRCI
   Miquel Garcia          : C-PCM Hessian, Gaussian charge scheme
   Yang Guo               : DLPNO-NEVPT2, CIM, IAO-localization
   Andreas Hansen         : Spin unrestricted coupled pair/coupled cluster methods
   Benjamin Helmich-Paris : CASSCF linear response (MC-RPA)
   Lee Huntington         : MR-EOM, pCC
   Robert Izsak           : Overlap fitted RIJCOSX, COSX-SCS-MP3, EOM
   Christian Kollmar      : KDIIS, OOCD, Brueckner-CCSD(T), CCSD density
   Simone Kossmann        : Meta GGA functionals, TD-DFT gradient, OOMP2, MP2 Hessian
   Martin Krupicka        : AUTO-CI
   Lucas Lang             : DCDCAS
   Dagmar Lenk            : GEPOL surface, SMD
   Dimitrios Liakos       : Extrapolation schemes; Compound Job, initial MDCI parallelization
   Dimitrios Manganas     : Further ROCIS development; embedding schemes
   Dimitrios Pantazis     : SARC Basis sets
   Taras Petrenko         : DFT Hessian,TD-DFT gradient, ASA, ECA, R-Raman, ABS, FL, XAS/XES, NRVS
   Peter Pinski           : DLPNO-MP2, DLPNO-MP2 Gradient
   Christoph Reimann      : Effective Core Potentials
   Marius Retegan         : Local ZFS, SOC
   Christoph Riplinger    : Optimizer, TS searches, QM/MM, DLPNO-CCSD(T), (RO)-DLPNO pert. Triples
   Tobias Risthaus        : Range-separated hybrids, TD-DFT gradient, RPA, STAB
   Michael Roemelt        : Original ROCIS implementation
   Masaaki Saitow         : Open-shell DLPNO-CCSD energy and density
   Barbara Sandhoefer     : DKH picture change effects
   Avijit Sen             : IP-ROCIS
   Kantharuban Sivalingam : CASSCF convergence, NEVPT2, FIC-MRCI
   Bernardo de Souza      : ESD, SOC TD-DFT
   Georgi Stoychev        : AutoAux, RI-MP2 NMR
   Willem Van den Heuvel  : Paramagnetic NMR
   Boris Wezisla          : Elementary symmetry handling
   Frank Wennmohs         : Technical directorship


 We gratefully acknowledge several colleagues who have allowed us to
 interface, adapt or use parts of their codes:
   Stefan Grimme, W. Hujo, H. Kruse,             : VdW corrections, initial TS optimization,
                  C. Bannwarth                     DFT functionals, gCP, sTDA/sTD-DF
   Ed Valeev, F. Pavosevic, A. Kumar             : LibInt (2-el integral package), F12 methods
   Garnet Chan, S. Sharma, J. Yang, R. Olivares  : DMRG
   Ulf Ekstrom                                   : XCFun DFT Library
   Mihaly Kallay                                 : mrcc  (arbitrary order and MRCC methods)
   Andreas Klamt, Michael Diedenhofen            : otool_cosmo (COSMO solvation model)
   Jiri Pittner, Ondrej Demel                    : Mk-CCSD
   Frank Weinhold                                : gennbo (NPA and NBO analysis)
   Christopher J. Cramer and Donald G. Truhlar   : smd solvation model
   Lars Goerigk                                  : TD-DFT with DH, B97 family of functionals
   V. Asgeirsson, H. Jonsson                     : NEB implementation
   FAccTs GmbH                                   : IRC, NEB, NEB-TS, Multilevel, MM, QM/MM, CI optimization
   S Lehtola, MJT Oliveira, MAL Marques          : LibXC Library


 Your calculation uses the libint2 library for the computation of 2-el integrals
 For citations please refer to: http://libint.valeyev.net

 Your ORCA version has been built with support for libXC version: 4.2.3
 For citations please refer to: https://tddft.org/programs/libxc/

 This ORCA versions uses:
   CBLAS   interface :  Fast vector & matrix operations
   LAPACKE interface :  Fast linear algebra routines
   SCALAPACK package :  Parallel linear algebra routines


Your calculation utilizes the DFT-NL dispersion correction.
Cite in your paper:
Vydrov, O. A.; Van Voorhis, T. J. Chem. Phys. 2010, 133, 244103
Hujo, W.; Grimme, S. J. Chem. Theory Comput. 2011, 7, 3866 
   

----- Orbital basis set information -----
Your calculation utilizes the basis: aug-cc-pVTZ 
    H, B-Ne : Obtained from the ccRepo (grant-hill.group.shef.ac.uk/ccrepo) Feb. 2017
              R. A. Kendall, T. H. Dunning, Jr., R. J. Harrison, J. Chem. Phys. 96, 6796 (1992)
         He : Obtained from the ccRepo (grant-hill.group.shef.ac.uk/ccrepo) Feb. 2017
              D. E. Woon, T. H. Dunning, Jr., J. Chem. Phys. 100, 2975 (1994)
  Li-Be, Na : Obtained from the ccRepo (grant-hill.group.shef.ac.uk/ccrepo) Feb. 2017
              B. P. Prascher, D. E. Woon, K. A. Peterson, T. H. Dunning, Jr., A. K. Wilson, Theor. Chem. Acc. 128, 69 (2011)
         Mg : Obtained from the Peterson Research Group Website (tyr0.chem.wsu.edu/~kipeters) Feb. 2017
              B. P. Prascher, D. E. Woon, K. A. Peterson, T. H. Dunning, Jr., A. K. Wilson, Theor. Chem. Acc. 128, 69 (2011)
      Al-Ar : Obtained from the ccRepo (grant-hill.group.shef.ac.uk/ccrepo) Feb. 2017
              D. E. Woon, T. H. Dunning, Jr., J. Chem. Phys. 98, 1358 (1993)
      Sc-Zn : Obtained from the ccRepo (grant-hill.group.shef.ac.uk/ccrepo) Feb. 2017
              N. B. Balabanov, K. A. Peterson, J. Chem. Phys. 123, 064107 (2005)
              N. B. Balabanov, K. A. Peterson, J. Chem. Phys. 125, 074110 (2006)
      Ga-Kr : Obtained from the ccRepo (grant-hill.group.shef.ac.uk/ccrepo) Feb. 2017
              A. K. Wilson, D. E. Woon, K. A. Peterson, T. H. Dunning, Jr., J. Chem. Phys. 110, 7667 (1999)
     Ag, Au : Obtained from the Peterson Research Group Website (tyr0.chem.wsu.edu/~kipeters) Feb. 2017
              K. A. Peterson, C. Puzzarini, Theor. Chem. Acc. 114, 283 (2005)

----- AuxJK basis set information -----
Your calculation utilizes the auxiliary basis: def2/JK
   H-Ba, Hf-Rn: F. Weigend, J. Comput. Chem. 29, 167 (2008).

================================================================================
                                        WARNINGS
                       Please study these warnings very carefully!
================================================================================


INFO   : the flag for use of LIBINT has been found!

================================================================================
                                       INPUT FILE
================================================================================
NAME = 04_ScBr.in
|  1> #
|  2> # 04_ScBr wb97x-v/aug-cc-pvtz
|  3> #
|  4> ! wb97x-v aug-cc-pvtz def2/jk grid4 nofinalgrid
|  5> 
|  6> *xyz 0 1
|  7>   Sc  0.00000000000000      0.00000000000000     -0.19342129509946
|  8>   Br  0.00000000000000      0.00000000000000      2.19342129509946
|  9> *
| 10> 
| 11> %pal
| 12> nprocs 24
| 13> end
| 14> 
| 15> 
| 16>                          ****END OF INPUT****
================================================================================

                       ****************************
                       * Single Point Calculation *
                       ****************************

---------------------------------
CARTESIAN COORDINATES (ANGSTROEM)
---------------------------------
  Sc     0.000000    0.000000   -0.193421
  Br     0.000000    0.000000    2.193421

----------------------------
CARTESIAN COORDINATES (A.U.)
----------------------------
  NO LB      ZA    FRAG     MASS         X           Y           Z
   0 Sc   21.0000    0    44.960    0.000000    0.000000   -0.365513
   1 Br   35.0000    0    79.900    0.000000    0.000000    4.144966

--------------------------------
INTERNAL COORDINATES (ANGSTROEM)
--------------------------------
 Sc     0   0   0     0.000000000000     0.00000000     0.00000000
 Br     1   0   0     2.386842590199     0.00000000     0.00000000

---------------------------
INTERNAL COORDINATES (A.U.)
---------------------------
 Sc     0   0   0     0.000000000000     0.00000000     0.00000000
 Br     1   0   0     4.510478820255     0.00000000     0.00000000

---------------------
BASIS SET INFORMATION
---------------------
There are 2 groups of distinct atoms

 Group   1 Type Sc  : 116s77p23d3f2g contracted to 8s7p5d3f2g pattern {19191919191911/151515151511/77711/111/11}
 Group   2 Type Br  : 75s36p10d2f contracted to 7s6p4d2f pattern {18181818111/111111111/7111/11}

Atom   0Sc   basis set group =>   1
Atom   1Br   basis set group =>   2
----------------------------------
AUXILIARY/JK BASIS SET INFORMATION
----------------------------------
There are 2 groups of distinct atoms

 Group   1 Type Sc  : 19s14p12d10f7g3h1i contracted to 16s13p11d9f5g3h1i pattern {4111111111111111/2111111111111/21111111111/211111111/31111/111/1}
 Group   2 Type Br  : 20s14p13d10f7g3h contracted to 17s13p12d9f6g3h pattern {41111111111111111/2111111111111/211111111111/211111111/211111/111}

Atom   0Sc   basis set group =>   1
Atom   1Br   basis set group =>   2


           ************************************************************
           *        Program running with 24 parallel MPI-processes    *
           *              working on a common directory               *
           ************************************************************
------------------------------------------------------------------------------
                           ORCA GTO INTEGRAL CALCULATION
------------------------------------------------------------------------------

                         BASIS SET STATISTICS AND STARTUP INFO

 # of primitive gaussian shells          ...  344
 # of primitive gaussian functions       ...  748
 # of contracted shells                  ...   44
 # of contracted basis functions         ...  152
 Highest angular momentum                ...    4
 Maximum contraction depth               ...   19
 Integral package used                   ... LIBINT
 Integral threshhold            Thresh   ...  1.000e-10
 Primitive cut-off              TCut     ...  1.000e-11


------------------------------ INTEGRAL EVALUATION ----------------------------


 * One electron integrals 
 Pre-screening matrix                    ... done
 Shell pair data                         ... done (   0.002 sec)



           ************************************************************
           *        Program running with 24 parallel MPI-processes    *
           *              working on a common directory               *
           ************************************************************
-------------------------------------------------------------------------------
                                 ORCA SCF
-------------------------------------------------------------------------------

------------
SCF SETTINGS
------------
Hamiltonian:
 Density Functional     Method          .... DFT(GTOs)
 Exchange Functional    Exchange        .... WB97X-V
 Correlation Functional Correlation     .... WB97X-V
 Gradients option       PostSCFGGA      .... off
 Hybrid DFT is turned on
   Fraction HF Exchange ScalHFX         ....  0.167000
   Scaling of DF-GGA-X  ScalDFX         ....  0.000000
   Scaling of DF-GGA-C  ScalDFC         ....  1.000000
   Scaling of DF-LDA-C  ScalLDAC        ....  1.000000
   Perturbative correction              ....  0.000000
   Density functional embedding theory  .... OFF
 Long-range corrected/Screened/Range-Separated Hybrid DFT is turned on
   Amount of maximum screened exact exchange              ....  0.833000
   Range separation parameter mu (erf(mu*r12)/r12)        ....  0.300000
   NL short-range parameter             ....  6.000000
   NL long-range parameter              ....  0.010000


General Settings:
 Integral files         IntName         .... 04_ScBr
 Hartree-Fock type      HFTyp           .... RHF
 Total Charge           Charge          ....    0
 Multiplicity           Mult            ....    1
 Number of Electrons    NEL             ....   56
 Basis Dimension        Dim             ....  152
 Nuclear Repulsion      ENuc            ....    162.9538745863 Eh

Convergence Acceleration:
 DIIS                   CNVDIIS         .... on
   Start iteration      DIISMaxIt       ....    12
   Startup error        DIISStart       ....  0.200000
   # of expansion vecs  DIISMaxEq       ....     5
   Bias factor          DIISBfac        ....   1.050
   Max. coefficient     DIISMaxC        ....  10.000
 Newton-Raphson         CNVNR           .... off
 SOSCF                  CNVSOSCF        .... off
 Level Shifting         CNVShift        .... on
   Level shift para.    LevelShift      ....    0.2500
   Turn off err/grad.   ShiftErr        ....    0.0010
 Zerner damping         CNVZerner       .... off
 Static damping         CNVDamp         .... on
   Fraction old density DampFac         ....    0.7000
   Max. Damping (<1)    DampMax         ....    0.9800
   Min. Damping (>=0)   DampMin         ....    0.0000
   Turn off err/grad.   DampErr         ....    0.1000
 Fernandez-Rico         CNVRico         .... off

SCF Procedure:
 Maximum # iterations   MaxIter         ....   125
 SCF integral mode      SCFMode         .... Direct
   Integral package                     .... LIBINT
 Reset frequency        DirectResetFreq ....    20
 Integral Threshold     Thresh          ....  1.000e-10 Eh
 Primitive CutOff       TCut            ....  1.000e-11 Eh

Convergence Tolerance:
 Convergence Check Mode ConvCheckMode   .... Total+1el-Energy
 Convergence forced     ConvForced      .... 0
 Energy Change          TolE            ....  1.000e-06 Eh
 1-El. energy change                    ....  1.000e-03 Eh
 DIIS Error             TolErr          ....  1.000e-06


Diagonalization of the overlap matrix:
Smallest eigenvalue                        ... 6.382e-05
Time for diagonalization                   ...    0.006 sec
Threshold for overlap eigenvalues          ... 1.000e-08
Number of eigenvalues below threshold      ... 0
Time for construction of square roots      ...    0.003 sec
Total time needed                          ...    0.009 sec

-------------------
DFT GRID GENERATION
-------------------

General Integration Accuracy     IntAcc      ...  4.670
Radial Grid Type                 RadialGrid  ... Gauss-Chebyshev
Angular Grid (max. acc.)         AngularGrid ... Lebedev-302
Angular grid pruning method      GridPruning ... 3 (G Style)
Weight generation scheme         WeightScheme... Becke
Basis function cutoff            BFCut       ...    1.0000e-10
Integration weight cutoff        WCut        ...    1.0000e-14
Grids for H and He will be reduced by one unit

# of grid points (after initial pruning)     ...  19280 (   0.0 sec)
# of grid points (after weights+screening)   ...  19253 (   0.0 sec)
nearest neighbour list constructed           ...    0.0 sec
Grid point re-assignment to atoms done       ...    0.0 sec
Grid point division into batches done        ...    0.2 sec
Reduced shell lists constructed in    0.2 sec

Total number of grid points                  ...    19253
Total number of batches                      ...      302
Average number of points per batch           ...       63
Average number of grid points per atom       ...     9626
Average number of shells per batch           ...    22.50 (51.14%)
Average number of basis functions per batch  ...    72.21 (47.51%)
Average number of large shells per batch     ...    15.36 (68.25%)
Average number of large basis fcns per batch ...    50.93 (70.52%)
Maximum spatial batch extension              ...  27.54, 34.02, 17.92 au
Average spatial batch extension              ...   0.92,  0.97,  0.67 au

Time for grid setup =    0.202 sec

------------------------------
INITIAL GUESS: MODEL POTENTIAL
------------------------------
Loading Hartree-Fock densities                     ... done
Calculating cut-offs                               ... done
Setting up the integral package                    ... done
Initializing the effective Hamiltonian             ... done
Starting the Coulomb interaction                   ... done (   0.0 sec)
Reading the grid                                   ... done
Mapping shells                                     ... done
Starting the XC term evaluation                    ... done (   0.0 sec)
  promolecular density results
     # of electrons  =     56.000017367
     EX              =    -97.941338179
     EC              =     -3.406651328
     EX+EC           =   -101.347989507
Transforming the Hamiltonian                       ... done (   0.0 sec)
Diagonalizing the Hamiltonian                      ... done (   0.0 sec)
Back transforming the eigenvectors                 ... done (   0.0 sec)
Now organizing SCF variables                       ... done
                      ------------------
                      INITIAL GUESS DONE (   0.3 sec)
                      ------------------
--------------
SCF ITERATIONS
--------------
ITER       Energy         Delta-E        Max-DP      RMS-DP      [F,P]     Damp
               ***  Starting incremental Fock matrix formation  ***
  0  -3334.4543197115   0.000000000000 0.77157329  0.01581960  0.3985355 0.7000
  1  -3334.5792640685  -0.124944356982 0.43112104  0.00778514  0.2203795 0.7000
                               ***Turning on DIIS***
  2  -3334.6524994373  -0.073235368825 0.17654400  0.00333561  0.1150679 0.7000
  3  -3334.6977054917  -0.045206054459 0.71823358  0.01137746  0.0587527 0.0000
  4  -3334.8029445721  -0.105239080378 0.05880215  0.00108546  0.0169349 0.0000
  5  -3334.8062670728  -0.003322500672 0.06283680  0.00104391  0.0155084 0.0000
  6  -3334.8080575719  -0.001790499140 0.04017072  0.00067819  0.0111841 0.0000
  7  -3334.8088395995  -0.000782027562 0.03722814  0.00074878  0.0070519 0.0000
  8  -3334.8092211721  -0.000381572645 0.01976983  0.00022045  0.0053005 0.0000
  9  -3334.8093825208  -0.000161348621 0.01483350  0.00027680  0.0033825 0.0000
 10  -3334.8094638468  -0.000081326029 0.01259212  0.00020886  0.0023322 0.0000
 11  -3334.8095047858  -0.000040938987 0.00822880  0.00011832  0.0015197 0.0000
 12  -3334.8095236284  -0.000018842615 0.01142266  0.00016528  0.0008548 0.0000
 13  -3334.8095329749  -0.000009346530 0.00260527  0.00003962  0.0001908 0.0000
                 **** Energy Check signals convergence ****

               *****************************************************
               *                     SUCCESS                       *
               *           SCF CONVERGED AFTER  14 CYCLES          *
               *****************************************************


Setting up the DFT-NL grid :

General Integration Accuracy     IntAcc      ...  4.340
Radial Grid Type                 RadialGrid  ... Gauss-Chebyshev
Angular Grid (max. acc.)         AngularGrid ... Lebedev-110
Angular grid pruning method      GridPruning ... 3 (G Style)
Weight generation scheme         WeightScheme... Becke
Basis function cutoff            BFCut       ...    1.0000e-10
Integration weight cutoff        WCut        ...    1.0000e-14
Grids for H and He will be reduced by one unit

# of grid points (after initial pruning)     ...   5862 (   0.0 sec)
# of grid points (after weights+screening)   ...   5837 (   0.0 sec)
nearest neighbour list constructed           ...    0.0 sec
Grid point re-assignment to atoms done       ...    0.0 sec
Grid point division into batches done        ...    0.0 sec
Reduced shell lists constructed in    0.0 sec

Total number of grid points                  ...     5837
Total number of batches                      ...       92
Average number of points per batch           ...       63
Average number of grid points per atom       ...     2918
Average number of shells per batch           ...    24.80 (56.36%)
Average number of basis functions per batch  ...    84.00 (55.26%)
Average number of large shells per batch     ...    20.00 (80.65%)
Average number of large basis fcns per batch ...    68.00 (80.95%)
Maximum spatial batch extension              ...  20.56, 31.13, 17.76 au
Average spatial batch extension              ...   0.82,  1.12,  0.77 au

Final grid set up in    0.0 sec

-------------------------------------------------------------------------------
                         DFT-NL dispersion correction                          
-------------------------------------------------------------------------------

SC Energy -3334.809533204 
NL    Energy 0.233542658 
SC+NL Energy -3334.575990547 
NL done in    0.0 sec
-------------------------------------------------------------------------------

----------------
TOTAL SCF ENERGY
----------------

Total Energy       :        -3334.57599055 Eh          -90738.42576 eV

Components:
Nuclear Repulsion  :          162.95387459 Eh            4434.20036 eV
Electronic Energy  :        -3497.52986513 Eh          -95172.62611 eV
One Electron Energy:        -4948.54804367 Eh         -134656.83809 eV
Two Electron Energy:         1451.01817853 Eh           39484.21198 eV

Virial components:
Potential Energy   :        -6664.73359368 Eh         -181356.62108 eV
Kinetic Energy     :         3330.15760313 Eh           90618.19532 eV
Virial Ratio       :            2.00132678


DFT components:
N(Alpha)           :       28.000010180749 electrons
N(Beta)            :       28.000010180749 electrons
N(Total)           :       56.000020361497 electrons
E(X)               :      -97.892946709367 Eh       
E(C)               :       -3.410651360194 Eh       
NL Energy, E(C,NL) :        0.233542657592 Eh       
E(XC)              :     -101.070055411969 Eh       
DFET-embed. en.    :        0.000000000000 Eh       

---------------
SCF CONVERGENCE
---------------

  Last Energy change         ...   -2.2944e-07  Tolerance :   1.0000e-06
  Last MAX-Density change    ...    1.0476e-03  Tolerance :   1.0000e-05
  Last RMS-Density change    ...    1.5452e-05  Tolerance :   1.0000e-06
  Last DIIS Error            ...    1.0291e-04  Tolerance :   1.0000e-06

             **** THE GBW FILE WAS UPDATED (04_ScBr.gbw) ****
             **** DENSITY FILE WAS UPDATED (04_ScBr.scfp) ****
             **** ENERGY FILE WAS UPDATED (04_ScBr.en.tmp) ****
             **** THE GBW FILE WAS UPDATED (04_ScBr.gbw) ****
             **** DENSITY FILE WAS UPDATED (04_ScBr.scfp) ****
----------------
ORBITAL ENERGIES
----------------

  NO   OCC          E(Eh)            E(eV) 
   0   2.0000    -482.638197    -13133.2530 
   1   2.0000    -161.721465     -4400.6648 
   2   2.0000     -62.512450     -1701.0503 
   3   2.0000     -56.316136     -1532.4400 
   4   2.0000     -56.315864     -1532.4326 
   5   2.0000     -56.315864     -1532.4326 
   6   2.0000     -17.768901      -483.5164 
   7   2.0000     -14.690462      -399.7478 
   8   2.0000     -14.690462      -399.7478 
   9   2.0000     -14.674838      -399.3226 
  10   2.0000      -8.776451      -238.8194 
  11   2.0000      -6.598912      -179.5655 
  12   2.0000      -6.597769      -179.5344 
  13   2.0000      -6.597769      -179.5344 
  14   2.0000      -2.722888       -74.0935 
  15   2.0000      -2.722352       -74.0790 
  16   2.0000      -2.722352       -74.0790 
  17   2.0000      -2.721380       -74.0525 
  18   2.0000      -2.721337       -74.0513 
  19   2.0000      -2.286135       -62.2089 
  20   2.0000      -1.472568       -40.0706 
  21   2.0000      -1.472568       -40.0706 
  22   2.0000      -1.458677       -39.6926 
  23   2.0000      -0.867041       -23.5934 
  24   2.0000      -0.426426       -11.6036 
  25   2.0000      -0.396537       -10.7903 
  26   2.0000      -0.396537       -10.7903 
  27   2.0000      -0.256828        -6.9886 
  28   0.0000      -0.016677        -0.4538 
  29   0.0000      -0.002256        -0.0614 
  30   0.0000      -0.002256        -0.0614 
  31   0.0000      -0.001051        -0.0286 
  32   0.0000      -0.001050        -0.0286 
  33   0.0000       0.022583         0.6145 
  34   0.0000       0.023563         0.6412 
  35   0.0000       0.023563         0.6412 
  36   0.0000       0.024163         0.6575 
  37   0.0000       0.040546         1.1033 
  38   0.0000       0.040546         1.1033 
  39   0.0000       0.040558         1.1036 
  40   0.0000       0.040613         1.1051 
  41   0.0000       0.040613         1.1051 
  42   0.0000       0.045133         1.2281 
  43   0.0000       0.045133         1.2281 
  44   0.0000       0.078936         2.1480 
  45   0.0000       0.114611         3.1187 
  46   0.0000       0.133974         3.6456 
  47   0.0000       0.133974         3.6456 
  48   0.0000       0.134348         3.6558 
  49   0.0000       0.134460         3.6588 
  50   0.0000       0.134460         3.6588 
  51   0.0000       0.138417         3.7665 
  52   0.0000       0.139748         3.8027 
  53   0.0000       0.139748         3.8027 
  54   0.0000       0.154602         4.2069 
  55   0.0000       0.154602         4.2069 
  56   0.0000       0.155891         4.2420 
  57   0.0000       0.155891         4.2420 
  58   0.0000       0.163790         4.4569 
  59   0.0000       0.163790         4.4569 
  60   0.0000       0.177093         4.8189 
  61   0.0000       0.207174         5.6375 
  62   0.0000       0.207174         5.6375 
  63   0.0000       0.229217         6.2373 
  64   0.0000       0.298652         8.1267 
  65   0.0000       0.316074         8.6008 
  66   0.0000       0.316074         8.6008 
  67   0.0000       0.354840         9.6557 
  68   0.0000       0.354840         9.6557 
  69   0.0000       0.384066        10.4510 
  70   0.0000       0.414126        11.2690 
  71   0.0000       0.420516        11.4428 
  72   0.0000       0.420518        11.4429 
  73   0.0000       0.450926        12.2703 
  74   0.0000       0.450926        12.2703 
  75   0.0000       0.456731        12.4283 
  76   0.0000       0.456731        12.4283 
  77   0.0000       0.463267        12.6061 
  78   0.0000       0.463269        12.6062 
  79   0.0000       0.473428        12.8826 
  80   0.0000       0.477478        12.9928 
  81   0.0000       0.477478        12.9928 
  82   0.0000       0.484571        13.1858 
  83   0.0000       0.484573        13.1859 
  84   0.0000       0.503086        13.6897 
  85   0.0000       0.520797        14.1716 
  86   0.0000       0.520797        14.1716 
  87   0.0000       0.587227        15.9793 
  88   0.0000       0.587227        15.9793 
  89   0.0000       0.588099        16.0030 
  90   0.0000       0.588099        16.0030 
  91   0.0000       0.615446        16.7471 
  92   0.0000       0.615447        16.7472 
  93   0.0000       0.630837        17.1660 
  94   0.0000       0.696213        18.9449 
  95   0.0000       0.696213        18.9449 
  96   0.0000       0.727052        19.7841 
  97   0.0000       0.769715        20.9450 
  98   0.0000       0.769715        20.9450 
  99   0.0000       0.841930        22.9101 
 100   0.0000       0.949940        25.8492 
 101   0.0000       0.949940        25.8492 
 102   0.0000       0.950915        25.8757 
 103   0.0000       0.950915        25.8757 
 104   0.0000       0.987341        26.8669 
 105   0.0000       1.102045        29.9882 
 106   0.0000       1.102046        29.9882 
 107   0.0000       1.135565        30.9003 
 108   0.0000       1.228501        33.4292 
 109   0.0000       1.228501        33.4292 
 110   0.0000       1.410487        38.3813 
 111   0.0000       1.410490        38.3814 
 112   0.0000       1.431397        38.9503 
 113   0.0000       1.499586        40.8058 
 114   0.0000       1.499586        40.8058 
 115   0.0000       1.702392        46.3245 
 116   0.0000       1.702392        46.3245 
 117   0.0000       1.711341        46.5680 
 118   0.0000       1.760639        47.9094 
 119   0.0000       1.886862        51.3441 
 120   0.0000       1.886876        51.3445 
 121   0.0000       1.889251        51.4091 
 122   0.0000       1.889251        51.4091 
 123   0.0000       1.924921        52.3798 
 124   0.0000       1.934287        52.6346 
 125   0.0000       1.934297        52.6349 
 126   0.0000       1.951529        53.1038 
 127   0.0000       1.951530        53.1038 
 128   0.0000       2.084329        56.7175 
 129   0.0000       2.084330        56.7175 
 130   0.0000       2.098158        57.0938 
 131   0.0000       2.110832        57.4386 
 132   0.0000       2.110832        57.4386 
 133   0.0000       2.133411        58.0531 
 134   0.0000       2.133418        58.0532 
 135   0.0000       2.152068        58.5607 
 136   0.0000       2.164619        58.9023 
 137   0.0000       2.164650        58.9031 
 138   0.0000       2.174379        59.1679 
 139   0.0000       2.174379        59.1679 
 140   0.0000       2.254197        61.3398 
 141   0.0000       2.254197        61.3398 
 142   0.0000       2.264535        61.6211 
 143   0.0000       2.264539        61.6212 
 144   0.0000       2.343904        63.7809 
 145   0.0000       2.344805        63.8054 
 146   0.0000       2.344805        63.8054 
 147   0.0000       2.456881        66.8551 
 148   0.0000       2.456881        66.8551 
 149   0.0000       2.607849        70.9632 
 150   0.0000       3.101727        84.4023 
 151   0.0000       4.654619       126.6586 

                    ********************************
                    * MULLIKEN POPULATION ANALYSIS *
                    ********************************

-----------------------
MULLIKEN ATOMIC CHARGES
-----------------------
   0 Sc:    0.299136
   1 Br:   -0.299136
Sum of atomic charges:   -0.0000000

--------------------------------
MULLIKEN REDUCED ORBITAL CHARGES
--------------------------------
  0 Scs       :     7.368377  s :     7.368377
      pz      :     4.147821  p :    12.234123
      px      :     4.043151
      py      :     4.043151
      dz2     :     0.834982  d :     1.045922
      dxz     :     0.105470
      dyz     :     0.105470
      dx2y2   :    -0.000000
      dxy     :    -0.000000
      f0      :     0.006391  f :     0.041528
      f+1     :     0.017566
      f-1     :     0.017566
      f+2     :     0.000002
      f-2     :     0.000002
      f+3     :     0.000000
      f-3     :     0.000000
      g0      :     0.000203  g :     0.010914
      g+1     :     0.005352
      g-1     :     0.005352
      g+2     :     0.000003
      g-2     :     0.000003
      g+3     :     0.000000
      g-3     :     0.000000
      g+4     :     0.000000
      g-4     :     0.000000
  1 Brs       :     7.995823  s :     7.995823
      pz      :     5.638327  p :    17.286528
      px      :     5.824101
      py      :     5.824101
      dz2     :     2.005672  d :    10.012965
      dxz     :     2.003652
      dyz     :     2.003652
      dx2y2   :     1.999995
      dxy     :     1.999995
      f0      :     0.002403  f :     0.003819
      f+1     :     0.000708
      f-1     :     0.000708
      f+2     :     0.000000
      f-2     :     0.000000
      f+3     :     0.000000
      f-3     :     0.000000


                     *******************************
                     * LOEWDIN POPULATION ANALYSIS *
                     *******************************

----------------------
LOEWDIN ATOMIC CHARGES
----------------------
   0 Sc:   -0.266400
   1 Br:    0.266400

-------------------------------
LOEWDIN REDUCED ORBITAL CHARGES
-------------------------------
  0 Scs       :     7.109158  s :     7.109158
      pz      :     4.226053  p :    12.281751
      px      :     4.027849
      py      :     4.027849
      dz2     :     0.981548  d :     1.327915
      dxz     :     0.173181
      dyz     :     0.173181
      dx2y2   :     0.000003
      dxy     :     0.000003
      f0      :     0.123626  f :     0.316531
      f+1     :     0.096433
      f-1     :     0.096433
      f+2     :     0.000019
      f-2     :     0.000019
      f+3     :     0.000000
      f-3     :     0.000000
      g0      :     0.074014  g :     0.231045
      g+1     :     0.078439
      g-1     :     0.078439
      g+2     :     0.000077
      g-2     :     0.000077
      g+3     :     0.000000
      g-3     :     0.000000
      g+4     :     0.000000
      g-4     :     0.000000
  1 Brs       :     7.538392  s :     7.538392
      pz      :     5.751055  p :    16.923118
      px      :     5.586031
      py      :     5.586031
      dz2     :     2.139036  d :    10.190908
      dxz     :     2.026034
      dyz     :     2.026034
      dx2y2   :     1.999901
      dxy     :     1.999901
      f0      :     0.057117  f :     0.081183
      f+1     :     0.012033
      f-1     :     0.012033
      f+2     :     0.000000
      f-2     :     0.000000
      f+3     :     0.000000
      f-3     :     0.000000


                      *****************************
                      * MAYER POPULATION ANALYSIS *
                      *****************************

  NA   - Mulliken gross atomic population
  ZA   - Total nuclear charge
  QA   - Mulliken gross atomic charge
  VA   - Mayer's total valence
  BVA  - Mayer's bonded valence
  FA   - Mayer's free valence

  ATOM       NA         ZA         QA         VA         BVA        FA
  0 Sc    20.7009    21.0000     0.2991     1.4052     1.4052     0.0000
  1 Br    35.2991    35.0000    -0.2991     1.4052     1.4052    -0.0000

  Mayer bond orders larger than 0.100000
B(  0-Sc,  1-Br) :   1.4052 

-------
TIMINGS
-------

Total SCF time: 0 days 0 hours 5 min 44 sec 

Total time                  ....     344.945 sec
Sum of individual times     ....     344.614 sec  ( 99.9%)

Fock matrix formation       ....     344.207 sec  ( 99.8%)
  XC integration            ....       0.397 sec  (  0.1% of F)
    Basis function eval.    ....       0.112 sec  ( 28.2% of XC)
    Density eval.           ....       0.040 sec  ( 10.1% of XC)
    XC-Functional eval.     ....       0.020 sec  (  5.1% of XC)
    XC-Potential eval.      ....       0.082 sec  ( 20.7% of XC)
Diagonalization             ....       0.044 sec  (  0.0%)
Density matrix formation    ....       0.006 sec  (  0.0%)
Population analysis         ....       0.004 sec  (  0.0%)
Initial guess               ....       0.111 sec  (  0.0%)
Orbital Transformation      ....       0.000 sec  (  0.0%)
Orbital Orthonormalization  ....       0.000 sec  (  0.0%)
DIIS solution               ....       0.022 sec  (  0.0%)
Grid generation             ....       0.222 sec  (  0.1%)

-------------------------   --------------------
FINAL SINGLE POINT ENERGY     -3334.575990546763
-------------------------   --------------------


                            ***************************************
                            *     ORCA property calculations      *
                            ***************************************

                                    ---------------------
                                    Active property flags
                                    ---------------------
   (+) Dipole Moment


------------------------------------------------------------------------------
                       ORCA ELECTRIC PROPERTIES CALCULATION
------------------------------------------------------------------------------

Dipole Moment Calculation                       ... on
Quadrupole Moment Calculation                   ... off
Polarizability Calculation                      ... off
GBWName                                         ... 04_ScBr.gbw
Electron density file                           ... 04_ScBr.scfp
The origin for moment calculation is the CENTER OF MASS  = ( 0.000000,  0.000000  2.520817)

-------------
DIPOLE MOMENT
-------------
                                X             Y             Z
Electronic contribution:      0.00000       0.00000       2.34573
Nuclear contribution   :      0.00000       0.00000      -3.76776
                        -----------------------------------------
Total Dipole Moment    :      0.00000       0.00000      -1.42203
                        -----------------------------------------
Magnitude (a.u.)       :      1.42203
Magnitude (Debye)      :      3.61452



--------------------
Rotational spectrum 
--------------------
 
Rotational constants in cm-1:     0.000000     0.102849     0.102849 
Rotational constants in MHz :     0.000000  3083.332036  3083.332036 

 Dipole components along the rotational axes: 
x,y,z [a.u.] :    -1.422031     0.000000     0.000000 
x,y,z [Debye]:    -3.614515     0.000000     0.000000 

 

Timings for individual modules:

Sum of individual times         ...      350.056 sec (=   5.834 min)
GTO integral calculation        ...        4.648 sec (=   0.077 min)   1.3 %
SCF iterations                  ...      345.408 sec (=   5.757 min)  98.7 %
                             ****ORCA TERMINATED NORMALLY****
TOTAL RUN TIME: 0 days 0 hours 5 minutes 50 seconds 681 msec
