
                                 *****************
                                 * O   R   C   A *
                                 *****************

           --- An Ab Initio, DFT and Semiempirical electronic structure package ---

                  #######################################################
                  #                        -***-                        #
                  #          Department of theory and spectroscopy      #
                  #               Directorship: Frank Neese             #
                  #        Max Planck Institute fuer Kohlenforschung    #
                  #                Kaiser Wilhelm Platz 1               #
                  #                 D-45470 Muelheim/Ruhr               #
                  #                      Germany                        #
                  #                                                     #
                  #                  All rights reserved                #
                  #                        -***-                        #
                  #######################################################


                         Program Version 4.2.0 -  RELEASE  -


 With contributions from (in alphabetic order):
   Daniel Aravena         : Magnetic Suceptibility
   Michael Atanasov       : Ab Initio Ligand Field Theory (pilot matlab implementation)
   Alexander A. Auer      : GIAO ZORA, VPT2
   Ute Becker             : Parallelization
   Giovanni Bistoni       : ED, misc. LED, open-shell LED, HFLED
   Martin Brehm           : Molecular dynamics
   Dmytro Bykov           : SCF Hessian
   Vijay G. Chilkuri      : MRCI spin determinant printing, contributions to CSF-ICE
   Dipayan Datta          : RHF DLPNO-CCSD density
   Achintya Kumar Dutta   : EOM-CC, STEOM-CC
   Dmitry Ganyushin       : Spin-Orbit,Spin-Spin,Magnetic field MRCI
   Miquel Garcia          : C-PCM Hessian, Gaussian charge scheme
   Yang Guo               : DLPNO-NEVPT2, CIM, IAO-localization
   Andreas Hansen         : Spin unrestricted coupled pair/coupled cluster methods
   Benjamin Helmich-Paris : CASSCF linear response (MC-RPA)
   Lee Huntington         : MR-EOM, pCC
   Robert Izsak           : Overlap fitted RIJCOSX, COSX-SCS-MP3, EOM
   Christian Kollmar      : KDIIS, OOCD, Brueckner-CCSD(T), CCSD density
   Simone Kossmann        : Meta GGA functionals, TD-DFT gradient, OOMP2, MP2 Hessian
   Martin Krupicka        : AUTO-CI
   Lucas Lang             : DCDCAS
   Dagmar Lenk            : GEPOL surface, SMD
   Dimitrios Liakos       : Extrapolation schemes; Compound Job, initial MDCI parallelization
   Dimitrios Manganas     : Further ROCIS development; embedding schemes
   Dimitrios Pantazis     : SARC Basis sets
   Taras Petrenko         : DFT Hessian,TD-DFT gradient, ASA, ECA, R-Raman, ABS, FL, XAS/XES, NRVS
   Peter Pinski           : DLPNO-MP2, DLPNO-MP2 Gradient
   Christoph Reimann      : Effective Core Potentials
   Marius Retegan         : Local ZFS, SOC
   Christoph Riplinger    : Optimizer, TS searches, QM/MM, DLPNO-CCSD(T), (RO)-DLPNO pert. Triples
   Tobias Risthaus        : Range-separated hybrids, TD-DFT gradient, RPA, STAB
   Michael Roemelt        : Original ROCIS implementation
   Masaaki Saitow         : Open-shell DLPNO-CCSD energy and density
   Barbara Sandhoefer     : DKH picture change effects
   Avijit Sen             : IP-ROCIS
   Kantharuban Sivalingam : CASSCF convergence, NEVPT2, FIC-MRCI
   Bernardo de Souza      : ESD, SOC TD-DFT
   Georgi Stoychev        : AutoAux, RI-MP2 NMR
   Willem Van den Heuvel  : Paramagnetic NMR
   Boris Wezisla          : Elementary symmetry handling
   Frank Wennmohs         : Technical directorship


 We gratefully acknowledge several colleagues who have allowed us to
 interface, adapt or use parts of their codes:
   Stefan Grimme, W. Hujo, H. Kruse,             : VdW corrections, initial TS optimization,
                  C. Bannwarth                     DFT functionals, gCP, sTDA/sTD-DF
   Ed Valeev, F. Pavosevic, A. Kumar             : LibInt (2-el integral package), F12 methods
   Garnet Chan, S. Sharma, J. Yang, R. Olivares  : DMRG
   Ulf Ekstrom                                   : XCFun DFT Library
   Mihaly Kallay                                 : mrcc  (arbitrary order and MRCC methods)
   Andreas Klamt, Michael Diedenhofen            : otool_cosmo (COSMO solvation model)
   Jiri Pittner, Ondrej Demel                    : Mk-CCSD
   Frank Weinhold                                : gennbo (NPA and NBO analysis)
   Christopher J. Cramer and Donald G. Truhlar   : smd solvation model
   Lars Goerigk                                  : TD-DFT with DH, B97 family of functionals
   V. Asgeirsson, H. Jonsson                     : NEB implementation
   FAccTs GmbH                                   : IRC, NEB, NEB-TS, Multilevel, MM, QM/MM, CI optimization
   S Lehtola, MJT Oliveira, MAL Marques          : LibXC Library


 Your calculation uses the libint2 library for the computation of 2-el integrals
 For citations please refer to: http://libint.valeyev.net

 Your ORCA version has been built with support for libXC version: 4.2.3
 For citations please refer to: https://tddft.org/programs/libxc/

 This ORCA versions uses:
   CBLAS   interface :  Fast vector & matrix operations
   LAPACKE interface :  Fast linear algebra routines
   SCALAPACK package :  Parallel linear algebra routines


Your calculation utilizes the DFT-NL dispersion correction.
Cite in your paper:
Vydrov, O. A.; Van Voorhis, T. J. Chem. Phys. 2010, 133, 244103
Hujo, W.; Grimme, S. J. Chem. Theory Comput. 2011, 7, 3866 
   

----- Orbital basis set information -----
Your calculation utilizes the basis: aug-cc-pVTZ 
    H, B-Ne : Obtained from the ccRepo (grant-hill.group.shef.ac.uk/ccrepo) Feb. 2017
              R. A. Kendall, T. H. Dunning, Jr., R. J. Harrison, J. Chem. Phys. 96, 6796 (1992)
         He : Obtained from the ccRepo (grant-hill.group.shef.ac.uk/ccrepo) Feb. 2017
              D. E. Woon, T. H. Dunning, Jr., J. Chem. Phys. 100, 2975 (1994)
  Li-Be, Na : Obtained from the ccRepo (grant-hill.group.shef.ac.uk/ccrepo) Feb. 2017
              B. P. Prascher, D. E. Woon, K. A. Peterson, T. H. Dunning, Jr., A. K. Wilson, Theor. Chem. Acc. 128, 69 (2011)
         Mg : Obtained from the Peterson Research Group Website (tyr0.chem.wsu.edu/~kipeters) Feb. 2017
              B. P. Prascher, D. E. Woon, K. A. Peterson, T. H. Dunning, Jr., A. K. Wilson, Theor. Chem. Acc. 128, 69 (2011)
      Al-Ar : Obtained from the ccRepo (grant-hill.group.shef.ac.uk/ccrepo) Feb. 2017
              D. E. Woon, T. H. Dunning, Jr., J. Chem. Phys. 98, 1358 (1993)
      Sc-Zn : Obtained from the ccRepo (grant-hill.group.shef.ac.uk/ccrepo) Feb. 2017
              N. B. Balabanov, K. A. Peterson, J. Chem. Phys. 123, 064107 (2005)
              N. B. Balabanov, K. A. Peterson, J. Chem. Phys. 125, 074110 (2006)
      Ga-Kr : Obtained from the ccRepo (grant-hill.group.shef.ac.uk/ccrepo) Feb. 2017
              A. K. Wilson, D. E. Woon, K. A. Peterson, T. H. Dunning, Jr., J. Chem. Phys. 110, 7667 (1999)
     Ag, Au : Obtained from the Peterson Research Group Website (tyr0.chem.wsu.edu/~kipeters) Feb. 2017
              K. A. Peterson, C. Puzzarini, Theor. Chem. Acc. 114, 283 (2005)

----- AuxJK basis set information -----
Your calculation utilizes the auxiliary basis: def2/JK
   H-Ba, Hf-Rn: F. Weigend, J. Comput. Chem. 29, 167 (2008).

================================================================================
                                        WARNINGS
                       Please study these warnings very carefully!
================================================================================


WARNING: your system is open-shell and RHF/RKS was chosen
  ===> : WILL SWITCH to UHF/UKS


INFO   : the flag for use of LIBINT has been found!

================================================================================
                                       INPUT FILE
================================================================================
NAME = 12_TiS.in
|  1> #
|  2> # 12_TiS wb97x-v/aug-cc-pvtz
|  3> #
|  4> ! wb97x-v aug-cc-pvtz def2/jk grid4 nofinalgrid
|  5> 
|  6> *xyz 0 3
|  7>   Ti  0.00000000000000      0.00000000000000     -0.04354772803913
|  8>   S   0.00000000000000      0.00000000000000      2.04354772803913
|  9> *
| 10> 
| 11> %pal
| 12> nprocs 24
| 13> end
| 14> 
| 15> 
| 16>                          ****END OF INPUT****
================================================================================

                       ****************************
                       * Single Point Calculation *
                       ****************************

---------------------------------
CARTESIAN COORDINATES (ANGSTROEM)
---------------------------------
  Ti     0.000000    0.000000   -0.043548
  S      0.000000    0.000000    2.043548

----------------------------
CARTESIAN COORDINATES (A.U.)
----------------------------
  NO LB      ZA    FRAG     MASS         X           Y           Z
   0 Ti   22.0000    0    47.900    0.000000    0.000000   -0.082293
   1 S    16.0000    0    32.060    0.000000    0.000000    3.861746

--------------------------------
INTERNAL COORDINATES (ANGSTROEM)
--------------------------------
 Ti     0   0   0     0.000000000000     0.00000000     0.00000000
 S      1   0   0     2.087095456078     0.00000000     0.00000000

---------------------------
INTERNAL COORDINATES (A.U.)
---------------------------
 Ti     0   0   0     0.000000000000     0.00000000     0.00000000
 S      1   0   0     3.944038827339     0.00000000     0.00000000

---------------------
BASIS SET INFORMATION
---------------------
There are 2 groups of distinct atoms

 Group   1 Type Ti  : 116s77p23d3f2g contracted to 8s7p5d3f2g pattern {19191919191911/151515151511/77711/111/11}
 Group   2 Type S   : 42s17p3d2f contracted to 6s5p3d2f pattern {131313111/77111/111/11}

Atom   0Ti   basis set group =>   1
Atom   1S    basis set group =>   2
----------------------------------
AUXILIARY/JK BASIS SET INFORMATION
----------------------------------
There are 2 groups of distinct atoms

 Group   1 Type Ti  : 19s14p12d10f7g3h1i contracted to 16s13p11d9f5g3h1i pattern {4111111111111111/2111111111111/21111111111/211111111/31111/111/1}
 Group   2 Type S   : 16s12p10d4f1g contracted to 13s11p9d4f1g pattern {4111111111111/21111111111/211111111/1111/1}

Atom   0Ti   basis set group =>   1
Atom   1S    basis set group =>   2


           ************************************************************
           *        Program running with 24 parallel MPI-processes    *
           *              working on a common directory               *
           ************************************************************
------------------------------------------------------------------------------
                           ORCA GTO INTEGRAL CALCULATION
------------------------------------------------------------------------------

                         BASIS SET STATISTICS AND STARTUP INFO

 # of primitive gaussian shells          ...  285
 # of primitive gaussian functions       ...  623
 # of contracted shells                  ...   41
 # of contracted basis functions         ...  143
 Highest angular momentum                ...    4
 Maximum contraction depth               ...   19
 Integral package used                   ... LIBINT
 Integral threshhold            Thresh   ...  1.000e-10
 Primitive cut-off              TCut     ...  1.000e-11


------------------------------ INTEGRAL EVALUATION ----------------------------


 * One electron integrals 
 Pre-screening matrix                    ... done
 Shell pair data                         ... done (   0.001 sec)



           ************************************************************
           *        Program running with 24 parallel MPI-processes    *
           *              working on a common directory               *
           ************************************************************
-------------------------------------------------------------------------------
                                 ORCA SCF
-------------------------------------------------------------------------------

------------
SCF SETTINGS
------------
Hamiltonian:
 Density Functional     Method          .... DFT(GTOs)
 Exchange Functional    Exchange        .... WB97X-V
 Correlation Functional Correlation     .... WB97X-V
 Gradients option       PostSCFGGA      .... off
 Hybrid DFT is turned on
   Fraction HF Exchange ScalHFX         ....  0.167000
   Scaling of DF-GGA-X  ScalDFX         ....  0.000000
   Scaling of DF-GGA-C  ScalDFC         ....  1.000000
   Scaling of DF-LDA-C  ScalLDAC        ....  1.000000
   Perturbative correction              ....  0.000000
   Density functional embedding theory  .... OFF
 Long-range corrected/Screened/Range-Separated Hybrid DFT is turned on
   Amount of maximum screened exact exchange              ....  0.833000
   Range separation parameter mu (erf(mu*r12)/r12)        ....  0.300000
   NL short-range parameter             ....  6.000000
   NL long-range parameter              ....  0.010000


General Settings:
 Integral files         IntName         .... 12_TiS
 Hartree-Fock type      HFTyp           .... UHF
 Total Charge           Charge          ....    0
 Multiplicity           Mult            ....    3
 Number of Electrons    NEL             ....   38
 Basis Dimension        Dim             ....  143
 Nuclear Repulsion      ENuc            ....     89.2486142783 Eh

Convergence Acceleration:
 DIIS                   CNVDIIS         .... on
   Start iteration      DIISMaxIt       ....    12
   Startup error        DIISStart       ....  0.200000
   # of expansion vecs  DIISMaxEq       ....     5
   Bias factor          DIISBfac        ....   1.050
   Max. coefficient     DIISMaxC        ....  10.000
 Newton-Raphson         CNVNR           .... off
 SOSCF                  CNVSOSCF        .... off
 Level Shifting         CNVShift        .... on
   Level shift para.    LevelShift      ....    0.2500
   Turn off err/grad.   ShiftErr        ....    0.0010
 Zerner damping         CNVZerner       .... off
 Static damping         CNVDamp         .... on
   Fraction old density DampFac         ....    0.7000
   Max. Damping (<1)    DampMax         ....    0.9800
   Min. Damping (>=0)   DampMin         ....    0.0000
   Turn off err/grad.   DampErr         ....    0.1000
 Fernandez-Rico         CNVRico         .... off

SCF Procedure:
 Maximum # iterations   MaxIter         ....   125
 SCF integral mode      SCFMode         .... Direct
   Integral package                     .... LIBINT
 Reset frequency        DirectResetFreq ....    20
 Integral Threshold     Thresh          ....  1.000e-10 Eh
 Primitive CutOff       TCut            ....  1.000e-11 Eh

Convergence Tolerance:
 Convergence Check Mode ConvCheckMode   .... Total+1el-Energy
 Convergence forced     ConvForced      .... 0
 Energy Change          TolE            ....  1.000e-06 Eh
 1-El. energy change                    ....  1.000e-03 Eh
 DIIS Error             TolErr          ....  1.000e-06


Diagonalization of the overlap matrix:
Smallest eigenvalue                        ... 4.133e-05
Time for diagonalization                   ...    0.006 sec
Threshold for overlap eigenvalues          ... 1.000e-08
Number of eigenvalues below threshold      ... 0
Time for construction of square roots      ...    0.002 sec
Total time needed                          ...    0.008 sec

-------------------
DFT GRID GENERATION
-------------------

General Integration Accuracy     IntAcc      ...  4.670
Radial Grid Type                 RadialGrid  ... Gauss-Chebyshev
Angular Grid (max. acc.)         AngularGrid ... Lebedev-302
Angular grid pruning method      GridPruning ... 3 (G Style)
Weight generation scheme         WeightScheme... Becke
Basis function cutoff            BFCut       ...    1.0000e-10
Integration weight cutoff        WCut        ...    1.0000e-14
Grids for H and He will be reduced by one unit

# of grid points (after initial pruning)     ...  16510 (   0.0 sec)
# of grid points (after weights+screening)   ...  16481 (   0.0 sec)
nearest neighbour list constructed           ...    0.0 sec
Grid point re-assignment to atoms done       ...    0.0 sec
Grid point division into batches done        ...    0.1 sec
Reduced shell lists constructed in    0.1 sec

Total number of grid points                  ...    16481
Total number of batches                      ...      259
Average number of points per batch           ...       63
Average number of grid points per atom       ...     8240
Average number of shells per batch           ...    18.58 (45.33%)
Average number of basis functions per batch  ...    53.25 (37.24%)
Average number of large shells per batch     ...    11.33 (60.99%)
Average number of large basis fcns per batch ...    33.33 (62.60%)
Maximum spatial batch extension              ...  24.49, 24.19, 18.13 au
Average spatial batch extension              ...   0.84,  0.83,  0.65 au

Time for grid setup =    0.154 sec

------------------------------
INITIAL GUESS: MODEL POTENTIAL
------------------------------
Loading Hartree-Fock densities                     ... done
Calculating cut-offs                               ... done
Setting up the integral package                    ... done
Initializing the effective Hamiltonian             ... done
Starting the Coulomb interaction                   ... done (   0.0 sec)
Reading the grid                                   ... done
Mapping shells                                     ... done
Starting the XC term evaluation                    ... done (   0.0 sec)
  promolecular density results
     # of electrons  =     38.000009268
     EX              =    -49.508230957
     EC              =     -2.041273776
     EX+EC           =    -51.549504733
Transforming the Hamiltonian                       ... done (   0.0 sec)
Diagonalizing the Hamiltonian                      ... done (   0.0 sec)
Back transforming the eigenvectors                 ... done (   0.0 sec)
Now organizing SCF variables                       ... done
                      ------------------
                      INITIAL GUESS DONE (   0.3 sec)
                      ------------------
--------------
SCF ITERATIONS
--------------
ITER       Energy         Delta-E        Max-DP      RMS-DP      [F,P]     Damp
               ***  Starting incremental Fock matrix formation  ***
  0  -1246.7903509670   0.000000000000 0.90235798  0.01771655  0.4679222 0.7000
  1  -1246.8967386990  -0.106387732000 0.44299684  0.00742516  0.1849282 0.7000
                               ***Turning on DIIS***
  2  -1247.0518597789  -0.155121079915 0.30835814  0.00525610  0.1783177 0.7000
  3  -1247.2061199085  -0.154260129606 0.72673870  0.01119001  0.0754108 0.0000
  4  -1247.5767308870  -0.370610978519 0.06781245  0.00141659  0.0709530 0.0000
  5  -1247.5932740922  -0.016543205180 0.06409047  0.00120172  0.0244980 0.0000
  6  -1247.5984096597  -0.005135567462 0.02238970  0.00042630  0.0127584 0.0000
  7  -1247.6007291810  -0.002319521296 0.02828606  0.00031992  0.0091669 0.0000
  8  -1247.6026661871  -0.001937006135 0.03060250  0.00034955  0.0091311 0.0000
  9  -1247.6042923063  -0.001626119237 0.02954063  0.00026229  0.0093086 0.0000
 10  -1247.6056358610  -0.001343554690 0.02605177  0.00026151  0.0088972 0.0000
 11  -1247.6067605983  -0.001124737290 0.02973361  0.00025770  0.0088332 0.0000
 12  -1247.6079933055  -0.001232707222 0.03540713  0.00032020  0.0085819 0.0000
 13  -1247.6094317368  -0.001438431271 0.03905849  0.00033836  0.0083918 0.0000
 14  -1247.6109820504  -0.001550313641 0.05616085  0.00055633  0.0079150 0.0000
 15  -1247.6131306536  -0.002148603139 0.01027386  0.00020759  0.0076127 0.0000
 16  -1247.6132114654  -0.000080811797 0.06933811  0.00088916  0.0067260 0.0000
 17  -1247.6156356704  -0.002424205011 0.01690330  0.00026409  0.0076699 0.0000
 18  -1247.6163354692  -0.000699798760 0.02528678  0.00032352  0.0054438 0.0000
 19  -1247.6172276370  -0.000892167887 0.03303073  0.00039528  0.0042211 0.0000
               *** Restarting incremental Fock matrix formation ***
                                   *** Resetting DIIS ***
 20  -1247.6180239295  -0.000796292431 0.01543908  0.00032380  0.0036166 0.0000
 21  -1247.6181370108  -0.000113081277 0.01033265  0.00021076  0.0036493 0.0000
 22  -1247.6182205777  -0.000083566990 0.00431828  0.00004584  0.0027038 0.0000
 23  -1247.6183001335  -0.000079555807 0.00652180  0.00006457  0.0026024 0.0000
 24  -1247.6184089476  -0.000108814064 0.01076764  0.00010624  0.0024346 0.0000
 25  -1247.6185659795  -0.000157031861 0.00755292  0.00006940  0.0021578 0.0000
 26  -1247.6186628254  -0.000096845898 0.01780652  0.00017001  0.0019678 0.0000
 27  -1247.6188449357  -0.000182110297 0.00499347  0.00004772  0.0015228 0.0000
 28  -1247.6188903165  -0.000045380840 0.01952757  0.00018003  0.0014101 0.0000
 29  -1247.6190095548  -0.000119238306 0.00621476  0.00005534  0.0010832 0.0000
 30  -1247.6190402636  -0.000030708742 0.01281547  0.00011277  0.0007519 0.0000
 31  -1247.6190793858  -0.000039122287 0.00899572  0.00008116  0.0003912 0.0000
 32  -1247.6190886108  -0.000009225001 0.00102478  0.00001430  0.0004335 0.0000
 33  -1247.6190900678  -0.000001456986 0.00156706  0.00001576  0.0000890 0.0000
 34  -1247.6190906214  -0.000000553604 0.00042422  0.00000565  0.0000616 0.0000
                 **** Energy Check signals convergence ****

               *****************************************************
               *                     SUCCESS                       *
               *           SCF CONVERGED AFTER  35 CYCLES          *
               *****************************************************


Setting up the DFT-NL grid :

General Integration Accuracy     IntAcc      ...  4.340
Radial Grid Type                 RadialGrid  ... Gauss-Chebyshev
Angular Grid (max. acc.)         AngularGrid ... Lebedev-110
Angular grid pruning method      GridPruning ... 3 (G Style)
Weight generation scheme         WeightScheme... Becke
Basis function cutoff            BFCut       ...    1.0000e-10
Integration weight cutoff        WCut        ...    1.0000e-14
Grids for H and He will be reduced by one unit

# of grid points (after initial pruning)     ...   4778 (   0.0 sec)
# of grid points (after weights+screening)   ...   4753 (   0.0 sec)
nearest neighbour list constructed           ...    0.0 sec
Grid point re-assignment to atoms done       ...    0.0 sec
Grid point division into batches done        ...    0.0 sec
Reduced shell lists constructed in    0.0 sec

Total number of grid points                  ...     4753
Total number of batches                      ...       75
Average number of points per batch           ...       63
Average number of grid points per atom       ...     2376
Average number of shells per batch           ...    24.40 (59.51%)
Average number of basis functions per batch  ...    82.80 (57.90%)
Average number of large shells per batch     ...    20.00 (81.97%)
Average number of large basis fcns per batch ...    68.00 (82.13%)
Maximum spatial batch extension              ...  18.98, 28.73, 16.15 au
Average spatial batch extension              ...   0.93,  1.27,  0.86 au

Final grid set up in    0.0 sec

-------------------------------------------------------------------------------
                         DFT-NL dispersion correction                          
-------------------------------------------------------------------------------

SC Energy -1247.619090973 
NL    Energy 0.158115483 
SC+NL Energy -1247.460975489 
NL done in    0.0 sec
-------------------------------------------------------------------------------

----------------
TOTAL SCF ENERGY
----------------

Total Energy       :        -1247.46097549 Eh          -33945.13888 eV

Components:
Nuclear Repulsion  :           89.24861428 Eh            2428.57826 eV
Electronic Energy  :        -1336.70958977 Eh          -36373.71714 eV
One Electron Energy:        -1892.98774999 Eh          -51510.81544 eV
Two Electron Energy:          556.27816022 Eh           15137.09829 eV

Virial components:
Potential Energy   :        -2492.65516531 Eh          -67828.59539 eV
Kinetic Energy     :         1245.19418982 Eh           33883.45651 eV
Virial Ratio       :            2.00182043


DFT components:
N(Alpha)           :       19.999995414908 electrons
N(Beta)            :       17.999995413570 electrons
N(Total)           :       37.999990828478 electrons
E(X)               :      -49.611796984634 Eh       
E(C)               :       -2.035994345355 Eh       
NL Energy, E(C,NL) :        0.158115483091 Eh       
E(XC)              :      -51.489675846898 Eh       
DFET-embed. en.    :        0.000000000000 Eh       

---------------
SCF CONVERGENCE
---------------

  Last Energy change         ...   -3.5115e-07  Tolerance :   1.0000e-06
  Last MAX-Density change    ...    6.0761e-04  Tolerance :   1.0000e-05
  Last RMS-Density change    ...    6.1466e-06  Tolerance :   1.0000e-06
  Last DIIS Error            ...    3.3625e-05  Tolerance :   1.0000e-06

             **** THE GBW FILE WAS UPDATED (12_TiS.gbw) ****
             **** DENSITY FILE WAS UPDATED (12_TiS.scfp) ****
             **** ENERGY FILE WAS UPDATED (12_TiS.en.tmp) ****
----------------------
UHF SPIN CONTAMINATION
----------------------

Warning: in a DFT calculation there is little theoretical justification to 
         calculate <S**2> as in Hartree-Fock theory. We will do it anyways
         but you should keep in mind that the values have only limited relevance

Expectation value of <S**2>     :     2.033454
Ideal value S*(S+1) for S=1.0   :     2.000000
Deviation                       :     0.033454

             **** THE GBW FILE WAS UPDATED (12_TiS.gbw) ****
             **** DENSITY FILE WAS UPDATED (12_TiS.scfp) ****
----------------
ORBITAL ENERGIES
----------------
                 SPIN UP ORBITALS
  NO   OCC          E(Eh)            E(eV) 
   0   1.0000    -178.812174     -4865.7266 
   1   1.0000     -88.818983     -2416.8874 
   2   1.0000     -19.964605      -543.2645 
   3   1.0000     -16.671842      -453.6639 
   4   1.0000     -16.671833      -453.6636 
   5   1.0000     -16.670420      -453.6252 
   6   1.0000      -7.976696      -217.0569 
   7   1.0000      -5.929078      -161.3384 
   8   1.0000      -5.929075      -161.3383 
   9   1.0000      -5.928484      -161.3222 
  10   1.0000      -2.515374       -68.4468 
  11   1.0000      -1.626869       -44.2694 
  12   1.0000      -1.625043       -44.2197 
  13   1.0000      -1.625011       -44.2188 
  14   1.0000      -0.727717       -19.8022 
  15   1.0000      -0.360081        -9.7983 
  16   1.0000      -0.332841        -9.0571 
  17   1.0000      -0.327465        -8.9108 
  18   1.0000      -0.327450        -8.9104 
  19   1.0000      -0.273978        -7.4553 
  20   0.0000      -0.024235        -0.6595 
  21   0.0000      -0.007660        -0.2084 
  22   0.0000      -0.007592        -0.2066 
  23   0.0000       0.019066         0.5188 
  24   0.0000       0.019819         0.5393 
  25   0.0000       0.027544         0.7495 
  26   0.0000       0.027607         0.7512 
  27   0.0000       0.029046         0.7904 
  28   0.0000       0.051279         1.3954 
  29   0.0000       0.051297         1.3959 
  30   0.0000       0.052208         1.4207 
  31   0.0000       0.054208         1.4751 
  32   0.0000       0.055449         1.5088 
  33   0.0000       0.067035         1.8241 
  34   0.0000       0.067071         1.8251 
  35   0.0000       0.099544         2.7087 
  36   0.0000       0.119425         3.2497 
  37   0.0000       0.154446         4.2027 
  38   0.0000       0.154450         4.2028 
  39   0.0000       0.154915         4.2154 
  40   0.0000       0.176011         4.7895 
  41   0.0000       0.176778         4.8104 
  42   0.0000       0.176784         4.8105 
  43   0.0000       0.184545         5.0217 
  44   0.0000       0.187960         5.1146 
  45   0.0000       0.198546         5.4027 
  46   0.0000       0.198557         5.4030 
  47   0.0000       0.264440         7.1958 
  48   0.0000       0.277256         7.5445 
  49   0.0000       0.278643         7.5823 
  50   0.0000       0.306935         8.3521 
  51   0.0000       0.306937         8.3522 
  52   0.0000       0.349061         9.4984 
  53   0.0000       0.359485         9.7821 
  54   0.0000       0.359505         9.7826 
  55   0.0000       0.362166         9.8550 
  56   0.0000       0.393307        10.7024 
  57   0.0000       0.393325        10.7029 
  58   0.0000       0.394707        10.7405 
  59   0.0000       0.395309        10.7569 
  60   0.0000       0.440707        11.9922 
  61   0.0000       0.480489        13.0748 
  62   0.0000       0.582975        15.8636 
  63   0.0000       0.582991        15.8640 
  64   0.0000       0.589608        16.0440 
  65   0.0000       0.610469        16.6117 
  66   0.0000       0.622863        16.9490 
  67   0.0000       0.622883        16.9495 
  68   0.0000       0.707355        19.2481 
  69   0.0000       0.723139        19.6776 
  70   0.0000       0.725243        19.7349 
  71   0.0000       0.748725        20.3738 
  72   0.0000       0.748735        20.3741 
  73   0.0000       0.782090        21.2818 
  74   0.0000       0.816275        22.2120 
  75   0.0000       0.819676        22.3045 
  76   0.0000       0.819705        22.3053 
  77   0.0000       0.837208        22.7816 
  78   0.0000       0.837210        22.7816 
  79   0.0000       0.913083        24.8463 
  80   0.0000       0.920489        25.0478 
  81   0.0000       0.926483        25.2109 
  82   0.0000       0.957916        26.0662 
  83   0.0000       0.957941        26.0669 
  84   0.0000       0.978653        26.6305 
  85   0.0000       0.979395        26.6507 
  86   0.0000       0.988974        26.9114 
  87   0.0000       0.989008        26.9123 
  88   0.0000       1.033978        28.1360 
  89   0.0000       1.040502        28.3135 
  90   0.0000       1.048560        28.5328 
  91   0.0000       1.086316        29.5602 
  92   0.0000       1.086321        29.5603 
  93   0.0000       1.190472        32.3944 
  94   0.0000       1.229939        33.4684 
  95   0.0000       1.229958        33.4688 
  96   0.0000       1.330452        36.2034 
  97   0.0000       1.336790        36.3759 
  98   0.0000       1.548598        42.1395 
  99   0.0000       1.548616        42.1400 
 100   0.0000       1.548663        42.1413 
 101   0.0000       1.908886        51.9434 
 102   0.0000       1.955382        53.2086 
 103   0.0000       1.955406        53.2093 
 104   0.0000       1.968375        53.5622 
 105   0.0000       1.968780        53.5732 
 106   0.0000       1.982404        53.9439 
 107   0.0000       2.110701        57.4351 
 108   0.0000       2.110707        57.4353 
 109   0.0000       2.170221        59.0547 
 110   0.0000       2.201991        59.9192 
 111   0.0000       2.202588        59.9355 
 112   0.0000       2.267042        61.6893 
 113   0.0000       2.267042        61.6893 
 114   0.0000       2.277009        61.9606 
 115   0.0000       2.277041        61.9614 
 116   0.0000       2.313770        62.9609 
 117   0.0000       2.317958        63.0748 
 118   0.0000       2.352510        64.0150 
 119   0.0000       2.352564        64.0165 
 120   0.0000       2.357820        64.1595 
 121   0.0000       2.408886        65.5491 
 122   0.0000       2.614313        71.1391 
 123   0.0000       2.614341        71.1398 
 124   0.0000       2.659078        72.3572 
 125   0.0000       3.303795        89.9008 
 126   0.0000       3.307373        89.9982 
 127   0.0000       3.324723        90.4703 
 128   0.0000       3.331810        90.6632 
 129   0.0000       3.331817        90.6633 
 130   0.0000       3.364686        91.5578 
 131   0.0000       3.379134        91.9509 
 132   0.0000       3.495206        95.1094 
 133   0.0000       3.495213        95.1096 
 134   0.0000       3.500947        95.2656 
 135   0.0000       3.500978        95.2665 
 136   0.0000       3.560078        96.8746 
 137   0.0000       3.580624        97.4337 
 138   0.0000       3.806140       103.5703 
 139   0.0000       3.806219       103.5725 
 140   0.0000       3.870457       105.3205 
 141   0.0000       4.151365       112.9644 
 142   0.0000       5.654544       153.8680 

                 SPIN DOWN ORBITALS
  NO   OCC          E(Eh)            E(eV) 
   0   1.0000    -178.811442     -4865.7067 
   1   1.0000     -88.820228     -2416.9213 
   2   1.0000     -19.948242      -542.8193 
   3   1.0000     -16.660315      -453.3502 
   4   1.0000     -16.656676      -453.2512 
   5   1.0000     -16.656647      -453.2504 
   6   1.0000      -7.977879      -217.0891 
   7   1.0000      -5.930943      -161.3892 
   8   1.0000      -5.930914      -161.3884 
   9   1.0000      -5.930652      -161.3812 
  10   1.0000      -2.462283       -67.0021 
  11   1.0000      -1.578239       -42.9461 
  12   1.0000      -1.561452       -42.4893 
  13   1.0000      -1.561356       -42.4867 
  14   1.0000      -0.736312       -20.0361 
  15   1.0000      -0.350940        -9.5496 
  16   1.0000      -0.329539        -8.9672 
  17   1.0000      -0.329458        -8.9650 
  18   0.0000      -0.030572        -0.8319 
  19   0.0000       0.016636         0.4527 
  20   0.0000       0.016658         0.4533 
  21   0.0000       0.016723         0.4550 
  22   0.0000       0.027275         0.7422 
  23   0.0000       0.037159         1.0112 
  24   0.0000       0.039170         1.0659 
  25   0.0000       0.041445         1.1278 
  26   0.0000       0.041461         1.1282 
  27   0.0000       0.048802         1.3280 
  28   0.0000       0.056051         1.5252 
  29   0.0000       0.056059         1.5255 
  30   0.0000       0.060910         1.6574 
  31   0.0000       0.062459         1.6996 
  32   0.0000       0.068705         1.8696 
  33   0.0000       0.085841         2.3359 
  34   0.0000       0.085874         2.3368 
  35   0.0000       0.109294         2.9740 
  36   0.0000       0.134245         3.6530 
  37   0.0000       0.156328         4.2539 
  38   0.0000       0.156344         4.2543 
  39   0.0000       0.157429         4.2839 
  40   0.0000       0.192626         5.2416 
  41   0.0000       0.192661         5.2426 
  42   0.0000       0.199833         5.4377 
  43   0.0000       0.203424         5.5354 
  44   0.0000       0.204686         5.5698 
  45   0.0000       0.209412         5.6984 
  46   0.0000       0.209452         5.6995 
  47   0.0000       0.270508         7.3609 
  48   0.0000       0.283463         7.7134 
  49   0.0000       0.284181         7.7329 
  50   0.0000       0.316941         8.6244 
  51   0.0000       0.316941         8.6244 
  52   0.0000       0.357389         9.7251 
  53   0.0000       0.366067         9.9612 
  54   0.0000       0.366683         9.9779 
  55   0.0000       0.366716         9.9788 
  56   0.0000       0.396060        10.7773 
  57   0.0000       0.396088        10.7781 
  58   0.0000       0.399478        10.8703 
  59   0.0000       0.400141        10.8884 
  60   0.0000       0.450735        12.2651 
  61   0.0000       0.498134        13.5549 
  62   0.0000       0.598225        16.2785 
  63   0.0000       0.598281        16.2801 
  64   0.0000       0.621071        16.9002 
  65   0.0000       0.628391        17.0994 
  66   0.0000       0.628443        17.1008 
  67   0.0000       0.628897        17.1131 
  68   0.0000       0.709282        19.3005 
  69   0.0000       0.722822        19.6690 
  70   0.0000       0.723732        19.6938 
  71   0.0000       0.751478        20.4488 
  72   0.0000       0.751520        20.4499 
  73   0.0000       0.792939        21.5770 
  74   0.0000       0.816242        22.2111 
  75   0.0000       0.826663        22.4946 
  76   0.0000       0.826709        22.4959 
  77   0.0000       0.839351        22.8399 
  78   0.0000       0.839351        22.8399 
  79   0.0000       0.920005        25.0346 
  80   0.0000       0.929329        25.2883 
  81   0.0000       0.930665        25.3247 
  82   0.0000       0.963858        26.2279 
  83   0.0000       0.963906        26.2292 
  84   0.0000       0.986962        26.8566 
  85   0.0000       0.987007        26.8578 
  86   0.0000       1.019006        27.7286 
  87   0.0000       1.019012        27.7287 
  88   0.0000       1.039339        28.2818 
  89   0.0000       1.040470        28.3126 
  90   0.0000       1.056993        28.7622 
  91   0.0000       1.093526        29.7564 
  92   0.0000       1.093528        29.7564 
  93   0.0000       1.194161        32.4948 
  94   0.0000       1.231641        33.5147 
  95   0.0000       1.231683        33.5158 
  96   0.0000       1.340456        36.4757 
  97   0.0000       1.342688        36.5364 
  98   0.0000       1.554100        42.2892 
  99   0.0000       1.555228        42.3199 
 100   0.0000       1.555270        42.3210 
 101   0.0000       1.924211        52.3604 
 102   0.0000       1.964129        53.4467 
 103   0.0000       1.964417        53.4545 
 104   0.0000       1.985688        54.0333 
 105   0.0000       1.985773        54.0356 
 106   0.0000       1.996688        54.3326 
 107   0.0000       2.110627        57.4331 
 108   0.0000       2.110686        57.4347 
 109   0.0000       2.203265        59.9539 
 110   0.0000       2.216871        60.3241 
 111   0.0000       2.227641        60.6172 
 112   0.0000       2.261392        61.5356 
 113   0.0000       2.261392        61.5356 
 114   0.0000       2.277949        61.9862 
 115   0.0000       2.277994        61.9874 
 116   0.0000       2.317545        63.0636 
 117   0.0000       2.321143        63.1615 
 118   0.0000       2.366325        64.3910 
 119   0.0000       2.367185        64.4144 
 120   0.0000       2.367228        64.4155 
 121   0.0000       2.437586        66.3301 
 122   0.0000       2.621660        71.3390 
 123   0.0000       2.621714        71.3405 
 124   0.0000       2.680839        72.9493 
 125   0.0000       3.340111        90.8890 
 126   0.0000       3.350708        91.1774 
 127   0.0000       3.351541        91.2001 
 128   0.0000       3.358027        91.3765 
 129   0.0000       3.358029        91.3766 
 130   0.0000       3.389978        92.2460 
 131   0.0000       3.396860        92.4333 
 132   0.0000       3.522207        95.8441 
 133   0.0000       3.522256        95.8455 
 134   0.0000       3.551911        96.6524 
 135   0.0000       3.551912        96.6525 
 136   0.0000       3.592354        97.7529 
 137   0.0000       3.608144        98.1826 
 138   0.0000       3.840154       104.4959 
 139   0.0000       3.840183       104.4967 
 140   0.0000       3.904427       106.2449 
 141   0.0000       4.169013       113.4446 
 142   0.0000       5.653661       153.8439 

                    ********************************
                    * MULLIKEN POPULATION ANALYSIS *
                    ********************************

--------------------------------------------
MULLIKEN ATOMIC CHARGES AND SPIN POPULATIONS
--------------------------------------------
   0 Ti:    0.251614    2.185775
   1 S :   -0.251614   -0.185775
Sum of atomic charges         :   -0.0000000
Sum of atomic spin populations:    2.0000000

-----------------------------------------------------
MULLIKEN REDUCED ORBITAL CHARGES AND SPIN POPULATIONS
-----------------------------------------------------
CHARGE
  0 Tis       :     6.844329  s :     6.844329
      pz      :     4.122120  p :    12.295021
      px      :     4.086436
      py      :     4.086465
      dz2     :     0.822348  d :     2.560532
      dxz     :     0.370577
      dyz     :     0.369946
      dx2y2   :     0.734242
      dxy     :     0.263420
      f0      :     0.003493  f :     0.039589
      f+1     :     0.017851
      f-1     :     0.017850
      f+2     :     0.000193
      f-2     :     0.000069
      f+3     :     0.000066
      f-3     :     0.000066
      g0      :     0.000872  g :     0.008916
      g+1     :     0.003992
      g-1     :     0.003992
      g+2     :     0.000005
      g-2     :     0.000002
      g+3     :     0.000002
      g-3     :     0.000002
      g+4     :     0.000011
      g-4     :     0.000039
  1 S s       :     5.859067  s :     5.859067
      pz      :     3.341940  p :    10.365937
      px      :     3.511688
      py      :     3.512309
      dz2     :     0.004653  d :     0.025355
      dxz     :     0.009508
      dyz     :     0.009491
      dx2y2   :     0.001254
      dxy     :     0.000450
      f0      :     0.001123  f :     0.001254
      f+1     :    -0.000120
      f-1     :    -0.000120
      f+2     :     0.000273
      f-2     :     0.000098
      f+3     :    -0.000000
      f-3     :    -0.000000

SPIN
  0 Tis       :     0.537951  s :     0.537951
      pz      :     0.021466  p :     0.043525
      px      :     0.011026
      py      :     0.011033
      dz2     :     0.477582  d :     1.608027
      dxz     :     0.066825
      dyz     :     0.065960
      dx2y2   :     0.734242
      dxy     :     0.263420
      f0      :    -0.000769  f :    -0.003453
      f+1     :    -0.001523
      f-1     :    -0.001526
      f+2     :     0.000193
      f-2     :     0.000069
      f+3     :     0.000051
      f-3     :     0.000051
      g0      :     0.000027  g :    -0.000275
      g+1     :    -0.000179
      g-1     :    -0.000180
      g+2     :     0.000005
      g-2     :     0.000002
      g+3     :     0.000001
      g-3     :     0.000001
      g+4     :     0.000010
      g-4     :     0.000036
  1 S s       :     0.019136  s :     0.019136
      pz      :    -0.060581  p :    -0.218957
      px      :    -0.079633
      py      :    -0.078743
      dz2     :     0.004007  d :     0.011599
      dxz     :     0.002957
      dyz     :     0.002932
      dx2y2   :     0.001254
      dxy     :     0.000450
      f0      :     0.001130  f :     0.002447
      f+1     :     0.000474
      f-1     :     0.000473
      f+2     :     0.000273
      f-2     :     0.000098
      f+3     :    -0.000000
      f-3     :    -0.000000


                     *******************************
                     * LOEWDIN POPULATION ANALYSIS *
                     *******************************

-------------------------------------------
LOEWDIN ATOMIC CHARGES AND SPIN POPULATIONS
-------------------------------------------
   0 Ti:    0.054188    2.029529
   1 S :   -0.054188   -0.029529

----------------------------------------------------
LOEWDIN REDUCED ORBITAL CHARGES AND SPIN POPULATIONS
----------------------------------------------------
CHARGE
  0 Tis       :     6.461977  s :     6.461977
      pz      :     4.201525  p :    12.249483
      px      :     4.023938
      py      :     4.024020
      dz2     :     0.966076  d :     2.793120
      dxz     :     0.427122
      dyz     :     0.426604
      dx2y2   :     0.716326
      dxy     :     0.256992
      f0      :     0.125294  f :     0.309324
      f+1     :     0.090925
      f-1     :     0.090971
      f+2     :     0.001473
      f-2     :     0.000528
      f+3     :     0.000066
      f-3     :     0.000066
      g0      :     0.040918  g :     0.131908
      g+1     :     0.045277
      g-1     :     0.045297
      g+2     :     0.000267
      g-2     :     0.000096
      g+3     :     0.000002
      g-3     :     0.000002
      g+4     :     0.000011
      g-4     :     0.000039
  1 S s       :     5.395929  s :     5.395929
      pz      :     3.517993  p :    10.157875
      px      :     3.319730
      py      :     3.320152
      dz2     :     0.181481  d :     0.293758
      dxz     :     0.050790
      dyz     :     0.050750
      dx2y2   :     0.007901
      dxy     :     0.002835
      f0      :     0.108752  f :     0.206625
      f+1     :     0.042150
      f-1     :     0.042138
      f+2     :     0.009999
      f-2     :     0.003587
      f+3     :     0.000000
      f-3     :     0.000000

SPIN
  0 Tis       :     0.491933  s :     0.491933
      pz      :     0.019871  p :     0.029183
      px      :     0.004614
      py      :     0.004698
      dz2     :     0.451088  d :     1.529836
      dxz     :     0.053068
      dyz     :     0.052362
      dx2y2   :     0.716326
      dxy     :     0.256992
      f0      :    -0.002105  f :    -0.015562
      f+1     :    -0.007814
      f-1     :    -0.007746
      f+2     :     0.001473
      f-2     :     0.000528
      f+3     :     0.000051
      f-3     :     0.000050
      g0      :    -0.000131  g :    -0.005860
      g+1     :    -0.003085
      g-1     :    -0.003057
      g+2     :     0.000267
      g-2     :     0.000096
      g+3     :     0.000001
      g-3     :     0.000001
      g+4     :     0.000010
      g-4     :     0.000036
  1 S s       :     0.026047  s :     0.026047
      pz      :    -0.000089  p :    -0.106721
      px      :    -0.053615
      py      :    -0.053017
      dz2     :     0.010536  d :     0.031713
      dxz     :     0.005248
      dyz     :     0.005193
      dx2y2   :     0.007901
      dxy     :     0.002835
      f0      :     0.002799  f :     0.019431
      f+1     :     0.001531
      f-1     :     0.001515
      f+2     :     0.009999
      f-2     :     0.003587
      f+3     :     0.000000
      f-3     :     0.000000


                      *****************************
                      * MAYER POPULATION ANALYSIS *
                      *****************************

  NA   - Mulliken gross atomic population
  ZA   - Total nuclear charge
  QA   - Mulliken gross atomic charge
  VA   - Mayer's total valence
  BVA  - Mayer's bonded valence
  FA   - Mayer's free valence

  ATOM       NA         ZA         QA         VA         BVA        FA
  0 Ti    21.7484    22.0000     0.2516     4.4196     2.5153     1.9042
  1 S     16.2516    16.0000    -0.2516     2.5402     2.5153     0.0249

  Mayer bond orders larger than 0.100000
B(  0-Ti,  1-S ) :   2.5153 

-------
TIMINGS
-------

Total SCF time: 0 days 0 hours 9 min 30 sec 

Total time                  ....     570.426 sec
Sum of individual times     ....     570.051 sec  ( 99.9%)

Fock matrix formation       ....     569.503 sec  ( 99.8%)
  XC integration            ....       0.913 sec  (  0.2% of F)
    Basis function eval.    ....       0.186 sec  ( 20.4% of XC)
    Density eval.           ....       0.104 sec  ( 11.4% of XC)
    XC-Functional eval.     ....       0.041 sec  (  4.5% of XC)
    XC-Potential eval.      ....       0.266 sec  ( 29.1% of XC)
Diagonalization             ....       0.184 sec  (  0.0%)
Density matrix formation    ....       0.023 sec  (  0.0%)
Population analysis         ....       0.007 sec  (  0.0%)
Initial guess               ....       0.098 sec  (  0.0%)
Orbital Transformation      ....       0.000 sec  (  0.0%)
Orbital Orthonormalization  ....       0.000 sec  (  0.0%)
DIIS solution               ....       0.066 sec  (  0.0%)
Grid generation             ....       0.170 sec  (  0.0%)

-------------------------   --------------------
FINAL SINGLE POINT ENERGY     -1247.460975489497
-------------------------   --------------------


                            ***************************************
                            *     ORCA property calculations      *
                            ***************************************

                                    ---------------------
                                    Active property flags
                                    ---------------------
   (+) Dipole Moment


------------------------------------------------------------------------------
                       ORCA ELECTRIC PROPERTIES CALCULATION
------------------------------------------------------------------------------

Dipole Moment Calculation                       ... on
Quadrupole Moment Calculation                   ... off
Polarizability Calculation                      ... off
GBWName                                         ... 12_TiS.gbw
Electron density file                           ... 12_TiS.scfp
The origin for moment calculation is the CENTER OF MASS  = ( 0.000000,  0.000000  1.499071)

-------------
DIPOLE MOMENT
-------------
                                X             Y             Z
Electronic contribution:     -0.00000      -0.00000      -5.64457
Nuclear contribution   :      0.00000       0.00000       3.01278
                        -----------------------------------------
Total Dipole Moment    :     -0.00000      -0.00000      -2.63179
                        -----------------------------------------
Magnitude (a.u.)       :      2.63179
Magnitude (Debye)      :      6.68949



--------------------
Rotational spectrum 
--------------------
 
Rotational constants in cm-1:     0.000000     0.201505     0.201505 
Rotational constants in MHz :     0.000000  6040.970749  6040.970749 

 Dipole components along the rotational axes: 
x,y,z [a.u.] :    -2.631795    -0.000000    -0.000000 
x,y,z [Debye]:    -6.689490    -0.000000    -0.000000 

 

Timings for individual modules:

Sum of individual times         ...      574.274 sec (=   9.571 min)
GTO integral calculation        ...        3.312 sec (=   0.055 min)   0.6 %
SCF iterations                  ...      570.962 sec (=   9.516 min)  99.4 %
                             ****ORCA TERMINATED NORMALLY****
TOTAL RUN TIME: 0 days 0 hours 9 minutes 34 seconds 896 msec
