
                                 *****************
                                 * O   R   C   A *
                                 *****************

           --- An Ab Initio, DFT and Semiempirical electronic structure package ---

                  #######################################################
                  #                        -***-                        #
                  #          Department of theory and spectroscopy      #
                  #               Directorship: Frank Neese             #
                  #        Max Planck Institute fuer Kohlenforschung    #
                  #                Kaiser Wilhelm Platz 1               #
                  #                 D-45470 Muelheim/Ruhr               #
                  #                      Germany                        #
                  #                                                     #
                  #                  All rights reserved                #
                  #                        -***-                        #
                  #######################################################


                         Program Version 4.2.0 -  RELEASE  -


 With contributions from (in alphabetic order):
   Daniel Aravena         : Magnetic Suceptibility
   Michael Atanasov       : Ab Initio Ligand Field Theory (pilot matlab implementation)
   Alexander A. Auer      : GIAO ZORA, VPT2
   Ute Becker             : Parallelization
   Giovanni Bistoni       : ED, misc. LED, open-shell LED, HFLED
   Martin Brehm           : Molecular dynamics
   Dmytro Bykov           : SCF Hessian
   Vijay G. Chilkuri      : MRCI spin determinant printing, contributions to CSF-ICE
   Dipayan Datta          : RHF DLPNO-CCSD density
   Achintya Kumar Dutta   : EOM-CC, STEOM-CC
   Dmitry Ganyushin       : Spin-Orbit,Spin-Spin,Magnetic field MRCI
   Miquel Garcia          : C-PCM Hessian, Gaussian charge scheme
   Yang Guo               : DLPNO-NEVPT2, CIM, IAO-localization
   Andreas Hansen         : Spin unrestricted coupled pair/coupled cluster methods
   Benjamin Helmich-Paris : CASSCF linear response (MC-RPA)
   Lee Huntington         : MR-EOM, pCC
   Robert Izsak           : Overlap fitted RIJCOSX, COSX-SCS-MP3, EOM
   Christian Kollmar      : KDIIS, OOCD, Brueckner-CCSD(T), CCSD density
   Simone Kossmann        : Meta GGA functionals, TD-DFT gradient, OOMP2, MP2 Hessian
   Martin Krupicka        : AUTO-CI
   Lucas Lang             : DCDCAS
   Dagmar Lenk            : GEPOL surface, SMD
   Dimitrios Liakos       : Extrapolation schemes; Compound Job, initial MDCI parallelization
   Dimitrios Manganas     : Further ROCIS development; embedding schemes
   Dimitrios Pantazis     : SARC Basis sets
   Taras Petrenko         : DFT Hessian,TD-DFT gradient, ASA, ECA, R-Raman, ABS, FL, XAS/XES, NRVS
   Peter Pinski           : DLPNO-MP2, DLPNO-MP2 Gradient
   Christoph Reimann      : Effective Core Potentials
   Marius Retegan         : Local ZFS, SOC
   Christoph Riplinger    : Optimizer, TS searches, QM/MM, DLPNO-CCSD(T), (RO)-DLPNO pert. Triples
   Tobias Risthaus        : Range-separated hybrids, TD-DFT gradient, RPA, STAB
   Michael Roemelt        : Original ROCIS implementation
   Masaaki Saitow         : Open-shell DLPNO-CCSD energy and density
   Barbara Sandhoefer     : DKH picture change effects
   Avijit Sen             : IP-ROCIS
   Kantharuban Sivalingam : CASSCF convergence, NEVPT2, FIC-MRCI
   Bernardo de Souza      : ESD, SOC TD-DFT
   Georgi Stoychev        : AutoAux, RI-MP2 NMR
   Willem Van den Heuvel  : Paramagnetic NMR
   Boris Wezisla          : Elementary symmetry handling
   Frank Wennmohs         : Technical directorship


 We gratefully acknowledge several colleagues who have allowed us to
 interface, adapt or use parts of their codes:
   Stefan Grimme, W. Hujo, H. Kruse,             : VdW corrections, initial TS optimization,
                  C. Bannwarth                     DFT functionals, gCP, sTDA/sTD-DF
   Ed Valeev, F. Pavosevic, A. Kumar             : LibInt (2-el integral package), F12 methods
   Garnet Chan, S. Sharma, J. Yang, R. Olivares  : DMRG
   Ulf Ekstrom                                   : XCFun DFT Library
   Mihaly Kallay                                 : mrcc  (arbitrary order and MRCC methods)
   Andreas Klamt, Michael Diedenhofen            : otool_cosmo (COSMO solvation model)
   Jiri Pittner, Ondrej Demel                    : Mk-CCSD
   Frank Weinhold                                : gennbo (NPA and NBO analysis)
   Christopher J. Cramer and Donald G. Truhlar   : smd solvation model
   Lars Goerigk                                  : TD-DFT with DH, B97 family of functionals
   V. Asgeirsson, H. Jonsson                     : NEB implementation
   FAccTs GmbH                                   : IRC, NEB, NEB-TS, Multilevel, MM, QM/MM, CI optimization
   S Lehtola, MJT Oliveira, MAL Marques          : LibXC Library


 Your calculation uses the libint2 library for the computation of 2-el integrals
 For citations please refer to: http://libint.valeyev.net

 Your ORCA version has been built with support for libXC version: 4.2.3
 For citations please refer to: https://tddft.org/programs/libxc/

 This ORCA versions uses:
   CBLAS   interface :  Fast vector & matrix operations
   LAPACKE interface :  Fast linear algebra routines
   SCALAPACK package :  Parallel linear algebra routines


Your calculation utilizes the DFT-NL dispersion correction.
Cite in your paper:
Vydrov, O. A.; Van Voorhis, T. J. Chem. Phys. 2010, 133, 244103
Hujo, W.; Grimme, S. J. Chem. Theory Comput. 2011, 7, 3866 
   

----- Orbital basis set information -----
Your calculation utilizes the basis: aug-cc-pVTZ 
    H, B-Ne : Obtained from the ccRepo (grant-hill.group.shef.ac.uk/ccrepo) Feb. 2017
              R. A. Kendall, T. H. Dunning, Jr., R. J. Harrison, J. Chem. Phys. 96, 6796 (1992)
         He : Obtained from the ccRepo (grant-hill.group.shef.ac.uk/ccrepo) Feb. 2017
              D. E. Woon, T. H. Dunning, Jr., J. Chem. Phys. 100, 2975 (1994)
  Li-Be, Na : Obtained from the ccRepo (grant-hill.group.shef.ac.uk/ccrepo) Feb. 2017
              B. P. Prascher, D. E. Woon, K. A. Peterson, T. H. Dunning, Jr., A. K. Wilson, Theor. Chem. Acc. 128, 69 (2011)
         Mg : Obtained from the Peterson Research Group Website (tyr0.chem.wsu.edu/~kipeters) Feb. 2017
              B. P. Prascher, D. E. Woon, K. A. Peterson, T. H. Dunning, Jr., A. K. Wilson, Theor. Chem. Acc. 128, 69 (2011)
      Al-Ar : Obtained from the ccRepo (grant-hill.group.shef.ac.uk/ccrepo) Feb. 2017
              D. E. Woon, T. H. Dunning, Jr., J. Chem. Phys. 98, 1358 (1993)
      Sc-Zn : Obtained from the ccRepo (grant-hill.group.shef.ac.uk/ccrepo) Feb. 2017
              N. B. Balabanov, K. A. Peterson, J. Chem. Phys. 123, 064107 (2005)
              N. B. Balabanov, K. A. Peterson, J. Chem. Phys. 125, 074110 (2006)
      Ga-Kr : Obtained from the ccRepo (grant-hill.group.shef.ac.uk/ccrepo) Feb. 2017
              A. K. Wilson, D. E. Woon, K. A. Peterson, T. H. Dunning, Jr., J. Chem. Phys. 110, 7667 (1999)
     Ag, Au : Obtained from the Peterson Research Group Website (tyr0.chem.wsu.edu/~kipeters) Feb. 2017
              K. A. Peterson, C. Puzzarini, Theor. Chem. Acc. 114, 283 (2005)

----- AuxJK basis set information -----
Your calculation utilizes the auxiliary basis: def2/JK
   H-Ba, Hf-Rn: F. Weigend, J. Comput. Chem. 29, 167 (2008).

================================================================================
                                        WARNINGS
                       Please study these warnings very carefully!
================================================================================


WARNING: your system is open-shell and RHF/RKS was chosen
  ===> : WILL SWITCH to UHF/UKS


INFO   : the flag for use of LIBINT has been found!

================================================================================
                                       INPUT FILE
================================================================================
NAME = 16_VBr.in
|  1> #
|  2> # 16_VBr wb97x-v/aug-cc-pvtz
|  3> #
|  4> ! wb97x-v aug-cc-pvtz def2/jk grid4 nofinalgrid
|  5> 
|  6> *xyz 0 5
|  7>   V   0.00000000000000      0.00000000000000     -0.18045152200616
|  8>   Br  0.00000000000000      0.00000000000000      2.18045152200616
|  9> *
| 10> 
| 11> %pal
| 12> nprocs 24
| 13> end
| 14> 
| 15> 
| 16>                          ****END OF INPUT****
================================================================================

                       ****************************
                       * Single Point Calculation *
                       ****************************

---------------------------------
CARTESIAN COORDINATES (ANGSTROEM)
---------------------------------
  V      0.000000    0.000000   -0.180452
  Br     0.000000    0.000000    2.180452

----------------------------
CARTESIAN COORDINATES (A.U.)
----------------------------
  NO LB      ZA    FRAG     MASS         X           Y           Z
   0 V    23.0000    0    50.940    0.000000    0.000000   -0.341004
   1 Br   35.0000    0    79.900    0.000000    0.000000    4.120456

--------------------------------
INTERNAL COORDINATES (ANGSTROEM)
--------------------------------
 V      0   0   0     0.000000000000     0.00000000     0.00000000
 Br     1   0   0     2.360903044012     0.00000000     0.00000000

---------------------------
INTERNAL COORDINATES (A.U.)
---------------------------
 V      0   0   0     0.000000000000     0.00000000     0.00000000
 Br     1   0   0     4.461460181924     0.00000000     0.00000000

---------------------
BASIS SET INFORMATION
---------------------
There are 2 groups of distinct atoms

 Group   1 Type V   : 116s77p23d3f2g contracted to 8s7p5d3f2g pattern {19191919191911/151515151511/77711/111/11}
 Group   2 Type Br  : 75s36p10d2f contracted to 7s6p4d2f pattern {18181818111/111111111/7111/11}

Atom   0V    basis set group =>   1
Atom   1Br   basis set group =>   2
----------------------------------
AUXILIARY/JK BASIS SET INFORMATION
----------------------------------
There are 2 groups of distinct atoms

 Group   1 Type V   : 19s14p12d10f7g3h1i contracted to 16s13p11d9f5g3h1i pattern {4111111111111111/2111111111111/21111111111/211111111/31111/111/1}
 Group   2 Type Br  : 20s14p13d10f7g3h contracted to 17s13p12d9f6g3h pattern {41111111111111111/2111111111111/211111111111/211111111/211111/111}

Atom   0V    basis set group =>   1
Atom   1Br   basis set group =>   2


           ************************************************************
           *        Program running with 24 parallel MPI-processes    *
           *              working on a common directory               *
           ************************************************************
------------------------------------------------------------------------------
                           ORCA GTO INTEGRAL CALCULATION
------------------------------------------------------------------------------

                         BASIS SET STATISTICS AND STARTUP INFO

 # of primitive gaussian shells          ...  344
 # of primitive gaussian functions       ...  748
 # of contracted shells                  ...   44
 # of contracted basis functions         ...  152
 Highest angular momentum                ...    4
 Maximum contraction depth               ...   19
 Integral package used                   ... LIBINT
 Integral threshhold            Thresh   ...  1.000e-10
 Primitive cut-off              TCut     ...  1.000e-11


------------------------------ INTEGRAL EVALUATION ----------------------------


 * One electron integrals 
 Pre-screening matrix                    ... done
 Shell pair data                         ... done (   0.002 sec)



           ************************************************************
           *        Program running with 24 parallel MPI-processes    *
           *              working on a common directory               *
           ************************************************************
-------------------------------------------------------------------------------
                                 ORCA SCF
-------------------------------------------------------------------------------

------------
SCF SETTINGS
------------
Hamiltonian:
 Density Functional     Method          .... DFT(GTOs)
 Exchange Functional    Exchange        .... WB97X-V
 Correlation Functional Correlation     .... WB97X-V
 Gradients option       PostSCFGGA      .... off
 Hybrid DFT is turned on
   Fraction HF Exchange ScalHFX         ....  0.167000
   Scaling of DF-GGA-X  ScalDFX         ....  0.000000
   Scaling of DF-GGA-C  ScalDFC         ....  1.000000
   Scaling of DF-LDA-C  ScalLDAC        ....  1.000000
   Perturbative correction              ....  0.000000
   Density functional embedding theory  .... OFF
 Long-range corrected/Screened/Range-Separated Hybrid DFT is turned on
   Amount of maximum screened exact exchange              ....  0.833000
   Range separation parameter mu (erf(mu*r12)/r12)        ....  0.300000
   NL short-range parameter             ....  6.000000
   NL long-range parameter              ....  0.010000


General Settings:
 Integral files         IntName         .... 16_VBr
 Hartree-Fock type      HFTyp           .... UHF
 Total Charge           Charge          ....    0
 Multiplicity           Mult            ....    5
 Number of Electrons    NEL             ....   58
 Basis Dimension        Dim             ....  152
 Nuclear Repulsion      ENuc            ....    180.4342002785 Eh

Convergence Acceleration:
 DIIS                   CNVDIIS         .... on
   Start iteration      DIISMaxIt       ....    12
   Startup error        DIISStart       ....  0.200000
   # of expansion vecs  DIISMaxEq       ....     5
   Bias factor          DIISBfac        ....   1.050
   Max. coefficient     DIISMaxC        ....  10.000
 Newton-Raphson         CNVNR           .... off
 SOSCF                  CNVSOSCF        .... off
 Level Shifting         CNVShift        .... on
   Level shift para.    LevelShift      ....    0.2500
   Turn off err/grad.   ShiftErr        ....    0.0010
 Zerner damping         CNVZerner       .... off
 Static damping         CNVDamp         .... on
   Fraction old density DampFac         ....    0.7000
   Max. Damping (<1)    DampMax         ....    0.9800
   Min. Damping (>=0)   DampMin         ....    0.0000
   Turn off err/grad.   DampErr         ....    0.1000
 Fernandez-Rico         CNVRico         .... off

SCF Procedure:
 Maximum # iterations   MaxIter         ....   125
 SCF integral mode      SCFMode         .... Direct
   Integral package                     .... LIBINT
 Reset frequency        DirectResetFreq ....    20
 Integral Threshold     Thresh          ....  1.000e-10 Eh
 Primitive CutOff       TCut            ....  1.000e-11 Eh

Convergence Tolerance:
 Convergence Check Mode ConvCheckMode   .... Total+1el-Energy
 Convergence forced     ConvForced      .... 0
 Energy Change          TolE            ....  1.000e-06 Eh
 1-El. energy change                    ....  1.000e-03 Eh
 DIIS Error             TolErr          ....  1.000e-06


Diagonalization of the overlap matrix:
Smallest eigenvalue                        ... 6.612e-05
Time for diagonalization                   ...    0.006 sec
Threshold for overlap eigenvalues          ... 1.000e-08
Number of eigenvalues below threshold      ... 0
Time for construction of square roots      ...    0.003 sec
Total time needed                          ...    0.008 sec

-------------------
DFT GRID GENERATION
-------------------

General Integration Accuracy     IntAcc      ...  4.670
Radial Grid Type                 RadialGrid  ... Gauss-Chebyshev
Angular Grid (max. acc.)         AngularGrid ... Lebedev-302
Angular grid pruning method      GridPruning ... 3 (G Style)
Weight generation scheme         WeightScheme... Becke
Basis function cutoff            BFCut       ...    1.0000e-10
Integration weight cutoff        WCut        ...    1.0000e-14
Grids for H and He will be reduced by one unit

# of grid points (after initial pruning)     ...  19280 (   0.0 sec)
# of grid points (after weights+screening)   ...  19253 (   0.0 sec)
nearest neighbour list constructed           ...    0.0 sec
Grid point re-assignment to atoms done       ...    0.0 sec
Grid point division into batches done        ...    0.1 sec
Reduced shell lists constructed in    0.1 sec

Total number of grid points                  ...    19253
Total number of batches                      ...      301
Average number of points per batch           ...       63
Average number of grid points per atom       ...     9626
Average number of shells per batch           ...    19.07 (43.34%)
Average number of basis functions per batch  ...    51.93 (34.16%)
Average number of large shells per batch     ...    11.86 (62.17%)
Average number of large basis fcns per batch ...    31.00 (59.70%)
Maximum spatial batch extension              ...  24.49, 24.19, 17.83 au
Average spatial batch extension              ...   0.84,  0.83,  0.67 au

Time for grid setup =    0.217 sec

------------------------------
INITIAL GUESS: MODEL POTENTIAL
------------------------------
Loading Hartree-Fock densities                     ... done
Calculating cut-offs                               ... done
Setting up the integral package                    ... done
Initializing the effective Hamiltonian             ... done
Starting the Coulomb interaction                   ... done (   0.0 sec)
Reading the grid                                   ... done
Mapping shells                                     ... done
Starting the XC term evaluation                    ... done (   0.0 sec)
  promolecular density results
     # of electrons  =     57.999978244
     EX              =   -102.685988264
     EC              =     -3.559487466
     EX+EC           =   -106.245475730
Transforming the Hamiltonian                       ... done (   0.0 sec)
Diagonalizing the Hamiltonian                      ... done (   0.0 sec)
Back transforming the eigenvectors                 ... done (   0.0 sec)
Now organizing SCF variables                       ... done
                      ------------------
                      INITIAL GUESS DONE (   0.3 sec)
                      ------------------
--------------
SCF ITERATIONS
--------------
ITER       Energy         Delta-E        Max-DP      RMS-DP      [F,P]     Damp
               ***  Starting incremental Fock matrix formation  ***
  0  -3515.0212930075   0.000000000000 1.58505802  0.03019744  0.7834525 0.7000
  1  -3515.8621727202  -0.840879712737 0.69005058  0.01258966  0.3127195 0.7000
  2  -3516.5624292010  -0.700256480850 0.48461196  0.00900518  0.2131610 0.7000
                               ***Turning on DIIS***
  3  -3517.0093561011  -0.446926900073 0.33894940  0.00634121  0.1274634 0.7000
  4  -3517.3139125426  -0.304556441527 0.78867620  0.01448332  0.0860244 0.0000
  5  -3518.0646736873  -0.750761144659 0.04162123  0.00082933  0.0610297 0.0000
  6  -3518.0797135426  -0.015039855271 0.06929586  0.00120535  0.0215069 0.0000
  7  -3518.0840425534  -0.004329010860 0.02042057  0.00038983  0.0107425 0.0000
  8  -3518.0854314611  -0.001388907688 0.01023264  0.00019687  0.0047509 0.0000
  9  -3518.0858882253  -0.000456764137 0.00882470  0.00009525  0.0031527 0.0000
 10  -3518.0860864199  -0.000198194660 0.00714519  0.00006337  0.0019543 0.0000
 11  -3518.0861563255  -0.000069905542 0.00465516  0.00004161  0.0011302 0.0000
 12  -3518.0861795894  -0.000023263947 0.00438992  0.00004100  0.0006029 0.0000
 13  -3518.0861898943  -0.000010304931 0.00087767  0.00001429  0.0002944 0.0000
 14  -3518.0861910842  -0.000001189898 0.00136742  0.00000935  0.0002683 0.0000
 15  -3518.0861919787  -0.000000894435 0.00120996  0.00000872  0.0001591 0.0000
 16  -3518.0861925963  -0.000000617576 0.00158775  0.00001020  0.0001108 0.0000
 17  -3518.0861930898  -0.000000493583 0.00104464  0.00000721  0.0000415 0.0000
 18  -3518.0861932416  -0.000000151801 0.00038894  0.00000260  0.0000176 0.0000
                 **** Energy Check signals convergence ****

               *****************************************************
               *                     SUCCESS                       *
               *           SCF CONVERGED AFTER  19 CYCLES          *
               *****************************************************


Setting up the DFT-NL grid :

General Integration Accuracy     IntAcc      ...  4.340
Radial Grid Type                 RadialGrid  ... Gauss-Chebyshev
Angular Grid (max. acc.)         AngularGrid ... Lebedev-110
Angular grid pruning method      GridPruning ... 3 (G Style)
Weight generation scheme         WeightScheme... Becke
Basis function cutoff            BFCut       ...    1.0000e-10
Integration weight cutoff        WCut        ...    1.0000e-14
Grids for H and He will be reduced by one unit

# of grid points (after initial pruning)     ...   5862 (   0.0 sec)
# of grid points (after weights+screening)   ...   5838 (   0.0 sec)
nearest neighbour list constructed           ...    0.0 sec
Grid point re-assignment to atoms done       ...    0.0 sec
Grid point division into batches done        ...    0.0 sec
Reduced shell lists constructed in    0.0 sec

Total number of grid points                  ...     5838
Total number of batches                      ...       92
Average number of points per batch           ...       63
Average number of grid points per atom       ...     2919
Average number of shells per batch           ...    25.20 (57.27%)
Average number of basis functions per batch  ...    84.40 (55.53%)
Average number of large shells per batch     ...    18.40 (73.02%)
Average number of large basis fcns per batch ...    55.20 (65.40%)
Maximum spatial batch extension              ...  18.98, 28.73, 16.39 au
Average spatial batch extension              ...   0.76,  1.04,  0.71 au

Final grid set up in    0.0 sec

-------------------------------------------------------------------------------
                         DFT-NL dispersion correction                          
-------------------------------------------------------------------------------

SC Energy -3518.086193257 
NL    Energy 0.242522989 
SC+NL Energy -3517.843670268 
NL done in    0.1 sec
-------------------------------------------------------------------------------

----------------
TOTAL SCF ENERGY
----------------

Total Energy       :        -3517.84367027 Eh          -95725.39285 eV

Components:
Nuclear Repulsion  :          180.43420028 Eh            4909.86420 eV
Electronic Energy  :        -3698.27787055 Eh         -100635.25706 eV
One Electron Energy:        -5240.77285788 Eh         -142608.67955 eV
Two Electron Energy:         1542.49498733 Eh           41973.42249 eV

Virial components:
Potential Energy   :        -7031.08768561 Eh         -191325.62273 eV
Kinetic Energy     :         3513.24401535 Eh           95600.22988 eV
Virial Ratio       :            2.00130923


DFT components:
N(Alpha)           :       30.999994717463 electrons
N(Beta)            :       26.999996405624 electrons
N(Total)           :       57.999991123088 electrons
E(X)               :     -102.832489854926 Eh       
E(C)               :       -3.532278632638 Eh       
NL Energy, E(C,NL) :        0.242522989243 Eh       
E(XC)              :     -106.122245498321 Eh       
DFET-embed. en.    :        0.000000000000 Eh       

---------------
SCF CONVERGENCE
---------------

  Last Energy change         ...   -1.5406e-08  Tolerance :   1.0000e-06
  Last MAX-Density change    ...    1.0831e-04  Tolerance :   1.0000e-05
  Last RMS-Density change    ...    9.8877e-07  Tolerance :   1.0000e-06
  Last DIIS Error            ...    7.0210e-06  Tolerance :   1.0000e-06

             **** THE GBW FILE WAS UPDATED (16_VBr.gbw) ****
             **** DENSITY FILE WAS UPDATED (16_VBr.scfp) ****
             **** ENERGY FILE WAS UPDATED (16_VBr.en.tmp) ****
----------------------
UHF SPIN CONTAMINATION
----------------------

Warning: in a DFT calculation there is little theoretical justification to 
         calculate <S**2> as in Hartree-Fock theory. We will do it anyways
         but you should keep in mind that the values have only limited relevance

Expectation value of <S**2>     :     6.007324
Ideal value S*(S+1) for S=2.0   :     6.000000
Deviation                       :     0.007324

             **** THE GBW FILE WAS UPDATED (16_VBr.gbw) ****
             **** DENSITY FILE WAS UPDATED (16_VBr.scfp) ****
----------------
ORBITAL ENERGIES
----------------
                 SPIN UP ORBITALS
  NO   OCC          E(Eh)            E(eV) 
   0   1.0000    -482.609975    -13132.4851 
   1   1.0000    -196.770642     -5354.4014 
   2   1.0000     -62.484221     -1700.2821 
   3   1.0000     -56.288084     -1531.6766 
   4   1.0000     -56.287542     -1531.6619 
   5   1.0000     -56.287542     -1531.6619 
   6   1.0000     -22.285552      -606.4207 
   7   1.0000     -18.783397      -511.1222 
   8   1.0000     -18.783392      -511.1221 
   9   1.0000     -18.774101      -510.8693 
  10   1.0000      -8.748279      -238.0528 
  11   1.0000      -6.571469      -178.8188 
  12   1.0000      -6.569237      -178.7580 
  13   1.0000      -6.569237      -178.7580 
  14   1.0000      -2.771445       -75.4148 
  15   1.0000      -2.695240       -73.3412 
  16   1.0000      -2.694458       -73.3199 
  17   1.0000      -2.694458       -73.3199 
  18   1.0000      -2.692611       -73.2697 
  19   1.0000      -2.692582       -73.2689 
  20   1.0000      -1.806313       -49.1523 
  21   1.0000      -1.806302       -49.1520 
  22   1.0000      -1.804321       -49.0981 
  23   1.0000      -0.841902       -22.9093 
  24   1.0000      -0.406563       -11.0632 
  25   1.0000      -0.391257       -10.6467 
  26   1.0000      -0.391242       -10.6462 
  27   1.0000      -0.356531        -9.7017 
  28   1.0000      -0.317852        -8.6492 
  29   1.0000      -0.317831        -8.6486 
  30   1.0000      -0.281399        -7.6573 
  31   0.0000      -0.016819        -0.4577 
  32   0.0000       0.010823         0.2945 
  33   0.0000       0.011952         0.3252 
  34   0.0000       0.011953         0.3253 
  35   0.0000       0.024002         0.6531 
  36   0.0000       0.029491         0.8025 
  37   0.0000       0.049286         1.3411 
  38   0.0000       0.049289         1.3412 
  39   0.0000       0.066067         1.7978 
  40   0.0000       0.068155         1.8546 
  41   0.0000       0.069341         1.8869 
  42   0.0000       0.069993         1.9046 
  43   0.0000       0.069994         1.9046 
  44   0.0000       0.094091         2.5603 
  45   0.0000       0.129241         3.5168 
  46   0.0000       0.146997         4.0000 
  47   0.0000       0.149799         4.0762 
  48   0.0000       0.149801         4.0763 
  49   0.0000       0.188879         5.1396 
  50   0.0000       0.188880         5.1397 
  51   0.0000       0.224420         6.1068 
  52   0.0000       0.228654         6.2220 
  53   0.0000       0.236304         6.4302 
  54   0.0000       0.236760         6.4426 
  55   0.0000       0.239246         6.5102 
  56   0.0000       0.239254         6.5104 
  57   0.0000       0.290806         7.9132 
  58   0.0000       0.291707         7.9378 
  59   0.0000       0.331790         9.0285 
  60   0.0000       0.370261        10.0753 
  61   0.0000       0.370265        10.0754 
  62   0.0000       0.399169        10.8619 
  63   0.0000       0.460185        12.5223 
  64   0.0000       0.460186        12.5223 
  65   0.0000       0.480774        13.0825 
  66   0.0000       0.514070        13.9886 
  67   0.0000       0.516862        14.0645 
  68   0.0000       0.550568        14.9817 
  69   0.0000       0.550572        14.9818 
  70   0.0000       0.601664        16.3721 
  71   0.0000       0.601670        16.3723 
  72   0.0000       0.624812        17.0020 
  73   0.0000       0.662856        18.0372 
  74   0.0000       0.662861        18.0374 
  75   0.0000       0.690165        18.7804 
  76   0.0000       0.696879        18.9630 
  77   0.0000       0.728247        19.8166 
  78   0.0000       0.732045        19.9200 
  79   0.0000       0.732447        19.9309 
  80   0.0000       0.732451        19.9310 
  81   0.0000       0.776002        21.1161 
  82   0.0000       0.795315        21.6416 
  83   0.0000       0.857480        23.3332 
  84   0.0000       0.891030        24.2462 
  85   0.0000       0.891038        24.2464 
  86   0.0000       0.918695        24.9990 
  87   0.0000       0.918695        24.9990 
  88   0.0000       0.938247        25.5310 
  89   0.0000       1.024004        27.8646 
  90   0.0000       1.025783        27.9130 
  91   0.0000       1.198051        32.6006 
  92   0.0000       1.232317        33.5331 
  93   0.0000       1.232321        33.5332 
  94   0.0000       1.444121        39.2965 
  95   0.0000       1.444132        39.2968 
  96   0.0000       1.450246        39.4632 
  97   0.0000       1.465787        39.8861 
  98   0.0000       1.497690        40.7542 
  99   0.0000       1.585938        43.1556 
 100   0.0000       1.585945        43.1557 
 101   0.0000       1.706420        46.4340 
 102   0.0000       1.708470        46.4898 
 103   0.0000       1.719941        46.8020 
 104   0.0000       1.719944        46.8021 
 105   0.0000       1.751393        47.6578 
 106   0.0000       1.842780        50.1446 
 107   0.0000       1.849593        50.3300 
 108   0.0000       1.891974        51.4832 
 109   0.0000       1.905717        51.8572 
 110   0.0000       1.905723        51.8573 
 111   0.0000       2.059361        56.0381 
 112   0.0000       2.059365        56.0382 
 113   0.0000       2.125574        57.8398 
 114   0.0000       2.147830        58.4454 
 115   0.0000       2.148117        58.4532 
 116   0.0000       2.173280        59.1380 
 117   0.0000       2.173280        59.1380 
 118   0.0000       2.223461        60.5034 
 119   0.0000       2.229807        60.6761 
 120   0.0000       2.229816        60.6764 
 121   0.0000       2.231930        60.7339 
 122   0.0000       2.231943        60.7342 
 123   0.0000       2.299904        62.5836 
 124   0.0000       2.299911        62.5838 
 125   0.0000       2.428603        66.0856 
 126   0.0000       2.446120        66.5623 
 127   0.0000       2.446125        66.5624 
 128   0.0000       2.500247        68.0352 
 129   0.0000       2.855274        77.6959 
 130   0.0000       2.892689        78.7141 
 131   0.0000       3.044403        82.8424 
 132   0.0000       3.044427        82.8431 
 133   0.0000       3.063102        83.3512 
 134   0.0000       3.605904        98.1216 
 135   0.0000       4.465157       121.5031 
 136   0.0000       4.912448       133.6745 
 137   0.0000       4.917517       133.8124 
 138   0.0000       4.917522       133.8126 
 139   0.0000       4.929146       134.1289 
 140   0.0000       5.008135       136.2783 
 141   0.0000       5.008156       136.2788 
 142   0.0000       5.230831       142.3382 
 143   0.0000       5.234370       142.4345 
 144   0.0000       5.234374       142.4345 
 145   0.0000       5.234841       142.4473 
 146   0.0000       5.286937       143.8649 
 147   0.0000       5.299677       144.2116 
 148   0.0000       5.302783       144.2961 
 149   0.0000       5.409413       147.1976 
 150   0.0000       5.409435       147.1982 
 151   0.0000       5.532830       150.5560 

                 SPIN DOWN ORBITALS
  NO   OCC          E(Eh)            E(eV) 
   0   1.0000    -482.609990    -13132.4855 
   1   1.0000    -196.769667     -5354.3749 
   2   1.0000     -62.484205     -1700.2817 
   3   1.0000     -56.288272     -1531.6818 
   4   1.0000     -56.287448     -1531.6593 
   5   1.0000     -56.287448     -1531.6593 
   6   1.0000     -22.246023      -605.3451 
   7   1.0000     -18.751822      -510.2630 
   8   1.0000     -18.751805      -510.2626 
   9   1.0000     -18.739601      -509.9305 
  10   1.0000      -8.748280      -238.0528 
  11   1.0000      -6.571806      -178.8279 
  12   1.0000      -6.569079      -178.7537 
  13   1.0000      -6.569078      -178.7537 
  14   1.0000      -2.695457       -73.3471 
  15   1.0000      -2.694556       -73.3226 
  16   1.0000      -2.694556       -73.3226 
  17   1.0000      -2.692418       -73.2644 
  18   1.0000      -2.692387       -73.2636 
  19   1.0000      -2.653124       -72.1952 
  20   1.0000      -1.682946       -45.7953 
  21   1.0000      -1.682896       -45.7939 
  22   1.0000      -1.659302       -45.1519 
  23   1.0000      -0.840869       -22.8812 
  24   1.0000      -0.400851       -10.9077 
  25   1.0000      -0.369174       -10.0457 
  26   1.0000      -0.369171       -10.0457 
  27   0.0000      -0.007645        -0.2080 
  28   0.0000       0.026436         0.7194 
  29   0.0000       0.026675         0.7259 
  30   0.0000       0.026681         0.7260 
  31   0.0000       0.036630         0.9968 
  32   0.0000       0.057142         1.5549 
  33   0.0000       0.061486         1.6731 
  34   0.0000       0.065841         1.7916 
  35   0.0000       0.071007         1.9322 
  36   0.0000       0.071018         1.9325 
  37   0.0000       0.081039         2.2052 
  38   0.0000       0.084364         2.2956 
  39   0.0000       0.084769         2.3067 
  40   0.0000       0.084785         2.3071 
  41   0.0000       0.094081         2.5601 
  42   0.0000       0.094815         2.5801 
  43   0.0000       0.094836         2.5806 
  44   0.0000       0.114163         3.1065 
  45   0.0000       0.153082         4.1656 
  46   0.0000       0.154619         4.2074 
  47   0.0000       0.154623         4.2075 
  48   0.0000       0.159503         4.3403 
  49   0.0000       0.218724         5.9518 
  50   0.0000       0.218747         5.9524 
  51   0.0000       0.241565         6.5733 
  52   0.0000       0.253636         6.9018 
  53   0.0000       0.258368         7.0306 
  54   0.0000       0.262053         7.1308 
  55   0.0000       0.278041         7.5659 
  56   0.0000       0.278058         7.5663 
  57   0.0000       0.304058         8.2738 
  58   0.0000       0.305513         8.3134 
  59   0.0000       0.352931         9.6037 
  60   0.0000       0.380775        10.3614 
  61   0.0000       0.380782        10.3616 
  62   0.0000       0.409575        11.1451 
  63   0.0000       0.483336        13.1523 
  64   0.0000       0.483337        13.1523 
  65   0.0000       0.512661        13.9502 
  66   0.0000       0.544160        14.8073 
  67   0.0000       0.545529        14.8446 
  68   0.0000       0.559933        15.2365 
  69   0.0000       0.559941        15.2368 
  70   0.0000       0.630365        17.1531 
  71   0.0000       0.630384        17.1536 
  72   0.0000       0.654282        17.8039 
  73   0.0000       0.694867        18.9083 
  74   0.0000       0.694890        18.9089 
  75   0.0000       0.697787        18.9877 
  76   0.0000       0.715447        19.4683 
  77   0.0000       0.735458        20.0128 
  78   0.0000       0.736127        20.0310 
  79   0.0000       0.763053        20.7637 
  80   0.0000       0.763071        20.7642 
  81   0.0000       0.825821        22.4717 
  82   0.0000       0.835043        22.7227 
  83   0.0000       0.873299        23.7637 
  84   0.0000       0.918522        24.9943 
  85   0.0000       0.918538        24.9947 
  86   0.0000       0.920510        25.0484 
  87   0.0000       0.920510        25.0484 
  88   0.0000       0.953783        25.9538 
  89   0.0000       1.029989        28.0274 
  90   0.0000       1.030883        28.0518 
  91   0.0000       1.215865        33.0854 
  92   0.0000       1.253597        34.1121 
  93   0.0000       1.253611        34.1125 
  94   0.0000       1.496578        40.7240 
  95   0.0000       1.496580        40.7240 
  96   0.0000       1.517467        41.2924 
  97   0.0000       1.522558        41.4309 
  98   0.0000       1.528626        41.5960 
  99   0.0000       1.627914        44.2978 
 100   0.0000       1.627938        44.2985 
 101   0.0000       1.739308        47.3290 
 102   0.0000       1.739376        47.3308 
 103   0.0000       1.757657        47.8283 
 104   0.0000       1.757659        47.8283 
 105   0.0000       1.768340        48.1190 
 106   0.0000       1.874703        51.0133 
 107   0.0000       1.877221        51.0818 
 108   0.0000       1.910461        51.9863 
 109   0.0000       1.923584        52.3434 
 110   0.0000       1.923598        52.3438 
 111   0.0000       2.065995        56.2186 
 112   0.0000       2.065999        56.2187 
 113   0.0000       2.133289        58.0497 
 114   0.0000       2.150068        58.5063 
 115   0.0000       2.150313        58.5130 
 116   0.0000       2.174694        59.1764 
 117   0.0000       2.174694        59.1764 
 118   0.0000       2.232217        60.7417 
 119   0.0000       2.232337        60.7450 
 120   0.0000       2.252508        61.2939 
 121   0.0000       2.252518        61.2941 
 122   0.0000       2.297420        62.5160 
 123   0.0000       2.334654        63.5292 
 124   0.0000       2.334682        63.5299 
 125   0.0000       2.450092        66.6704 
 126   0.0000       2.466395        67.1140 
 127   0.0000       2.466413        67.1145 
 128   0.0000       2.532527        68.9136 
 129   0.0000       2.941736        80.0487 
 130   0.0000       2.958868        80.5149 
 131   0.0000       3.100511        84.3692 
 132   0.0000       3.139155        85.4207 
 133   0.0000       3.139179        85.4214 
 134   0.0000       3.666887        99.7811 
 135   0.0000       4.471502       121.6758 
 136   0.0000       4.999339       136.0389 
 137   0.0000       4.999343       136.0390 
 138   0.0000       5.026378       136.7747 
 139   0.0000       5.046109       137.3116 
 140   0.0000       5.107460       138.9811 
 141   0.0000       5.107480       138.9816 
 142   0.0000       5.301394       144.2583 
 143   0.0000       5.301426       144.2591 
 144   0.0000       5.322616       144.8357 
 145   0.0000       5.322617       144.8358 
 146   0.0000       5.370005       146.1253 
 147   0.0000       5.380167       146.4018 
 148   0.0000       5.381960       146.4506 
 149   0.0000       5.482937       149.1983 
 150   0.0000       5.482966       149.1991 
 151   0.0000       5.601667       152.4291 

                    ********************************
                    * MULLIKEN POPULATION ANALYSIS *
                    ********************************

--------------------------------------------
MULLIKEN ATOMIC CHARGES AND SPIN POPULATIONS
--------------------------------------------
   0 V :    0.392554    3.959378
   1 Br:   -0.392554    0.040622
Sum of atomic charges         :   -0.0000000
Sum of atomic spin populations:    4.0000000

-----------------------------------------------------
MULLIKEN REDUCED ORBITAL CHARGES AND SPIN POPULATIONS
-----------------------------------------------------
CHARGE
  0 V s       :     6.718563  s :     6.718563
      pz      :     4.143317  p :    12.250440
      px      :     4.053565
      py      :     4.053558
      dz2     :     0.567167  d :     3.610128
      dxz     :     1.022010
      dyz     :     1.022015
      dx2y2   :     0.998936
      dxy     :     0.000001
      f0      :     0.006436  f :     0.025513
      f+1     :     0.009414
      f-1     :     0.009414
      f+2     :     0.000139
      f-2     :     0.000003
      f+3     :     0.000054
      f-3     :     0.000054
      g0      :     0.001025  g :     0.002802
      g+1     :     0.000862
      g-1     :     0.000862
      g+2     :     0.000003
      g-2     :     0.000002
      g+3     :     0.000005
      g-3     :     0.000005
      g+4     :     0.000038
      g-4     :     0.000000
  1 Brs       :     7.969963  s :     7.969963
      pz      :     5.592540  p :    17.405802
      px      :     5.906630
      py      :     5.906632
      dz2     :     2.001259  d :    10.015472
      dxz     :     2.006798
      dyz     :     2.006798
      dx2y2   :     2.000622
      dxy     :     1.999995
      f0      :    -0.000308  f :     0.001317
      f+1     :     0.000663
      f-1     :     0.000663
      f+2     :     0.000300
      f-2     :     0.000000
      f+3     :     0.000000
      f-3     :     0.000000

SPIN
  0 V s       :     0.519463  s :     0.519463
      pz      :     0.041541  p :     0.086078
      px      :     0.022272
      py      :     0.022265
      dz2     :     0.445323  d :     3.354741
      dxz     :     0.955238
      dyz     :     0.955243
      dx2y2   :     0.998936
      dxy     :     0.000001
      f0      :     0.000452  f :    -0.000986
      f+1     :    -0.000825
      f-1     :    -0.000825
      f+2     :     0.000135
      f-2     :    -0.000001
      f+3     :     0.000039
      f-3     :     0.000039
      g0      :    -0.000030  g :     0.000082
      g+1     :     0.000034
      g-1     :     0.000034
      g+2     :     0.000001
      g-2     :    -0.000000
      g+3     :     0.000004
      g-3     :     0.000004
      g+4     :     0.000033
      g-4     :     0.000000
  1 Brs       :     0.025280  s :     0.025280
      pz      :    -0.035761  p :     0.007340
      px      :     0.021550
      py      :     0.021551
      dz2     :     0.003317  d :     0.007093
      dxz     :     0.001573
      dyz     :     0.001574
      dx2y2   :     0.000628
      dxy     :     0.000001
      f0      :     0.000380  f :     0.000909
      f+1     :     0.000114
      f-1     :     0.000114
      f+2     :     0.000300
      f-2     :    -0.000000
      f+3     :     0.000000
      f-3     :     0.000000


                     *******************************
                     * LOEWDIN POPULATION ANALYSIS *
                     *******************************

-------------------------------------------
LOEWDIN ATOMIC CHARGES AND SPIN POPULATIONS
-------------------------------------------
   0 V :   -0.076754    3.840160
   1 Br:    0.076754    0.159840

----------------------------------------------------
LOEWDIN REDUCED ORBITAL CHARGES AND SPIN POPULATIONS
----------------------------------------------------
CHARGE
  0 V s       :     6.538531  s :     6.538531
      pz      :     4.231838  p :    12.399165
      px      :     4.083668
      py      :     4.083659
      dz2     :     0.705979  d :     3.829042
      dxz     :     1.064585
      dyz     :     1.064589
      dx2y2   :     0.993886
      dxy     :     0.000003
      f0      :     0.094862  f :     0.279233
      f+1     :     0.091898
      f-1     :     0.091898
      f+2     :     0.000442
      f-2     :     0.000025
      f+3     :     0.000054
      f-3     :     0.000054
      g0      :     0.011598  g :     0.030784
      g+1     :     0.009559
      g-1     :     0.009559
      g+2     :     0.000017
      g-2     :     0.000003
      g+3     :     0.000005
      g-3     :     0.000005
      g+4     :     0.000038
      g-4     :     0.000000
  1 Brs       :     7.561156  s :     7.561156
      pz      :     5.697489  p :    17.078862
      px      :     5.690686
      py      :     5.690688
      dz2     :     2.111283  d :    10.186776
      dxz     :     2.036388
      dyz     :     2.036390
      dx2y2   :     2.002745
      dxy     :     1.999970
      f0      :     0.047226  f :     0.096453
      f+1     :     0.023158
      f-1     :     0.023158
      f+2     :     0.002910
      f-2     :     0.000000
      f+3     :     0.000000
      f-3     :     0.000000

SPIN
  0 V s       :     0.491310  s :     0.491310
      pz      :     0.031308  p :     0.105183
      px      :     0.036942
      py      :     0.036934
      dz2     :     0.424456  d :     3.234396
      dxz     :     0.908026
      dyz     :     0.908031
      dx2y2   :     0.993883
      dxy     :     0.000001
      f0      :     0.000192  f :     0.008555
      f+1     :     0.003934
      f-1     :     0.003934
      f+2     :     0.000417
      f-2     :    -0.000000
      f+3     :     0.000039
      f-3     :     0.000039
      g0      :    -0.000404  g :     0.000716
      g+1     :     0.000532
      g-1     :     0.000532
      g+2     :     0.000014
      g-2     :    -0.000000
      g+3     :     0.000004
      g-3     :     0.000004
      g+4     :     0.000033
      g-4     :     0.000000
  1 Brs       :     0.023220  s :     0.023220
      pz      :     0.019254  p :     0.048653
      px      :     0.014699
      py      :     0.014700
      dz2     :     0.009295  d :     0.053921
      dxz     :     0.020924
      dyz     :     0.020926
      dx2y2   :     0.002776
      dxy     :     0.000000
      f0      :     0.001336  f :     0.034045
      f+1     :     0.014899
      f-1     :     0.014900
      f+2     :     0.002909
      f-2     :    -0.000000
      f+3     :     0.000000
      f-3     :     0.000000


                      *****************************
                      * MAYER POPULATION ANALYSIS *
                      *****************************

  NA   - Mulliken gross atomic population
  ZA   - Total nuclear charge
  QA   - Mulliken gross atomic charge
  VA   - Mayer's total valence
  BVA  - Mayer's bonded valence
  FA   - Mayer's free valence

  ATOM       NA         ZA         QA         VA         BVA        FA
  0 V     22.6074    23.0000     0.3926     4.9319     1.1170     3.8150
  1 Br    35.3926    35.0000    -0.3926     1.1253     1.1170     0.0083

  Mayer bond orders larger than 0.100000
B(  0-V ,  1-Br) :   1.1170 

-------
TIMINGS
-------

Total SCF time: 0 days 0 hours 7 min 36 sec 

Total time                  ....     456.614 sec
Sum of individual times     ....     456.194 sec  ( 99.9%)

Fock matrix formation       ....     455.674 sec  ( 99.8%)
  XC integration            ....       0.607 sec  (  0.1% of F)
    Basis function eval.    ....       0.141 sec  ( 23.2% of XC)
    Density eval.           ....       0.075 sec  ( 12.3% of XC)
    XC-Functional eval.     ....       0.028 sec  (  4.6% of XC)
    XC-Potential eval.      ....       0.165 sec  ( 27.2% of XC)
Diagonalization             ....       0.111 sec  (  0.0%)
Density matrix formation    ....       0.014 sec  (  0.0%)
Population analysis         ....       0.008 sec  (  0.0%)
Initial guess               ....       0.111 sec  (  0.0%)
Orbital Transformation      ....       0.000 sec  (  0.0%)
Orbital Orthonormalization  ....       0.000 sec  (  0.0%)
DIIS solution               ....       0.040 sec  (  0.0%)
Grid generation             ....       0.237 sec  (  0.1%)

-------------------------   --------------------
FINAL SINGLE POINT ENERGY     -3517.843670267800
-------------------------   --------------------


                            ***************************************
                            *     ORCA property calculations      *
                            ***************************************

                                    ---------------------
                                    Active property flags
                                    ---------------------
   (+) Dipole Moment


------------------------------------------------------------------------------
                       ORCA ELECTRIC PROPERTIES CALCULATION
------------------------------------------------------------------------------

Dipole Moment Calculation                       ... on
Quadrupole Moment Calculation                   ... off
Polarizability Calculation                      ... off
GBWName                                         ... 16_VBr.gbw
Electron density file                           ... 16_VBr.scfp
The origin for moment calculation is the CENTER OF MASS  = ( 0.000000,  0.000000  2.383474)

-------------
DIPOLE MOMENT
-------------
                                X             Y             Z
Electronic contribution:     -0.00000       0.00000      -0.14708
Nuclear contribution   :      0.00000       0.00000      -1.86860
                        -----------------------------------------
Total Dipole Moment    :     -0.00000       0.00000      -2.01568
                        -----------------------------------------
Magnitude (a.u.)       :      2.01568
Magnitude (Debye)      :      5.12345



--------------------
Rotational spectrum 
--------------------
 
Rotational constants in cm-1:     0.000000     0.097224     0.097224 
Rotational constants in MHz :     0.000000  2914.715129  2914.715129 

 Dipole components along the rotational axes: 
x,y,z [a.u.] :    -2.015679     0.000000    -0.000000 
x,y,z [Debye]:    -5.123448     0.000000    -0.000000 

 

Timings for individual modules:

Sum of individual times         ...      461.794 sec (=   7.697 min)
GTO integral calculation        ...        4.658 sec (=   0.078 min)   1.0 %
SCF iterations                  ...      457.137 sec (=   7.619 min)  99.0 %
                             ****ORCA TERMINATED NORMALLY****
TOTAL RUN TIME: 0 days 0 hours 7 minutes 42 seconds 405 msec
