
                                 *****************
                                 * O   R   C   A *
                                 *****************

           --- An Ab Initio, DFT and Semiempirical electronic structure package ---

                  #######################################################
                  #                        -***-                        #
                  #          Department of theory and spectroscopy      #
                  #               Directorship: Frank Neese             #
                  #        Max Planck Institute fuer Kohlenforschung    #
                  #                Kaiser Wilhelm Platz 1               #
                  #                 D-45470 Muelheim/Ruhr               #
                  #                      Germany                        #
                  #                                                     #
                  #                  All rights reserved                #
                  #                        -***-                        #
                  #######################################################


                         Program Version 4.2.0 -  RELEASE  -


 With contributions from (in alphabetic order):
   Daniel Aravena         : Magnetic Suceptibility
   Michael Atanasov       : Ab Initio Ligand Field Theory (pilot matlab implementation)
   Alexander A. Auer      : GIAO ZORA, VPT2
   Ute Becker             : Parallelization
   Giovanni Bistoni       : ED, misc. LED, open-shell LED, HFLED
   Martin Brehm           : Molecular dynamics
   Dmytro Bykov           : SCF Hessian
   Vijay G. Chilkuri      : MRCI spin determinant printing, contributions to CSF-ICE
   Dipayan Datta          : RHF DLPNO-CCSD density
   Achintya Kumar Dutta   : EOM-CC, STEOM-CC
   Dmitry Ganyushin       : Spin-Orbit,Spin-Spin,Magnetic field MRCI
   Miquel Garcia          : C-PCM Hessian, Gaussian charge scheme
   Yang Guo               : DLPNO-NEVPT2, CIM, IAO-localization
   Andreas Hansen         : Spin unrestricted coupled pair/coupled cluster methods
   Benjamin Helmich-Paris : CASSCF linear response (MC-RPA)
   Lee Huntington         : MR-EOM, pCC
   Robert Izsak           : Overlap fitted RIJCOSX, COSX-SCS-MP3, EOM
   Christian Kollmar      : KDIIS, OOCD, Brueckner-CCSD(T), CCSD density
   Simone Kossmann        : Meta GGA functionals, TD-DFT gradient, OOMP2, MP2 Hessian
   Martin Krupicka        : AUTO-CI
   Lucas Lang             : DCDCAS
   Dagmar Lenk            : GEPOL surface, SMD
   Dimitrios Liakos       : Extrapolation schemes; Compound Job, initial MDCI parallelization
   Dimitrios Manganas     : Further ROCIS development; embedding schemes
   Dimitrios Pantazis     : SARC Basis sets
   Taras Petrenko         : DFT Hessian,TD-DFT gradient, ASA, ECA, R-Raman, ABS, FL, XAS/XES, NRVS
   Peter Pinski           : DLPNO-MP2, DLPNO-MP2 Gradient
   Christoph Reimann      : Effective Core Potentials
   Marius Retegan         : Local ZFS, SOC
   Christoph Riplinger    : Optimizer, TS searches, QM/MM, DLPNO-CCSD(T), (RO)-DLPNO pert. Triples
   Tobias Risthaus        : Range-separated hybrids, TD-DFT gradient, RPA, STAB
   Michael Roemelt        : Original ROCIS implementation
   Masaaki Saitow         : Open-shell DLPNO-CCSD energy and density
   Barbara Sandhoefer     : DKH picture change effects
   Avijit Sen             : IP-ROCIS
   Kantharuban Sivalingam : CASSCF convergence, NEVPT2, FIC-MRCI
   Bernardo de Souza      : ESD, SOC TD-DFT
   Georgi Stoychev        : AutoAux, RI-MP2 NMR
   Willem Van den Heuvel  : Paramagnetic NMR
   Boris Wezisla          : Elementary symmetry handling
   Frank Wennmohs         : Technical directorship


 We gratefully acknowledge several colleagues who have allowed us to
 interface, adapt or use parts of their codes:
   Stefan Grimme, W. Hujo, H. Kruse,             : VdW corrections, initial TS optimization,
                  C. Bannwarth                     DFT functionals, gCP, sTDA/sTD-DF
   Ed Valeev, F. Pavosevic, A. Kumar             : LibInt (2-el integral package), F12 methods
   Garnet Chan, S. Sharma, J. Yang, R. Olivares  : DMRG
   Ulf Ekstrom                                   : XCFun DFT Library
   Mihaly Kallay                                 : mrcc  (arbitrary order and MRCC methods)
   Andreas Klamt, Michael Diedenhofen            : otool_cosmo (COSMO solvation model)
   Jiri Pittner, Ondrej Demel                    : Mk-CCSD
   Frank Weinhold                                : gennbo (NPA and NBO analysis)
   Christopher J. Cramer and Donald G. Truhlar   : smd solvation model
   Lars Goerigk                                  : TD-DFT with DH, B97 family of functionals
   V. Asgeirsson, H. Jonsson                     : NEB implementation
   FAccTs GmbH                                   : IRC, NEB, NEB-TS, Multilevel, MM, QM/MM, CI optimization
   S Lehtola, MJT Oliveira, MAL Marques          : LibXC Library


 Your calculation uses the libint2 library for the computation of 2-el integrals
 For citations please refer to: http://libint.valeyev.net

 Your ORCA version has been built with support for libXC version: 4.2.3
 For citations please refer to: https://tddft.org/programs/libxc/

 This ORCA versions uses:
   CBLAS   interface :  Fast vector & matrix operations
   LAPACKE interface :  Fast linear algebra routines
   SCALAPACK package :  Parallel linear algebra routines


Your calculation utilizes the DFT-NL dispersion correction.
Cite in your paper:
Vydrov, O. A.; Van Voorhis, T. J. Chem. Phys. 2010, 133, 244103
Hujo, W.; Grimme, S. J. Chem. Theory Comput. 2011, 7, 3866 
   

----- Orbital basis set information -----
Your calculation utilizes the basis: aug-cc-pVTZ 
    H, B-Ne : Obtained from the ccRepo (grant-hill.group.shef.ac.uk/ccrepo) Feb. 2017
              R. A. Kendall, T. H. Dunning, Jr., R. J. Harrison, J. Chem. Phys. 96, 6796 (1992)
         He : Obtained from the ccRepo (grant-hill.group.shef.ac.uk/ccrepo) Feb. 2017
              D. E. Woon, T. H. Dunning, Jr., J. Chem. Phys. 100, 2975 (1994)
  Li-Be, Na : Obtained from the ccRepo (grant-hill.group.shef.ac.uk/ccrepo) Feb. 2017
              B. P. Prascher, D. E. Woon, K. A. Peterson, T. H. Dunning, Jr., A. K. Wilson, Theor. Chem. Acc. 128, 69 (2011)
         Mg : Obtained from the Peterson Research Group Website (tyr0.chem.wsu.edu/~kipeters) Feb. 2017
              B. P. Prascher, D. E. Woon, K. A. Peterson, T. H. Dunning, Jr., A. K. Wilson, Theor. Chem. Acc. 128, 69 (2011)
      Al-Ar : Obtained from the ccRepo (grant-hill.group.shef.ac.uk/ccrepo) Feb. 2017
              D. E. Woon, T. H. Dunning, Jr., J. Chem. Phys. 98, 1358 (1993)
      Sc-Zn : Obtained from the ccRepo (grant-hill.group.shef.ac.uk/ccrepo) Feb. 2017
              N. B. Balabanov, K. A. Peterson, J. Chem. Phys. 123, 064107 (2005)
              N. B. Balabanov, K. A. Peterson, J. Chem. Phys. 125, 074110 (2006)
      Ga-Kr : Obtained from the ccRepo (grant-hill.group.shef.ac.uk/ccrepo) Feb. 2017
              A. K. Wilson, D. E. Woon, K. A. Peterson, T. H. Dunning, Jr., J. Chem. Phys. 110, 7667 (1999)
     Ag, Au : Obtained from the Peterson Research Group Website (tyr0.chem.wsu.edu/~kipeters) Feb. 2017
              K. A. Peterson, C. Puzzarini, Theor. Chem. Acc. 114, 283 (2005)

----- AuxJK basis set information -----
Your calculation utilizes the auxiliary basis: def2/JK
   H-Ba, Hf-Rn: F. Weigend, J. Comput. Chem. 29, 167 (2008).

================================================================================
                                        WARNINGS
                       Please study these warnings very carefully!
================================================================================


WARNING: your system is open-shell and RHF/RKS was chosen
  ===> : WILL SWITCH to UHF/UKS


INFO   : the flag for use of LIBINT has been found!

================================================================================
                                       INPUT FILE
================================================================================
NAME = 17_VO.in
|  1> #
|  2> # 17_VO wb97x-v/aug-cc-pvtz
|  3> #
|  4> ! wb97x-v aug-cc-pvtz def2/jk grid4 nofinalgrid
|  5> 
|  6> *xyz 0 4
|  7>   V   0.00000000000000      0.00000000000000      0.20415600493149
|  8>   O   0.00000000000000      0.00000000000000      1.79584399506851
|  9> *
| 10> 
| 11> %pal
| 12> nprocs 24
| 13> end
| 14> 
| 15> 
| 16>                          ****END OF INPUT****
================================================================================

                       ****************************
                       * Single Point Calculation *
                       ****************************

---------------------------------
CARTESIAN COORDINATES (ANGSTROEM)
---------------------------------
  V      0.000000    0.000000    0.204156
  O      0.000000    0.000000    1.795844

----------------------------
CARTESIAN COORDINATES (A.U.)
----------------------------
  NO LB      ZA    FRAG     MASS         X           Y           Z
   0 V    23.0000    0    50.940    0.000000    0.000000    0.385799
   1 O     8.0000    0    15.999    0.000000    0.000000    3.393653

--------------------------------
INTERNAL COORDINATES (ANGSTROEM)
--------------------------------
 V      0   0   0     0.000000000000     0.00000000     0.00000000
 O      1   0   0     1.591687990137     0.00000000     0.00000000

---------------------------
INTERNAL COORDINATES (A.U.)
---------------------------
 V      0   0   0     0.000000000000     0.00000000     0.00000000
 O      1   0   0     3.007854392011     0.00000000     0.00000000

---------------------
BASIS SET INFORMATION
---------------------
There are 2 groups of distinct atoms

 Group   1 Type V   : 116s77p23d3f2g contracted to 8s7p5d3f2g pattern {19191919191911/151515151511/77711/111/11}
 Group   2 Type O   : 19s6p3d2f contracted to 5s4p3d2f pattern {88111/3111/111/11}

Atom   0V    basis set group =>   1
Atom   1O    basis set group =>   2
----------------------------------
AUXILIARY/JK BASIS SET INFORMATION
----------------------------------
There are 2 groups of distinct atoms

 Group   1 Type V   : 19s14p12d10f7g3h1i contracted to 16s13p11d9f5g3h1i pattern {4111111111111111/2111111111111/21111111111/211111111/31111/111/1}
 Group   2 Type O   : 14s10p6d2f1g contracted to 10s8p4d2f1g pattern {5111111111/31111111/3111/11/1}

Atom   0V    basis set group =>   1
Atom   1O    basis set group =>   2


           ************************************************************
           *        Program running with 24 parallel MPI-processes    *
           *              working on a common directory               *
           ************************************************************
------------------------------------------------------------------------------
                           ORCA GTO INTEGRAL CALCULATION
------------------------------------------------------------------------------

                         BASIS SET STATISTICS AND STARTUP INFO

 # of primitive gaussian shells          ...  251
 # of primitive gaussian functions       ...  567
 # of contracted shells                  ...   39
 # of contracted basis functions         ...  139
 Highest angular momentum                ...    4
 Maximum contraction depth               ...   19
 Integral package used                   ... LIBINT
 Integral threshhold            Thresh   ...  1.000e-10
 Primitive cut-off              TCut     ...  1.000e-11


------------------------------ INTEGRAL EVALUATION ----------------------------


 * One electron integrals 
 Pre-screening matrix                    ... done
 Shell pair data                         ... done (   0.001 sec)



           ************************************************************
           *        Program running with 24 parallel MPI-processes    *
           *              working on a common directory               *
           ************************************************************
-------------------------------------------------------------------------------
                                 ORCA SCF
-------------------------------------------------------------------------------

------------
SCF SETTINGS
------------
Hamiltonian:
 Density Functional     Method          .... DFT(GTOs)
 Exchange Functional    Exchange        .... WB97X-V
 Correlation Functional Correlation     .... WB97X-V
 Gradients option       PostSCFGGA      .... off
 Hybrid DFT is turned on
   Fraction HF Exchange ScalHFX         ....  0.167000
   Scaling of DF-GGA-X  ScalDFX         ....  0.000000
   Scaling of DF-GGA-C  ScalDFC         ....  1.000000
   Scaling of DF-LDA-C  ScalLDAC        ....  1.000000
   Perturbative correction              ....  0.000000
   Density functional embedding theory  .... OFF
 Long-range corrected/Screened/Range-Separated Hybrid DFT is turned on
   Amount of maximum screened exact exchange              ....  0.833000
   Range separation parameter mu (erf(mu*r12)/r12)        ....  0.300000
   NL short-range parameter             ....  6.000000
   NL long-range parameter              ....  0.010000


General Settings:
 Integral files         IntName         .... 17_VO
 Hartree-Fock type      HFTyp           .... UHF
 Total Charge           Charge          ....    0
 Multiplicity           Mult            ....    4
 Number of Electrons    NEL             ....   31
 Basis Dimension        Dim             ....  139
 Nuclear Repulsion      ENuc            ....     61.1731739704 Eh

Convergence Acceleration:
 DIIS                   CNVDIIS         .... on
   Start iteration      DIISMaxIt       ....    12
   Startup error        DIISStart       ....  0.200000
   # of expansion vecs  DIISMaxEq       ....     5
   Bias factor          DIISBfac        ....   1.050
   Max. coefficient     DIISMaxC        ....  10.000
 Newton-Raphson         CNVNR           .... off
 SOSCF                  CNVSOSCF        .... off
 Level Shifting         CNVShift        .... on
   Level shift para.    LevelShift      ....    0.2500
   Turn off err/grad.   ShiftErr        ....    0.0010
 Zerner damping         CNVZerner       .... off
 Static damping         CNVDamp         .... on
   Fraction old density DampFac         ....    0.7000
   Max. Damping (<1)    DampMax         ....    0.9800
   Min. Damping (>=0)   DampMin         ....    0.0000
   Turn off err/grad.   DampErr         ....    0.1000
 Fernandez-Rico         CNVRico         .... off

SCF Procedure:
 Maximum # iterations   MaxIter         ....   125
 SCF integral mode      SCFMode         .... Direct
   Integral package                     .... LIBINT
 Reset frequency        DirectResetFreq ....    20
 Integral Threshold     Thresh          ....  1.000e-10 Eh
 Primitive CutOff       TCut            ....  1.000e-11 Eh

Convergence Tolerance:
 Convergence Check Mode ConvCheckMode   .... Total+1el-Energy
 Convergence forced     ConvForced      .... 0
 Energy Change          TolE            ....  1.000e-06 Eh
 1-El. energy change                    ....  1.000e-03 Eh
 DIIS Error             TolErr          ....  1.000e-06


Diagonalization of the overlap matrix:
Smallest eigenvalue                        ... 3.432e-05
Time for diagonalization                   ...    0.004 sec
Threshold for overlap eigenvalues          ... 1.000e-08
Number of eigenvalues below threshold      ... 0
Time for construction of square roots      ...    0.002 sec
Total time needed                          ...    0.006 sec

-------------------
DFT GRID GENERATION
-------------------

General Integration Accuracy     IntAcc      ...  4.670
Radial Grid Type                 RadialGrid  ... Gauss-Chebyshev
Angular Grid (max. acc.)         AngularGrid ... Lebedev-302
Angular grid pruning method      GridPruning ... 3 (G Style)
Weight generation scheme         WeightScheme... Becke
Basis function cutoff            BFCut       ...    1.0000e-10
Integration weight cutoff        WCut        ...    1.0000e-14
Grids for H and He will be reduced by one unit

# of grid points (after initial pruning)     ...  15876 (   0.0 sec)
# of grid points (after weights+screening)   ...  15834 (   0.0 sec)
nearest neighbour list constructed           ...    0.0 sec
Grid point re-assignment to atoms done       ...    0.0 sec
Grid point division into batches done        ...    0.1 sec
Reduced shell lists constructed in    0.1 sec

Total number of grid points                  ...    15834
Total number of batches                      ...      248
Average number of points per batch           ...       63
Average number of grid points per atom       ...     7917
Average number of shells per batch           ...    17.33 (44.44%)
Average number of basis functions per batch  ...    45.67 (32.85%)
Average number of large shells per batch     ...    10.92 (62.98%)
Average number of large basis fcns per batch ...    28.08 (61.50%)
Maximum spatial batch extension              ...  28.57, 31.41, 18.14 au
Average spatial batch extension              ...   0.89,  0.95,  0.67 au

Time for grid setup =    0.193 sec

------------------------------
INITIAL GUESS: MODEL POTENTIAL
------------------------------
Loading Hartree-Fock densities                     ... done
Calculating cut-offs                               ... done
Setting up the integral package                    ... done
Initializing the effective Hamiltonian             ... done
Starting the Coulomb interaction                   ... done (   0.0 sec)
Reading the grid                                   ... done
Mapping shells                                     ... done
Starting the XC term evaluation                    ... done (   0.0 sec)
  promolecular density results
     # of electrons  =     30.999998472
     EX              =    -39.087050562
     EC              =     -1.643990885
     EX+EC           =    -40.731041448
Transforming the Hamiltonian                       ... done (   0.0 sec)
Diagonalizing the Hamiltonian                      ... done (   0.0 sec)
Back transforming the eigenvectors                 ... done (   0.0 sec)
Now organizing SCF variables                       ... done
                      ------------------
                      INITIAL GUESS DONE (   0.3 sec)
                      ------------------
--------------
SCF ITERATIONS
--------------
ITER       Energy         Delta-E        Max-DP      RMS-DP      [F,P]     Damp
               ***  Starting incremental Fock matrix formation  ***
  0  -1017.2516637594   0.000000000000 1.95720216  0.03062518  0.6850904 0.7000
  1  -1017.5680657436  -0.316401984202 0.66360690  0.01112007  0.3015657 0.7000
                               ***Turning on DIIS***
  2  -1018.0987728405  -0.530707096826 0.46204358  0.00767157  0.1781405 0.7000
  3  -1018.4074229035  -0.308650063057 0.29152354  0.00498976  0.1092083 0.7000
  4  -1018.6254566244  -0.218033720856 0.18230874  0.00328681  0.1281103 0.7000
  5  -1018.7875287272  -0.162072102790 0.10191724  0.00210635  0.1175868 0.7000
  6  -1018.9069093237  -0.119380596485 0.21551032  0.00468974  0.0969083 0.0000
  7  -1019.2000168306  -0.293107506984 0.07195991  0.00124219  0.0336253 0.0000
  8  -1019.2021872492  -0.002170418535 0.02616543  0.00034951  0.0062713 0.0000
  9  -1019.2025977367  -0.000410487521 0.01135747  0.00013862  0.0032017 0.0000
 10  -1019.2028009481  -0.000203211405 0.01150983  0.00011938  0.0020459 0.0000
 11  -1019.2029812557  -0.000180307639 0.00835336  0.00009027  0.0014105 0.0000
 12  -1019.2031007909  -0.000119535129 0.00893423  0.00010077  0.0009464 0.0000
 13  -1019.2031894564  -0.000088665564 0.00473197  0.00005468  0.0005103 0.0000
 14  -1019.2032092226  -0.000019766203 0.00566201  0.00005682  0.0003595 0.0000
 15  -1019.2032176214  -0.000008398803 0.00186662  0.00001826  0.0002960 0.0000
                 **** Energy Check signals convergence ****

               *****************************************************
               *                     SUCCESS                       *
               *           SCF CONVERGED AFTER  16 CYCLES          *
               *****************************************************


Setting up the DFT-NL grid :

General Integration Accuracy     IntAcc      ...  4.340
Radial Grid Type                 RadialGrid  ... Gauss-Chebyshev
Angular Grid (max. acc.)         AngularGrid ... Lebedev-110
Angular grid pruning method      GridPruning ... 3 (G Style)
Weight generation scheme         WeightScheme... Becke
Basis function cutoff            BFCut       ...    1.0000e-10
Integration weight cutoff        WCut        ...    1.0000e-14
Grids for H and He will be reduced by one unit

# of grid points (after initial pruning)     ...   4688 (   0.0 sec)
# of grid points (after weights+screening)   ...   4661 (   0.0 sec)
nearest neighbour list constructed           ...    0.0 sec
Grid point re-assignment to atoms done       ...    0.0 sec
Grid point division into batches done        ...    0.0 sec
Reduced shell lists constructed in    0.0 sec

Total number of grid points                  ...     4661
Total number of batches                      ...       73
Average number of points per batch           ...       63
Average number of grid points per atom       ...     2330
Average number of shells per batch           ...    22.40 (57.44%)
Average number of basis functions per batch  ...    72.00 (51.80%)
Average number of large shells per batch     ...    18.00 (80.36%)
Average number of large basis fcns per batch ...    58.00 (80.56%)
Maximum spatial batch extension              ...  19.25, 28.73, 15.77 au
Average spatial batch extension              ...   1.01,  1.32,  0.86 au

Final grid set up in    0.0 sec

-------------------------------------------------------------------------------
                         DFT-NL dispersion correction                          
-------------------------------------------------------------------------------

SC Energy -1019.203218357 
NL    Energy 0.129404502 
SC+NL Energy -1019.073813855 
NL done in    0.0 sec
-------------------------------------------------------------------------------

----------------
TOTAL SCF ENERGY
----------------

Total Energy       :        -1019.07381386 Eh          -27730.40826 eV

Components:
Nuclear Repulsion  :           61.17317397 Eh            1664.60669 eV
Electronic Energy  :        -1080.24698783 Eh          -29395.01495 eV
One Electron Energy:        -1521.69766844 Eh          -41407.49867 eV
Two Electron Energy:          441.45068061 Eh           12012.48372 eV

Virial components:
Potential Energy   :        -2036.48074694 Eh          -55415.45839 eV
Kinetic Energy     :         1017.40693309 Eh           27685.05013 eV
Virial Ratio       :            2.00163836


DFT components:
N(Alpha)           :       16.999994486118 electrons
N(Beta)            :       13.999994153543 electrons
N(Total)           :       30.999988639661 electrons
E(X)               :      -39.300873873933 Eh       
E(C)               :       -1.628650658060 Eh       
NL Energy, E(C,NL) :        0.129404501690 Eh       
E(XC)              :      -40.800120030302 Eh       
DFET-embed. en.    :        0.000000000000 Eh       

---------------
SCF CONVERGENCE
---------------

  Last Energy change         ...   -7.3558e-07  Tolerance :   1.0000e-06
  Last MAX-Density change    ...    8.3078e-04  Tolerance :   1.0000e-05
  Last RMS-Density change    ...    8.3470e-06  Tolerance :   1.0000e-06
  Last DIIS Error            ...    2.3761e-04  Tolerance :   1.0000e-06

             **** THE GBW FILE WAS UPDATED (17_VO.gbw) ****
             **** DENSITY FILE WAS UPDATED (17_VO.scfp) ****
             **** ENERGY FILE WAS UPDATED (17_VO.en.tmp) ****
----------------------
UHF SPIN CONTAMINATION
----------------------

Warning: in a DFT calculation there is little theoretical justification to 
         calculate <S**2> as in Hartree-Fock theory. We will do it anyways
         but you should keep in mind that the values have only limited relevance

Expectation value of <S**2>     :     3.794675
Ideal value S*(S+1) for S=1.5   :     3.750000
Deviation                       :     0.044675

             **** THE GBW FILE WAS UPDATED (17_VO.gbw) ****
             **** DENSITY FILE WAS UPDATED (17_VO.scfp) ****
----------------
ORBITAL ENERGIES
----------------
                 SPIN UP ORBITALS
  NO   OCC          E(Eh)            E(eV) 
   0   1.0000    -196.798700     -5355.1649 
   1   1.0000     -22.320017      -607.3585 
   2   1.0000     -19.196360      -522.3595 
   3   1.0000     -18.822001      -512.1727 
   4   1.0000     -18.810793      -511.8677 
   5   1.0000     -18.810793      -511.8677 
   6   1.0000      -2.782589       -75.7181 
   7   1.0000      -1.829157       -49.7739 
   8   1.0000      -1.810468       -49.2653 
   9   1.0000      -1.810468       -49.2653 
  10   1.0000      -0.988305       -26.8932 
  11   1.0000      -0.443998       -12.0818 
  12   1.0000      -0.425977       -11.5914 
  13   1.0000      -0.425977       -11.5914 
  14   1.0000      -0.337117        -9.1734 
  15   1.0000      -0.337114        -9.1734 
  16   1.0000      -0.267153        -7.2696 
  17   0.0000      -0.004106        -0.1117 
  18   0.0000      -0.004106        -0.1117 
  19   0.0000       0.001289         0.0351 
  20   0.0000       0.027073         0.7367 
  21   0.0000       0.033290         0.9059 
  22   0.0000       0.033290         0.9059 
  23   0.0000       0.035239         0.9589 
  24   0.0000       0.068464         1.8630 
  25   0.0000       0.068464         1.8630 
  26   0.0000       0.069307         1.8859 
  27   0.0000       0.069307         1.8859 
  28   0.0000       0.074508         2.0275 
  29   0.0000       0.086909         2.3649 
  30   0.0000       0.086909         2.3649 
  31   0.0000       0.113197         3.0802 
  32   0.0000       0.139653         3.8001 
  33   0.0000       0.201746         5.4898 
  34   0.0000       0.201746         5.4898 
  35   0.0000       0.237333         6.4582 
  36   0.0000       0.237333         6.4582 
  37   0.0000       0.243198         6.6178 
  38   0.0000       0.248981         6.7751 
  39   0.0000       0.248981         6.7751 
  40   0.0000       0.257323         7.0021 
  41   0.0000       0.265728         7.2308 
  42   0.0000       0.265728         7.2308 
  43   0.0000       0.323334         8.7984 
  44   0.0000       0.463623        12.6158 
  45   0.0000       0.463623        12.6158 
  46   0.0000       0.470128        12.7928 
  47   0.0000       0.470128        12.7928 
  48   0.0000       0.476271        12.9600 
  49   0.0000       0.559299        15.2193 
  50   0.0000       0.560156        15.2426 
  51   0.0000       0.560156        15.2426 
  52   0.0000       0.650444        17.6995 
  53   0.0000       0.661099        17.9894 
  54   0.0000       0.661099        17.9894 
  55   0.0000       0.748087        20.3565 
  56   0.0000       0.748088        20.3565 
  57   0.0000       0.806879        21.9563 
  58   0.0000       0.826308        22.4850 
  59   0.0000       0.826308        22.4850 
  60   0.0000       0.851443        23.1689 
  61   0.0000       0.851443        23.1689 
  62   0.0000       0.866040        23.5661 
  63   0.0000       0.866040        23.5661 
  64   0.0000       0.927418        25.2363 
  65   0.0000       1.231390        33.5078 
  66   0.0000       1.258286        34.2397 
  67   0.0000       1.258286        34.2397 
  68   0.0000       1.423728        38.7416 
  69   0.0000       1.423729        38.7416 
  70   0.0000       1.438718        39.1495 
  71   0.0000       1.444228        39.2994 
  72   0.0000       1.444228        39.2994 
  73   0.0000       1.579232        42.9731 
  74   0.0000       1.579232        42.9731 
  75   0.0000       1.666470        45.3470 
  76   0.0000       1.666470        45.3470 
  77   0.0000       1.678967        45.6870 
  78   0.0000       1.718739        46.7693 
  79   0.0000       1.718743        46.7694 
  80   0.0000       1.814252        49.3683 
  81   0.0000       1.814252        49.3683 
  82   0.0000       1.889398        51.4131 
  83   0.0000       1.889398        51.4131 
  84   0.0000       2.029299        55.2200 
  85   0.0000       2.080451        56.6120 
  86   0.0000       2.160357        58.7863 
  87   0.0000       2.160357        58.7863 
  88   0.0000       2.191840        59.6430 
  89   0.0000       2.191846        59.6432 
  90   0.0000       2.276404        61.9441 
  91   0.0000       2.276404        61.9441 
  92   0.0000       2.467462        67.1431 
  93   0.0000       2.479203        67.4625 
  94   0.0000       2.479203        67.4625 
  95   0.0000       2.588395        70.4338 
  96   0.0000       2.618777        71.2605 
  97   0.0000       2.618784        71.2607 
  98   0.0000       2.692834        73.2757 
  99   0.0000       2.692834        73.2757 
 100   0.0000       2.760502        75.1171 
 101   0.0000       2.876698        78.2789 
 102   0.0000       2.876698        78.2789 
 103   0.0000       3.071857        83.5895 
 104   0.0000       3.429385        93.3183 
 105   0.0000       3.429385        93.3183 
 106   0.0000       3.741846       101.8208 
 107   0.0000       4.222504       114.9002 
 108   0.0000       4.222504       114.9002 
 109   0.0000       4.917389       133.8090 
 110   0.0000       4.917389       133.8090 
 111   0.0000       4.958568       134.9295 
 112   0.0000       4.976133       135.4075 
 113   0.0000       4.976133       135.4075 
 114   0.0000       5.212338       141.8349 
 115   0.0000       5.212338       141.8349 
 116   0.0000       5.240537       142.6023 
 117   0.0000       5.240556       142.6028 
 118   0.0000       5.260332       143.1409 
 119   0.0000       5.260332       143.1409 
 120   0.0000       5.296935       144.1369 
 121   0.0000       5.296939       144.1370 
 122   0.0000       5.314460       144.6138 
 123   0.0000       5.314460       144.6138 
 124   0.0000       5.419241       147.4651 
 125   0.0000       5.510394       149.9454 
 126   0.0000       6.229104       169.5025 
 127   0.0000       6.229104       169.5025 
 128   0.0000       6.380647       173.6262 
 129   0.0000       6.380661       173.6266 
 130   0.0000       6.628709       180.3763 
 131   0.0000       6.628709       180.3763 
 132   0.0000       6.754615       183.8024 
 133   0.0000       6.754764       183.8065 
 134   0.0000       6.944991       188.9828 
 135   0.0000       7.158451       194.7914 
 136   0.0000       7.158451       194.7914 
 137   0.0000       7.398981       201.3365 
 138   0.0000      11.851509       322.4960 

                 SPIN DOWN ORBITALS
  NO   OCC          E(Eh)            E(eV) 
   0   1.0000    -196.797668     -5355.1368 
   1   1.0000     -22.290615      -606.5585 
   2   1.0000     -19.202719      -522.5325 
   3   1.0000     -18.810089      -511.8485 
   4   1.0000     -18.780667      -511.0479 
   5   1.0000     -18.780667      -511.0479 
   6   1.0000      -2.696050       -73.3633 
   7   1.0000      -1.779859       -48.4324 
   8   1.0000      -1.692063       -46.0434 
   9   1.0000      -1.692063       -46.0434 
  10   1.0000      -1.003700       -27.3121 
  11   1.0000      -0.441474       -12.0131 
  12   1.0000      -0.434631       -11.8269 
  13   1.0000      -0.434631       -11.8269 
  14   0.0000      -0.003001        -0.0817 
  15   0.0000       0.028843         0.7849 
  16   0.0000       0.028843         0.7849 
  17   0.0000       0.030875         0.8401 
  18   0.0000       0.036574         0.9952 
  19   0.0000       0.062937         1.7126 
  20   0.0000       0.068648         1.8680 
  21   0.0000       0.068648         1.8680 
  22   0.0000       0.073534         2.0010 
  23   0.0000       0.073558         2.0016 
  24   0.0000       0.080984         2.2037 
  25   0.0000       0.080984         2.2037 
  26   0.0000       0.090199         2.4544 
  27   0.0000       0.097597         2.6557 
  28   0.0000       0.097599         2.6558 
  29   0.0000       0.117945         3.2095 
  30   0.0000       0.117945         3.2095 
  31   0.0000       0.128421         3.4945 
  32   0.0000       0.167749         4.5647 
  33   0.0000       0.247211         6.7270 
  34   0.0000       0.247211         6.7270 
  35   0.0000       0.251821         6.8524 
  36   0.0000       0.251821         6.8524 
  37   0.0000       0.256612         6.9828 
  38   0.0000       0.287316         7.8183 
  39   0.0000       0.287381         7.8200 
  40   0.0000       0.288407         7.8480 
  41   0.0000       0.293285         7.9807 
  42   0.0000       0.293285         7.9807 
  43   0.0000       0.335818         9.1381 
  44   0.0000       0.496290        13.5047 
  45   0.0000       0.496341        13.5061 
  46   0.0000       0.515801        14.0357 
  47   0.0000       0.516419        14.0525 
  48   0.0000       0.516419        14.0525 
  49   0.0000       0.583670        15.8825 
  50   0.0000       0.589813        16.0496 
  51   0.0000       0.589813        16.0496 
  52   0.0000       0.680854        18.5270 
  53   0.0000       0.699950        19.0466 
  54   0.0000       0.699950        19.0466 
  55   0.0000       0.783296        21.3146 
  56   0.0000       0.783302        21.3147 
  57   0.0000       0.812579        22.1114 
  58   0.0000       0.843407        22.9503 
  59   0.0000       0.843407        22.9503 
  60   0.0000       0.880142        23.9499 
  61   0.0000       0.880142        23.9499 
  62   0.0000       0.888719        24.1833 
  63   0.0000       0.888746        24.1840 
  64   0.0000       0.939961        25.5776 
  65   0.0000       1.250930        34.0395 
  66   0.0000       1.270516        34.5725 
  67   0.0000       1.270516        34.5725 
  68   0.0000       1.456177        39.6246 
  69   0.0000       1.457321        39.6557 
  70   0.0000       1.457326        39.6559 
  71   0.0000       1.512972        41.1701 
  72   0.0000       1.512972        41.1701 
  73   0.0000       1.599550        43.5260 
  74   0.0000       1.599550        43.5260 
  75   0.0000       1.691540        46.0291 
  76   0.0000       1.691540        46.0291 
  77   0.0000       1.698823        46.2273 
  78   0.0000       1.765533        48.0426 
  79   0.0000       1.765541        48.0428 
  80   0.0000       1.831536        49.8386 
  81   0.0000       1.831538        49.8387 
  82   0.0000       1.899290        51.6823 
  83   0.0000       1.899290        51.6823 
  84   0.0000       2.032744        55.3138 
  85   0.0000       2.113360        57.5075 
  86   0.0000       2.166711        58.9592 
  87   0.0000       2.166711        58.9592 
  88   0.0000       2.187497        59.5248 
  89   0.0000       2.187500        59.5249 
  90   0.0000       2.335585        63.5545 
  91   0.0000       2.335585        63.5545 
  92   0.0000       2.494305        67.8735 
  93   0.0000       2.494305        67.8735 
  94   0.0000       2.497628        67.9639 
  95   0.0000       2.596784        70.6621 
  96   0.0000       2.632062        71.6221 
  97   0.0000       2.632069        71.6222 
  98   0.0000       2.721563        74.0575 
  99   0.0000       2.721563        74.0575 
 100   0.0000       2.771351        75.4123 
 101   0.0000       2.964818        80.6768 
 102   0.0000       2.964824        80.6770 
 103   0.0000       3.124187        85.0135 
 104   0.0000       3.451770        93.9274 
 105   0.0000       3.451770        93.9274 
 106   0.0000       3.759007       102.2878 
 107   0.0000       4.216258       114.7302 
 108   0.0000       4.216258       114.7302 
 109   0.0000       4.979249       135.4923 
 110   0.0000       5.024745       136.7302 
 111   0.0000       5.024745       136.7302 
 112   0.0000       5.037201       137.0692 
 113   0.0000       5.037202       137.0692 
 114   0.0000       5.263529       143.2279 
 115   0.0000       5.263529       143.2279 
 116   0.0000       5.318515       144.7242 
 117   0.0000       5.318515       144.7242 
 118   0.0000       5.330149       145.0407 
 119   0.0000       5.330166       145.0412 
 120   0.0000       5.341045       145.3372 
 121   0.0000       5.341050       145.3374 
 122   0.0000       5.347858       145.5226 
 123   0.0000       5.347858       145.5226 
 124   0.0000       5.463315       148.6644 
 125   0.0000       5.520995       150.2339 
 126   0.0000       6.217633       169.1904 
 127   0.0000       6.217633       169.1904 
 128   0.0000       6.371360       173.3735 
 129   0.0000       6.371375       173.3739 
 130   0.0000       6.624522       180.2624 
 131   0.0000       6.624522       180.2624 
 132   0.0000       6.735697       183.2876 
 133   0.0000       6.735845       183.2917 
 134   0.0000       6.940200       188.8524 
 135   0.0000       7.142644       194.3612 
 136   0.0000       7.142644       194.3612 
 137   0.0000       7.391994       201.1464 
 138   0.0000      11.844078       322.2938 

                    ********************************
                    * MULLIKEN POPULATION ANALYSIS *
                    ********************************

--------------------------------------------
MULLIKEN ATOMIC CHARGES AND SPIN POPULATIONS
--------------------------------------------
   0 V :    0.532576    3.261689
   1 O :   -0.532576   -0.261689
Sum of atomic charges         :    0.0000000
Sum of atomic spin populations:    3.0000000

-----------------------------------------------------
MULLIKEN REDUCED ORBITAL CHARGES AND SPIN POPULATIONS
-----------------------------------------------------
CHARGE
  0 V s       :     6.808488  s :     6.808488
      pz      :     4.083431  p :    12.146324
      px      :     4.031446
      py      :     4.031446
      dz2     :     0.706623  d :     3.466933
      dxz     :     0.382206
      dyz     :     0.382206
      dx2y2   :     0.997949
      dxy     :     0.997949
      f0      :     0.008496  f :     0.036013
      f+1     :     0.013536
      f-1     :     0.013536
      f+2     :     0.000222
      f-2     :     0.000222
      f+3     :     0.000000
      f-3     :     0.000000
      g0      :     0.001972  g :     0.009666
      g+1     :     0.003852
      g-1     :     0.003852
      g+2     :    -0.000005
      g-2     :    -0.000005
      g+3     :     0.000000
      g-3     :     0.000000
      g+4     :     0.000000
      g-4     :     0.000000
  1 O s       :     3.938505  s :     3.938505
      pz      :     1.446545  p :     4.566981
      px      :     1.560218
      py      :     1.560218
      dz2     :     0.004288  d :     0.021948
      dxz     :     0.007518
      dyz     :     0.007518
      dx2y2   :     0.001312
      dxy     :     0.001312
      f0      :     0.001651  f :     0.005141
      f+1     :     0.001223
      f-1     :     0.001223
      f+2     :     0.000522
      f-2     :     0.000522
      f+3     :     0.000000
      f-3     :     0.000000

SPIN
  0 V s       :     0.757038  s :     0.757038
      pz      :     0.067938  p :     0.074093
      px      :     0.003077
      py      :     0.003077
      dz2     :     0.255557  d :     2.435670
      dxz     :     0.092107
      dyz     :     0.092107
      dx2y2   :     0.997949
      dxy     :     0.997949
      f0      :    -0.000548  f :    -0.003695
      f+1     :    -0.001796
      f-1     :    -0.001796
      f+2     :     0.000222
      f-2     :     0.000222
      f+3     :    -0.000000
      f-3     :    -0.000000
      g0      :    -0.000231  g :    -0.001417
      g+1     :    -0.000588
      g-1     :    -0.000588
      g+2     :    -0.000005
      g-2     :    -0.000005
      g+3     :    -0.000000
      g-3     :    -0.000000
      g+4     :     0.000000
      g-4     :    -0.000000
  1 O s       :    -0.007495  s :    -0.007495
      pz      :    -0.074652  p :    -0.265983
      px      :    -0.095665
      py      :    -0.095665
      dz2     :     0.001834  d :     0.009379
      dxz     :     0.002461
      dyz     :     0.002461
      dx2y2   :     0.001312
      dxy     :     0.001312
      f0      :     0.000560  f :     0.002411
      f+1     :     0.000403
      f-1     :     0.000403
      f+2     :     0.000522
      f-2     :     0.000522
      f+3     :    -0.000000
      f-3     :    -0.000000


                     *******************************
                     * LOEWDIN POPULATION ANALYSIS *
                     *******************************

-------------------------------------------
LOEWDIN ATOMIC CHARGES AND SPIN POPULATIONS
-------------------------------------------
   0 V :    0.595386    3.044186
   1 O :   -0.595386   -0.044186

----------------------------------------------------
LOEWDIN REDUCED ORBITAL CHARGES AND SPIN POPULATIONS
----------------------------------------------------
CHARGE
  0 V s       :     6.378314  s :     6.378314
      pz      :     4.142247  p :    11.999949
      px      :     3.928851
      py      :     3.928851
      dz2     :     0.853273  d :     3.650559
      dxz     :     0.425250
      dyz     :     0.425250
      dx2y2   :     0.973393
      dxy     :     0.973393
      f0      :     0.123566  f :     0.267248
      f+1     :     0.070021
      f-1     :     0.070021
      f+2     :     0.001820
      f-2     :     0.001820
      f+3     :     0.000000
      f-3     :     0.000000
      g0      :     0.038588  g :     0.108544
      g+1     :     0.034488
      g-1     :     0.034488
      g+2     :     0.000491
      g-2     :     0.000491
      g+3     :     0.000000
      g-3     :     0.000000
      g+4     :     0.000000
      g-4     :     0.000000
  1 O s       :     3.525807  s :     3.525807
      pz      :     1.647548  p :     4.517996
      px      :     1.435224
      py      :     1.435224
      dz2     :     0.203109  d :     0.370989
      dxz     :     0.069538
      dyz     :     0.069538
      dx2y2   :     0.014402
      dxy     :     0.014402
      f0      :     0.087548  f :     0.180594
      f+1     :     0.036629
      f-1     :     0.036629
      f+2     :     0.009894
      f-2     :     0.009894
      f+3     :     0.000000
      f-3     :     0.000000

SPIN
  0 V s       :     0.645278  s :     0.645278
      pz      :     0.080091  p :     0.080675
      px      :     0.000292
      py      :     0.000292
      dz2     :     0.238368  d :     2.339870
      dxz     :     0.077358
      dyz     :     0.077358
      dx2y2   :     0.973393
      dxy     :     0.973393
      f0      :    -0.002249  f :    -0.014178
      f+1     :    -0.007785
      f-1     :    -0.007785
      f+2     :     0.001820
      f-2     :     0.001820
      f+3     :    -0.000000
      f-3     :    -0.000000
      g0      :    -0.000884  g :    -0.007459
      g+1     :    -0.003778
      g-1     :    -0.003778
      g+2     :     0.000491
      g-2     :     0.000491
      g+3     :    -0.000000
      g-3     :    -0.000000
      g+4     :     0.000000
      g-4     :    -0.000000
  1 O s       :     0.034590  s :     0.034590
      pz      :     0.000646  p :    -0.140742
      px      :    -0.070694
      py      :    -0.070694
      dz2     :     0.001465  d :     0.037581
      dxz     :     0.003656
      dyz     :     0.003656
      dx2y2   :     0.014402
      dxy     :     0.014402
      f0      :     0.002697  f :     0.024386
      f+1     :     0.000951
      f-1     :     0.000951
      f+2     :     0.009894
      f-2     :     0.009894
      f+3     :    -0.000000
      f-3     :    -0.000000


                      *****************************
                      * MAYER POPULATION ANALYSIS *
                      *****************************

  NA   - Mulliken gross atomic population
  ZA   - Total nuclear charge
  QA   - Mulliken gross atomic charge
  VA   - Mayer's total valence
  BVA  - Mayer's bonded valence
  FA   - Mayer's free valence

  ATOM       NA         ZA         QA         VA         BVA        FA
  0 V     22.4674    23.0000     0.5326     5.2560     2.2889     2.9671
  1 O      8.5326     8.0000    -0.5326     2.3183     2.2889     0.0293

  Mayer bond orders larger than 0.100000
B(  0-V ,  1-O ) :   2.2889 

-------
TIMINGS
-------

Total SCF time: 0 days 0 hours 3 min 39 sec 

Total time                  ....     219.132 sec
Sum of individual times     ....     218.793 sec  ( 99.8%)

Fock matrix formation       ....     218.355 sec  ( 99.6%)
  XC integration            ....       0.393 sec  (  0.2% of F)
    Basis function eval.    ....       0.085 sec  ( 21.7% of XC)
    Density eval.           ....       0.048 sec  ( 12.2% of XC)
    XC-Functional eval.     ....       0.020 sec  (  5.1% of XC)
    XC-Potential eval.      ....       0.126 sec  ( 32.0% of XC)
Diagonalization             ....       0.085 sec  (  0.0%)
Density matrix formation    ....       0.011 sec  (  0.0%)
Population analysis         ....       0.007 sec  (  0.0%)
Initial guess               ....       0.099 sec  (  0.0%)
Orbital Transformation      ....       0.000 sec  (  0.0%)
Orbital Orthonormalization  ....       0.000 sec  (  0.0%)
DIIS solution               ....       0.030 sec  (  0.0%)
Grid generation             ....       0.207 sec  (  0.1%)

-------------------------   --------------------
FINAL SINGLE POINT ENERGY     -1019.073813855340
-------------------------   --------------------


                            ***************************************
                            *     ORCA property calculations      *
                            ***************************************

                                    ---------------------
                                    Active property flags
                                    ---------------------
   (+) Dipole Moment


------------------------------------------------------------------------------
                       ORCA ELECTRIC PROPERTIES CALCULATION
------------------------------------------------------------------------------

Dipole Moment Calculation                       ... on
Quadrupole Moment Calculation                   ... off
Polarizability Calculation                      ... off
GBWName                                         ... 17_VO.gbw
Electron density file                           ... 17_VO.scfp
The origin for moment calculation is the CENTER OF MASS  = ( 0.000000,  0.000000  1.104702)

-------------
DIPOLE MOMENT
-------------
                                X             Y             Z
Electronic contribution:     -0.00000       0.00000      -3.31126
Nuclear contribution   :      0.00000       0.00000       1.77684
                        -----------------------------------------
Total Dipole Moment    :     -0.00000       0.00000      -1.53442
                        -----------------------------------------
Magnitude (a.u.)       :      1.53442
Magnitude (Debye)      :      3.90019



--------------------
Rotational spectrum 
--------------------
 
Rotational constants in cm-1:     0.000000     0.546523     0.546523 
Rotational constants in MHz :     0.000000 16384.348098 16384.348098 

 Dipole components along the rotational axes: 
x,y,z [a.u.] :    -1.534423     0.000000    -0.000000 
x,y,z [Debye]:    -3.900192     0.000000    -0.000000 

 

Timings for individual modules:

Sum of individual times         ...      222.695 sec (=   3.712 min)
GTO integral calculation        ...        3.023 sec (=   0.050 min)   1.4 %
SCF iterations                  ...      219.671 sec (=   3.661 min)  98.6 %
                             ****ORCA TERMINATED NORMALLY****
TOTAL RUN TIME: 0 days 0 hours 3 minutes 43 seconds 326 msec
