
                                 *****************
                                 * O   R   C   A *
                                 *****************

           --- An Ab Initio, DFT and Semiempirical electronic structure package ---

                  #######################################################
                  #                        -***-                        #
                  #          Department of theory and spectroscopy      #
                  #               Directorship: Frank Neese             #
                  #        Max Planck Institute fuer Kohlenforschung    #
                  #                Kaiser Wilhelm Platz 1               #
                  #                 D-45470 Muelheim/Ruhr               #
                  #                      Germany                        #
                  #                                                     #
                  #                  All rights reserved                #
                  #                        -***-                        #
                  #######################################################


                         Program Version 4.2.0 -  RELEASE  -


 With contributions from (in alphabetic order):
   Daniel Aravena         : Magnetic Suceptibility
   Michael Atanasov       : Ab Initio Ligand Field Theory (pilot matlab implementation)
   Alexander A. Auer      : GIAO ZORA, VPT2
   Ute Becker             : Parallelization
   Giovanni Bistoni       : ED, misc. LED, open-shell LED, HFLED
   Martin Brehm           : Molecular dynamics
   Dmytro Bykov           : SCF Hessian
   Vijay G. Chilkuri      : MRCI spin determinant printing, contributions to CSF-ICE
   Dipayan Datta          : RHF DLPNO-CCSD density
   Achintya Kumar Dutta   : EOM-CC, STEOM-CC
   Dmitry Ganyushin       : Spin-Orbit,Spin-Spin,Magnetic field MRCI
   Miquel Garcia          : C-PCM Hessian, Gaussian charge scheme
   Yang Guo               : DLPNO-NEVPT2, CIM, IAO-localization
   Andreas Hansen         : Spin unrestricted coupled pair/coupled cluster methods
   Benjamin Helmich-Paris : CASSCF linear response (MC-RPA)
   Lee Huntington         : MR-EOM, pCC
   Robert Izsak           : Overlap fitted RIJCOSX, COSX-SCS-MP3, EOM
   Christian Kollmar      : KDIIS, OOCD, Brueckner-CCSD(T), CCSD density
   Simone Kossmann        : Meta GGA functionals, TD-DFT gradient, OOMP2, MP2 Hessian
   Martin Krupicka        : AUTO-CI
   Lucas Lang             : DCDCAS
   Dagmar Lenk            : GEPOL surface, SMD
   Dimitrios Liakos       : Extrapolation schemes; Compound Job, initial MDCI parallelization
   Dimitrios Manganas     : Further ROCIS development; embedding schemes
   Dimitrios Pantazis     : SARC Basis sets
   Taras Petrenko         : DFT Hessian,TD-DFT gradient, ASA, ECA, R-Raman, ABS, FL, XAS/XES, NRVS
   Peter Pinski           : DLPNO-MP2, DLPNO-MP2 Gradient
   Christoph Reimann      : Effective Core Potentials
   Marius Retegan         : Local ZFS, SOC
   Christoph Riplinger    : Optimizer, TS searches, QM/MM, DLPNO-CCSD(T), (RO)-DLPNO pert. Triples
   Tobias Risthaus        : Range-separated hybrids, TD-DFT gradient, RPA, STAB
   Michael Roemelt        : Original ROCIS implementation
   Masaaki Saitow         : Open-shell DLPNO-CCSD energy and density
   Barbara Sandhoefer     : DKH picture change effects
   Avijit Sen             : IP-ROCIS
   Kantharuban Sivalingam : CASSCF convergence, NEVPT2, FIC-MRCI
   Bernardo de Souza      : ESD, SOC TD-DFT
   Georgi Stoychev        : AutoAux, RI-MP2 NMR
   Willem Van den Heuvel  : Paramagnetic NMR
   Boris Wezisla          : Elementary symmetry handling
   Frank Wennmohs         : Technical directorship


 We gratefully acknowledge several colleagues who have allowed us to
 interface, adapt or use parts of their codes:
   Stefan Grimme, W. Hujo, H. Kruse,             : VdW corrections, initial TS optimization,
                  C. Bannwarth                     DFT functionals, gCP, sTDA/sTD-DF
   Ed Valeev, F. Pavosevic, A. Kumar             : LibInt (2-el integral package), F12 methods
   Garnet Chan, S. Sharma, J. Yang, R. Olivares  : DMRG
   Ulf Ekstrom                                   : XCFun DFT Library
   Mihaly Kallay                                 : mrcc  (arbitrary order and MRCC methods)
   Andreas Klamt, Michael Diedenhofen            : otool_cosmo (COSMO solvation model)
   Jiri Pittner, Ondrej Demel                    : Mk-CCSD
   Frank Weinhold                                : gennbo (NPA and NBO analysis)
   Christopher J. Cramer and Donald G. Truhlar   : smd solvation model
   Lars Goerigk                                  : TD-DFT with DH, B97 family of functionals
   V. Asgeirsson, H. Jonsson                     : NEB implementation
   FAccTs GmbH                                   : IRC, NEB, NEB-TS, Multilevel, MM, QM/MM, CI optimization
   S Lehtola, MJT Oliveira, MAL Marques          : LibXC Library


 Your calculation uses the libint2 library for the computation of 2-el integrals
 For citations please refer to: http://libint.valeyev.net

 Your ORCA version has been built with support for libXC version: 4.2.3
 For citations please refer to: https://tddft.org/programs/libxc/

 This ORCA versions uses:
   CBLAS   interface :  Fast vector & matrix operations
   LAPACKE interface :  Fast linear algebra routines
   SCALAPACK package :  Parallel linear algebra routines


Your calculation utilizes the DFT-NL dispersion correction.
Cite in your paper:
Vydrov, O. A.; Van Voorhis, T. J. Chem. Phys. 2010, 133, 244103
Hujo, W.; Grimme, S. J. Chem. Theory Comput. 2011, 7, 3866 
   

----- Orbital basis set information -----
Your calculation utilizes the basis: aug-cc-pVTZ 
    H, B-Ne : Obtained from the ccRepo (grant-hill.group.shef.ac.uk/ccrepo) Feb. 2017
              R. A. Kendall, T. H. Dunning, Jr., R. J. Harrison, J. Chem. Phys. 96, 6796 (1992)
         He : Obtained from the ccRepo (grant-hill.group.shef.ac.uk/ccrepo) Feb. 2017
              D. E. Woon, T. H. Dunning, Jr., J. Chem. Phys. 100, 2975 (1994)
  Li-Be, Na : Obtained from the ccRepo (grant-hill.group.shef.ac.uk/ccrepo) Feb. 2017
              B. P. Prascher, D. E. Woon, K. A. Peterson, T. H. Dunning, Jr., A. K. Wilson, Theor. Chem. Acc. 128, 69 (2011)
         Mg : Obtained from the Peterson Research Group Website (tyr0.chem.wsu.edu/~kipeters) Feb. 2017
              B. P. Prascher, D. E. Woon, K. A. Peterson, T. H. Dunning, Jr., A. K. Wilson, Theor. Chem. Acc. 128, 69 (2011)
      Al-Ar : Obtained from the ccRepo (grant-hill.group.shef.ac.uk/ccrepo) Feb. 2017
              D. E. Woon, T. H. Dunning, Jr., J. Chem. Phys. 98, 1358 (1993)
      Sc-Zn : Obtained from the ccRepo (grant-hill.group.shef.ac.uk/ccrepo) Feb. 2017
              N. B. Balabanov, K. A. Peterson, J. Chem. Phys. 123, 064107 (2005)
              N. B. Balabanov, K. A. Peterson, J. Chem. Phys. 125, 074110 (2006)
      Ga-Kr : Obtained from the ccRepo (grant-hill.group.shef.ac.uk/ccrepo) Feb. 2017
              A. K. Wilson, D. E. Woon, K. A. Peterson, T. H. Dunning, Jr., J. Chem. Phys. 110, 7667 (1999)
     Ag, Au : Obtained from the Peterson Research Group Website (tyr0.chem.wsu.edu/~kipeters) Feb. 2017
              K. A. Peterson, C. Puzzarini, Theor. Chem. Acc. 114, 283 (2005)

----- AuxJK basis set information -----
Your calculation utilizes the auxiliary basis: def2/JK
   H-Ba, Hf-Rn: F. Weigend, J. Comput. Chem. 29, 167 (2008).

================================================================================
                                        WARNINGS
                       Please study these warnings very carefully!
================================================================================


WARNING: your system is open-shell and RHF/RKS was chosen
  ===> : WILL SWITCH to UHF/UKS


INFO   : the flag for use of LIBINT has been found!

================================================================================
                                       INPUT FILE
================================================================================
NAME = 20_CrF.in
|  1> #
|  2> # 20_CrF wb97x-v/aug-cc-pvtz
|  3> #
|  4> ! wb97x-v aug-cc-pvtz def2/jk grid4 nofinalgrid
|  5> 
|  6> *xyz 0 6
|  7>   Cr  0.00000000000000      0.00000000000000      0.10659678981823
|  8>   F   0.00000000000000      0.00000000000000      1.89340321018177
|  9> *
| 10> 
| 11> %pal
| 12> nprocs 24
| 13> end
| 14> 
| 15> 
| 16>                          ****END OF INPUT****
================================================================================

                       ****************************
                       * Single Point Calculation *
                       ****************************

---------------------------------
CARTESIAN COORDINATES (ANGSTROEM)
---------------------------------
  Cr     0.000000    0.000000    0.106597
  F      0.000000    0.000000    1.893403

----------------------------
CARTESIAN COORDINATES (A.U.)
----------------------------
  NO LB      ZA    FRAG     MASS         X           Y           Z
   0 Cr   24.0000    0    52.000    0.000000    0.000000    0.201439
   1 F     9.0000    0    18.998    0.000000    0.000000    3.578014

--------------------------------
INTERNAL COORDINATES (ANGSTROEM)
--------------------------------
 Cr     0   0   0     0.000000000000     0.00000000     0.00000000
 F      1   0   0     1.786806420364     0.00000000     0.00000000

---------------------------
INTERNAL COORDINATES (A.U.)
---------------------------
 Cr     0   0   0     0.000000000000     0.00000000     0.00000000
 F      1   0   0     3.376574788819     0.00000000     0.00000000

---------------------
BASIS SET INFORMATION
---------------------
There are 2 groups of distinct atoms

 Group   1 Type Cr  : 116s77p23d3f2g contracted to 8s7p5d3f2g pattern {19191919191911/151515151511/77711/111/11}
 Group   2 Type F   : 19s6p3d2f contracted to 5s4p3d2f pattern {88111/3111/111/11}

Atom   0Cr   basis set group =>   1
Atom   1F    basis set group =>   2
----------------------------------
AUXILIARY/JK BASIS SET INFORMATION
----------------------------------
There are 2 groups of distinct atoms

 Group   1 Type Cr  : 19s14p12d10f7g3h1i contracted to 16s13p11d9f5g3h1i pattern {4111111111111111/2111111111111/21111111111/211111111/31111/111/1}
 Group   2 Type F   : 14s10p6d2f1g contracted to 10s8p4d2f1g pattern {5111111111/31111111/3111/11/1}

Atom   0Cr   basis set group =>   1
Atom   1F    basis set group =>   2


           ************************************************************
           *        Program running with 24 parallel MPI-processes    *
           *              working on a common directory               *
           ************************************************************
------------------------------------------------------------------------------
                           ORCA GTO INTEGRAL CALCULATION
------------------------------------------------------------------------------

                         BASIS SET STATISTICS AND STARTUP INFO

 # of primitive gaussian shells          ...  251
 # of primitive gaussian functions       ...  567
 # of contracted shells                  ...   39
 # of contracted basis functions         ...  139
 Highest angular momentum                ...    4
 Maximum contraction depth               ...   19
 Integral package used                   ... LIBINT
 Integral threshhold            Thresh   ...  1.000e-10
 Primitive cut-off              TCut     ...  1.000e-11


------------------------------ INTEGRAL EVALUATION ----------------------------


 * One electron integrals 
 Pre-screening matrix                    ... done
 Shell pair data                         ... done (   0.001 sec)



           ************************************************************
           *        Program running with 24 parallel MPI-processes    *
           *              working on a common directory               *
           ************************************************************
-------------------------------------------------------------------------------
                                 ORCA SCF
-------------------------------------------------------------------------------

------------
SCF SETTINGS
------------
Hamiltonian:
 Density Functional     Method          .... DFT(GTOs)
 Exchange Functional    Exchange        .... WB97X-V
 Correlation Functional Correlation     .... WB97X-V
 Gradients option       PostSCFGGA      .... off
 Hybrid DFT is turned on
   Fraction HF Exchange ScalHFX         ....  0.167000
   Scaling of DF-GGA-X  ScalDFX         ....  0.000000
   Scaling of DF-GGA-C  ScalDFC         ....  1.000000
   Scaling of DF-LDA-C  ScalLDAC        ....  1.000000
   Perturbative correction              ....  0.000000
   Density functional embedding theory  .... OFF
 Long-range corrected/Screened/Range-Separated Hybrid DFT is turned on
   Amount of maximum screened exact exchange              ....  0.833000
   Range separation parameter mu (erf(mu*r12)/r12)        ....  0.300000
   NL short-range parameter             ....  6.000000
   NL long-range parameter              ....  0.010000


General Settings:
 Integral files         IntName         .... 20_CrF
 Hartree-Fock type      HFTyp           .... UHF
 Total Charge           Charge          ....    0
 Multiplicity           Mult            ....    6
 Number of Electrons    NEL             ....   33
 Basis Dimension        Dim             ....  139
 Nuclear Repulsion      ENuc            ....     63.9701512655 Eh

Convergence Acceleration:
 DIIS                   CNVDIIS         .... on
   Start iteration      DIISMaxIt       ....    12
   Startup error        DIISStart       ....  0.200000
   # of expansion vecs  DIISMaxEq       ....     5
   Bias factor          DIISBfac        ....   1.050
   Max. coefficient     DIISMaxC        ....  10.000
 Newton-Raphson         CNVNR           .... off
 SOSCF                  CNVSOSCF        .... off
 Level Shifting         CNVShift        .... on
   Level shift para.    LevelShift      ....    0.2500
   Turn off err/grad.   ShiftErr        ....    0.0010
 Zerner damping         CNVZerner       .... off
 Static damping         CNVDamp         .... on
   Fraction old density DampFac         ....    0.7000
   Max. Damping (<1)    DampMax         ....    0.9800
   Min. Damping (>=0)   DampMin         ....    0.0000
   Turn off err/grad.   DampErr         ....    0.1000
 Fernandez-Rico         CNVRico         .... off

SCF Procedure:
 Maximum # iterations   MaxIter         ....   125
 SCF integral mode      SCFMode         .... Direct
   Integral package                     .... LIBINT
 Reset frequency        DirectResetFreq ....    20
 Integral Threshold     Thresh          ....  1.000e-10 Eh
 Primitive CutOff       TCut            ....  1.000e-11 Eh

Convergence Tolerance:
 Convergence Check Mode ConvCheckMode   .... Total+1el-Energy
 Convergence forced     ConvForced      .... 0
 Energy Change          TolE            ....  1.000e-06 Eh
 1-El. energy change                    ....  1.000e-03 Eh
 DIIS Error             TolErr          ....  1.000e-06


Diagonalization of the overlap matrix:
Smallest eigenvalue                        ... 8.925e-05
Time for diagonalization                   ...    0.005 sec
Threshold for overlap eigenvalues          ... 1.000e-08
Number of eigenvalues below threshold      ... 0
Time for construction of square roots      ...    0.002 sec
Total time needed                          ...    0.007 sec

-------------------
DFT GRID GENERATION
-------------------

General Integration Accuracy     IntAcc      ...  4.670
Radial Grid Type                 RadialGrid  ... Gauss-Chebyshev
Angular Grid (max. acc.)         AngularGrid ... Lebedev-302
Angular grid pruning method      GridPruning ... 3 (G Style)
Weight generation scheme         WeightScheme... Becke
Basis function cutoff            BFCut       ...    1.0000e-10
Integration weight cutoff        WCut        ...    1.0000e-14
Grids for H and He will be reduced by one unit

# of grid points (after initial pruning)     ...  15936 (   0.0 sec)
# of grid points (after weights+screening)   ...  15887 (   0.0 sec)
nearest neighbour list constructed           ...    0.0 sec
Grid point re-assignment to atoms done       ...    0.0 sec
Grid point division into batches done        ...    0.1 sec
Reduced shell lists constructed in    0.1 sec

Total number of grid points                  ...    15887
Total number of batches                      ...      250
Average number of points per batch           ...       63
Average number of grid points per atom       ...     7944
Average number of shells per batch           ...    14.42 (36.97%)
Average number of basis functions per batch  ...    37.92 (27.28%)
Average number of large shells per batch     ...     8.25 (57.23%)
Average number of large basis fcns per batch ...    22.92 (60.44%)
Maximum spatial batch extension              ...  28.57, 31.41, 18.50 au
Average spatial batch extension              ...   0.88,  0.94,  0.67 au

Time for grid setup =    0.153 sec

------------------------------
INITIAL GUESS: MODEL POTENTIAL
------------------------------
Loading Hartree-Fock densities                     ... done
Calculating cut-offs                               ... done
Setting up the integral package                    ... done
Initializing the effective Hamiltonian             ... done
Starting the Coulomb interaction                   ... done (   0.0 sec)
Reading the grid                                   ... done
Mapping shells                                     ... done
Starting the XC term evaluation                    ... done (   0.0 sec)
  promolecular density results
     # of electrons  =     33.000003309
     EX              =    -43.021848131
     EC              =     -1.782597640
     EX+EC           =    -44.804445770
Transforming the Hamiltonian                       ... done (   0.0 sec)
Diagonalizing the Hamiltonian                      ... done (   0.0 sec)
Back transforming the eigenvectors                 ... done (   0.0 sec)
Now organizing SCF variables                       ... done
                      ------------------
                      INITIAL GUESS DONE (   0.2 sec)
                      ------------------
--------------
SCF ITERATIONS
--------------
ITER       Energy         Delta-E        Max-DP      RMS-DP      [F,P]     Damp
               ***  Starting incremental Fock matrix formation  ***
  0  -1139.0614092769   0.000000000000 2.05308397  0.04353899  1.0431507 0.7000
  1  -1141.1359376114  -2.074528334413 2.21087073  0.02537637  0.5543265 0.7000
  2  -1142.2226246410  -1.086687029605 1.59177867  0.01807347  0.2958932 0.7000
  3  -1142.8713337809  -0.648709139942 1.13286508  0.01276501  0.2167919 0.7000
                               ***Turning on DIIS***
  4  -1143.3045839569  -0.433250176011 0.80790906  0.00901363  0.1477240 0.7000
  5  -1143.6090725063  -0.304488549426 0.57441486  0.00633785  0.1293174 0.7000
  6  -1143.8256849113  -0.216612405000 1.35805434  0.01489987  0.0794796 0.0000
  7  -1144.3491879047  -0.523502993347 0.03456835  0.00054425  0.0133622 0.0000
  8  -1144.3511921114  -0.002004206666 0.02537114  0.00028784  0.0098130 0.0000
  9  -1144.3524380460  -0.001245934664 0.01735240  0.00019069  0.0069295 0.0000
 10  -1144.3530663221  -0.000628276035 0.01801589  0.00017320  0.0063952 0.0000
 11  -1144.3535734261  -0.000507104010 0.01837651  0.00014074  0.0062451 0.0000
 12  -1144.3539513037  -0.000377877594 0.02249762  0.00019835  0.0046578 0.0000
 13  -1144.3542979110  -0.000346607382 0.01571231  0.00011755  0.0041851 0.0000
 14  -1144.3544810635  -0.000183152419 0.01939943  0.00014838  0.0030113 0.0000
 15  -1144.3546374136  -0.000156350124 0.01176566  0.00009343  0.0023415 0.0000
 16  -1144.3547118950  -0.000074481385 0.01241841  0.00009612  0.0014684 0.0000
 17  -1144.3547608822  -0.000048987220 0.00741720  0.00006156  0.0012140 0.0000
 18  -1144.3547794855  -0.000018603275 0.00837618  0.00007215  0.0006644 0.0000
 19  -1144.3547873479  -0.000007862471 0.00118309  0.00000989  0.0001543 0.0000
               *** Restarting incremental Fock matrix formation ***
                                   *** Resetting DIIS ***
 20  -1144.3547876721  -0.000000324210 0.00026662  0.00000581  0.0000836 0.0000
 21  -1144.3547877138  -0.000000041627 0.00016005  0.00000320  0.0000821 0.0000
                 **** Energy Check signals convergence ****

               *****************************************************
               *                     SUCCESS                       *
               *           SCF CONVERGED AFTER  22 CYCLES          *
               *****************************************************


Setting up the DFT-NL grid :

General Integration Accuracy     IntAcc      ...  4.340
Radial Grid Type                 RadialGrid  ... Gauss-Chebyshev
Angular Grid (max. acc.)         AngularGrid ... Lebedev-110
Angular grid pruning method      GridPruning ... 3 (G Style)
Weight generation scheme         WeightScheme... Becke
Basis function cutoff            BFCut       ...    1.0000e-10
Integration weight cutoff        WCut        ...    1.0000e-14
Grids for H and He will be reduced by one unit

# of grid points (after initial pruning)     ...   4712 (   0.0 sec)
# of grid points (after weights+screening)   ...   4687 (   0.0 sec)
nearest neighbour list constructed           ...    0.0 sec
Grid point re-assignment to atoms done       ...    0.0 sec
Grid point division into batches done        ...    0.0 sec
Reduced shell lists constructed in    0.0 sec

Total number of grid points                  ...     4687
Total number of batches                      ...       75
Average number of points per batch           ...       62
Average number of grid points per atom       ...     2344
Average number of shells per batch           ...    21.60 (55.38%)
Average number of basis functions per batch  ...    65.60 (47.19%)
Average number of large shells per batch     ...    14.40 (66.67%)
Average number of large basis fcns per batch ...    41.60 (63.41%)
Maximum spatial batch extension              ...  18.98, 28.73, 15.95 au
Average spatial batch extension              ...   0.94,  1.29,  0.85 au

Final grid set up in    0.0 sec

-------------------------------------------------------------------------------
                         DFT-NL dispersion correction                          
-------------------------------------------------------------------------------

SC Energy -1144.354787734 
NL    Energy 0.139162474 
SC+NL Energy -1144.215625260 
NL done in    0.0 sec
-------------------------------------------------------------------------------

----------------
TOTAL SCF ENERGY
----------------

Total Energy       :        -1144.21562526 Eh          -31135.69007 eV

Components:
Nuclear Repulsion  :           63.97015127 Eh            1740.71631 eV
Electronic Energy  :        -1208.18577653 Eh          -32876.40638 eV
One Electron Energy:        -1705.64720841 Eh          -46413.02013 eV
Two Electron Energy:          497.46143188 Eh           13536.61375 eV

Virial components:
Potential Energy   :        -2286.46253693 Eh          -62217.80872 eV
Kinetic Energy     :         1142.24691167 Eh           31082.11865 eV
Virial Ratio       :            2.00172354


DFT components:
N(Alpha)           :       19.000008761961 electrons
N(Beta)            :       14.000008565243 electrons
N(Total)           :       33.000017327204 electrons
E(X)               :      -43.349122500823 Eh       
E(C)               :       -1.745761873535 Eh       
NL Energy, E(C,NL) :        0.139162473985 Eh       
E(XC)              :      -44.955721900373 Eh       
DFET-embed. en.    :        0.000000000000 Eh       

---------------
SCF CONVERGENCE
---------------

  Last Energy change         ...   -1.9751e-08  Tolerance :   1.0000e-06
  Last MAX-Density change    ...    7.7576e-05  Tolerance :   1.0000e-05
  Last RMS-Density change    ...    1.1718e-06  Tolerance :   1.0000e-06
  Last DIIS Error            ...    2.9364e-05  Tolerance :   1.0000e-06

             **** THE GBW FILE WAS UPDATED (20_CrF.gbw) ****
             **** DENSITY FILE WAS UPDATED (20_CrF.scfp) ****
             **** ENERGY FILE WAS UPDATED (20_CrF.en.tmp) ****
----------------------
UHF SPIN CONTAMINATION
----------------------

Warning: in a DFT calculation there is little theoretical justification to 
         calculate <S**2> as in Hartree-Fock theory. We will do it anyways
         but you should keep in mind that the values have only limited relevance

Expectation value of <S**2>     :     8.757379
Ideal value S*(S+1) for S=2.5   :     8.750000
Deviation                       :     0.007379

             **** THE GBW FILE WAS UPDATED (20_CrF.gbw) ****
             **** DENSITY FILE WAS UPDATED (20_CrF.scfp) ****
----------------
ORBITAL ENERGIES
----------------
                 SPIN UP ORBITALS
  NO   OCC          E(Eh)            E(eV) 
   0   1.0000    -215.608489     -5867.0053 
   1   1.0000     -24.741916      -673.2618 
   2   1.0000     -24.671392      -671.3427 
   3   1.0000     -21.024090      -572.0946 
   4   1.0000     -21.021883      -572.0345 
   5   1.0000     -21.021883      -572.0345 
   6   1.0000      -3.034674       -82.5777 
   7   1.0000      -1.992099       -54.2078 
   8   1.0000      -1.986896       -54.0662 
   9   1.0000      -1.986896       -54.0662 
  10   1.0000      -1.199529       -32.6408 
  11   1.0000      -0.490597       -13.3498 
  12   1.0000      -0.476852       -12.9758 
  13   1.0000      -0.476852       -12.9758 
  14   1.0000      -0.351189        -9.5563 
  15   1.0000      -0.351188        -9.5563 
  16   1.0000      -0.338082        -9.1997 
  17   1.0000      -0.338082        -9.1997 
  18   1.0000      -0.287853        -7.8329 
  19   0.0000      -0.011233        -0.3057 
  20   0.0000       0.016558         0.4506 
  21   0.0000       0.016558         0.4506 
  22   0.0000       0.030216         0.8222 
  23   0.0000       0.033637         0.9153 
  24   0.0000       0.060089         1.6351 
  25   0.0000       0.060089         1.6351 
  26   0.0000       0.076252         2.0749 
  27   0.0000       0.076252         2.0749 
  28   0.0000       0.079042         2.1508 
  29   0.0000       0.081971         2.2306 
  30   0.0000       0.081971         2.2306 
  31   0.0000       0.118360         3.2208 
  32   0.0000       0.164073         4.4646 
  33   0.0000       0.205693         5.5972 
  34   0.0000       0.205693         5.5972 
  35   0.0000       0.257262         7.0004 
  36   0.0000       0.268694         7.3115 
  37   0.0000       0.268694         7.3115 
  38   0.0000       0.292435         7.9576 
  39   0.0000       0.292435         7.9576 
  40   0.0000       0.299300         8.1444 
  41   0.0000       0.302223         8.2239 
  42   0.0000       0.302223         8.2239 
  43   0.0000       0.351159         9.5555 
  44   0.0000       0.538665        14.6578 
  45   0.0000       0.609042        16.5729 
  46   0.0000       0.609042        16.5729 
  47   0.0000       0.616325        16.7711 
  48   0.0000       0.616325        16.7711 
  49   0.0000       0.684969        18.6389 
  50   0.0000       0.684969        18.6389 
  51   0.0000       0.710955        19.3461 
  52   0.0000       0.721610        19.6360 
  53   0.0000       0.721610        19.6360 
  54   0.0000       0.755854        20.5678 
  55   0.0000       0.894443        24.3390 
  56   0.0000       0.894444        24.3390 
  57   0.0000       0.905061        24.6280 
  58   0.0000       0.905061        24.6280 
  59   0.0000       1.008038        27.4301 
  60   0.0000       1.023371        27.8473 
  61   0.0000       1.023374        27.8474 
  62   0.0000       1.102166        29.9915 
  63   0.0000       1.102166        29.9915 
  64   0.0000       1.215625        33.0788 
  65   0.0000       1.443445        39.2781 
  66   0.0000       1.461380        39.7662 
  67   0.0000       1.461380        39.7662 
  68   0.0000       1.726907        46.9915 
  69   0.0000       1.849205        50.3194 
  70   0.0000       1.849208        50.3195 
  71   0.0000       1.864230        50.7283 
  72   0.0000       1.864230        50.7283 
  73   0.0000       1.913107        52.0583 
  74   0.0000       1.913107        52.0583 
  75   0.0000       1.945951        52.9520 
  76   0.0000       2.240679        60.9720 
  77   0.0000       2.240679        60.9720 
  78   0.0000       2.264427        61.6182 
  79   0.0000       2.264433        61.6183 
  80   0.0000       2.278081        61.9897 
  81   0.0000       2.278087        61.9899 
  82   0.0000       2.319522        63.1174 
  83   0.0000       2.365319        64.3636 
  84   0.0000       2.365319        64.3636 
  85   0.0000       2.486679        67.6660 
  86   0.0000       2.486679        67.6660 
  87   0.0000       2.635573        71.7176 
  88   0.0000       2.663620        72.4808 
  89   0.0000       2.780326        75.6565 
  90   0.0000       2.780347        75.6571 
  91   0.0000       2.864908        77.9581 
  92   0.0000       2.864908        77.9581 
  93   0.0000       3.071417        83.5775 
  94   0.0000       3.071417        83.5775 
  95   0.0000       3.183666        86.6320 
  96   0.0000       3.234394        88.0123 
  97   0.0000       3.234435        88.0135 
  98   0.0000       3.404033        92.6284 
  99   0.0000       3.404035        92.6285 
 100   0.0000       3.514794        95.6424 
 101   0.0000       3.514794        95.6424 
 102   0.0000       3.634814        98.9083 
 103   0.0000       3.802370       103.4677 
 104   0.0000       3.802370       103.4677 
 105   0.0000       4.437231       120.7432 
 106   0.0000       5.052576       137.4876 
 107   0.0000       5.052576       137.4876 
 108   0.0000       5.439334       148.0118 
 109   0.0000       6.226913       169.4429 
 110   0.0000       6.226913       169.4429 
 111   0.0000       6.230756       169.5475 
 112   0.0000       6.230765       169.5477 
 113   0.0000       6.412566       174.4948 
 114   0.0000       6.412566       174.4948 
 115   0.0000       6.529530       177.6775 
 116   0.0000       6.703313       182.4064 
 117   0.0000       6.703313       182.4064 
 118   0.0000       6.703506       182.4117 
 119   0.0000       6.703537       182.4125 
 120   0.0000       6.788802       184.7327 
 121   0.0000       6.788803       184.7327 
 122   0.0000       6.954055       189.2295 
 123   0.0000       6.954055       189.2295 
 124   0.0000       7.068992       192.3571 
 125   0.0000       7.919931       215.5123 
 126   0.0000       8.480144       230.7565 
 127   0.0000       8.480144       230.7565 
 128   0.0000       8.612890       234.3687 
 129   0.0000       8.613069       234.3735 
 130   0.0000       8.916719       242.6363 
 131   0.0000       8.916853       242.6399 
 132   0.0000       8.916853       242.6399 
 133   0.0000       8.917186       242.6490 
 134   0.0000       8.938100       243.2181 
 135   0.0000       9.066996       246.7255 
 136   0.0000       9.066996       246.7255 
 137   0.0000       9.301792       253.1146 
 138   0.0000      13.258985       360.7953 

                 SPIN DOWN ORBITALS
  NO   OCC          E(Eh)            E(eV) 
   0   1.0000    -215.607275     -5866.9722 
   1   1.0000     -24.682416      -671.6427 
   2   1.0000     -24.670995      -671.3319 
   3   1.0000     -20.981061      -570.9237 
   4   1.0000     -20.970607      -570.6392 
   5   1.0000     -20.970607      -570.6392 
   6   1.0000      -2.869652       -78.0872 
   7   1.0000      -1.827125       -49.7186 
   8   1.0000      -1.798693       -48.9449 
   9   1.0000      -1.798693       -48.9449 
  10   1.0000      -1.196817       -32.5671 
  11   1.0000      -0.486707       -13.2440 
  12   1.0000      -0.458901       -12.4873 
  13   1.0000      -0.458901       -12.4873 
  14   0.0000       0.005276         0.1436 
  15   0.0000       0.030471         0.8292 
  16   0.0000       0.030471         0.8292 
  17   0.0000       0.033087         0.9003 
  18   0.0000       0.048173         1.3109 
  19   0.0000       0.078505         2.1362 
  20   0.0000       0.085292         2.3209 
  21   0.0000       0.085301         2.3211 
  22   0.0000       0.087206         2.3730 
  23   0.0000       0.087206         2.3730 
  24   0.0000       0.101688         2.7671 
  25   0.0000       0.101688         2.7671 
  26   0.0000       0.105160         2.8616 
  27   0.0000       0.129247         3.5170 
  28   0.0000       0.129248         3.5170 
  29   0.0000       0.137459         3.7404 
  30   0.0000       0.137459         3.7404 
  31   0.0000       0.149176         4.0593 
  32   0.0000       0.201586         5.4854 
  33   0.0000       0.259733         7.0677 
  34   0.0000       0.259733         7.0677 
  35   0.0000       0.298625         8.1260 
  36   0.0000       0.305545         8.3143 
  37   0.0000       0.305545         8.3143 
  38   0.0000       0.315376         8.5818 
  39   0.0000       0.328623         8.9423 
  40   0.0000       0.328625         8.9423 
  41   0.0000       0.339466         9.2373 
  42   0.0000       0.339466         9.2373 
  43   0.0000       0.375038        10.2053 
  44   0.0000       0.564178        15.3521 
  45   0.0000       0.652290        17.7497 
  46   0.0000       0.652290        17.7497 
  47   0.0000       0.675719        18.3872 
  48   0.0000       0.675719        18.3872 
  49   0.0000       0.740635        20.1537 
  50   0.0000       0.740635        20.1537 
  51   0.0000       0.761982        20.7346 
  52   0.0000       0.770717        20.9723 
  53   0.0000       0.770717        20.9723 
  54   0.0000       0.801272        21.8037 
  55   0.0000       0.971586        26.4382 
  56   0.0000       0.971586        26.4382 
  57   0.0000       0.971984        26.4490 
  58   0.0000       0.971984        26.4490 
  59   0.0000       1.013456        27.5775 
  60   0.0000       1.046087        28.4655 
  61   0.0000       1.046089        28.4655 
  62   0.0000       1.107775        30.1441 
  63   0.0000       1.107775        30.1441 
  64   0.0000       1.266765        34.4704 
  65   0.0000       1.451190        39.4889 
  66   0.0000       1.488824        40.5130 
  67   0.0000       1.488824        40.5130 
  68   0.0000       1.793874        48.8138 
  69   0.0000       1.932901        52.5969 
  70   0.0000       1.932902        52.5969 
  71   0.0000       1.959024        53.3077 
  72   0.0000       1.959024        53.3077 
  73   0.0000       1.970223        53.6125 
  74   0.0000       1.970223        53.6125 
  75   0.0000       1.999564        54.4109 
  76   0.0000       2.292272        62.3759 
  77   0.0000       2.292272        62.3759 
  78   0.0000       2.318156        63.0802 
  79   0.0000       2.318162        63.0804 
  80   0.0000       2.329728        63.3951 
  81   0.0000       2.329729        63.3952 
  82   0.0000       2.369690        64.4826 
  83   0.0000       2.427328        66.0510 
  84   0.0000       2.427328        66.0510 
  85   0.0000       2.553829        69.4932 
  86   0.0000       2.553829        69.4932 
  87   0.0000       2.673982        72.7628 
  88   0.0000       2.693352        73.2898 
  89   0.0000       2.785403        75.7947 
  90   0.0000       2.785427        75.7953 
  91   0.0000       2.870114        78.0998 
  92   0.0000       2.870114        78.0998 
  93   0.0000       3.082442        83.8775 
  94   0.0000       3.082442        83.8775 
  95   0.0000       3.220600        87.6370 
  96   0.0000       3.252966        88.5177 
  97   0.0000       3.253007        88.5188 
  98   0.0000       3.527359        95.9843 
  99   0.0000       3.527363        95.9844 
 100   0.0000       3.632688        98.8505 
 101   0.0000       3.632688        98.8505 
 102   0.0000       3.666544        99.7717 
 103   0.0000       3.832405       104.2851 
 104   0.0000       3.832405       104.2851 
 105   0.0000       4.500820       122.4735 
 106   0.0000       5.056771       137.6017 
 107   0.0000       5.056771       137.6017 
 108   0.0000       5.456698       148.4843 
 109   0.0000       6.371419       173.3751 
 110   0.0000       6.371419       173.3751 
 111   0.0000       6.384989       173.7444 
 112   0.0000       6.384997       173.7446 
 113   0.0000       6.537231       177.8871 
 114   0.0000       6.537231       177.8871 
 115   0.0000       6.628393       180.3677 
 116   0.0000       6.819611       185.5711 
 117   0.0000       6.819646       185.5720 
 118   0.0000       6.823440       185.6752 
 119   0.0000       6.823440       185.6752 
 120   0.0000       6.897956       187.7029 
 121   0.0000       6.897957       187.7029 
 122   0.0000       7.051557       191.8826 
 123   0.0000       7.051557       191.8826 
 124   0.0000       7.155442       194.7095 
 125   0.0000       8.023866       218.3405 
 126   0.0000       8.483609       230.8507 
 127   0.0000       8.483609       230.8507 
 128   0.0000       8.613822       234.3940 
 129   0.0000       8.614008       234.3991 
 130   0.0000       8.917093       242.6464 
 131   0.0000       8.917093       242.6464 
 132   0.0000       8.921853       242.7760 
 133   0.0000       8.922315       242.7885 
 134   0.0000       8.940679       243.2882 
 135   0.0000       9.067288       246.7335 
 136   0.0000       9.067288       246.7335 
 137   0.0000       9.303866       253.1711 
 138   0.0000      13.267355       361.0231 

                    ********************************
                    * MULLIKEN POPULATION ANALYSIS *
                    ********************************

--------------------------------------------
MULLIKEN ATOMIC CHARGES AND SPIN POPULATIONS
--------------------------------------------
   0 Cr:    0.614930    4.991678
   1 F :   -0.614930    0.008322
Sum of atomic charges         :    0.0000000
Sum of atomic spin populations:    5.0000000

-----------------------------------------------------
MULLIKEN REDUCED ORBITAL CHARGES AND SPIN POPULATIONS
-----------------------------------------------------
CHARGE
  0 Crs       :     6.652824  s :     6.652824
      pz      :     4.039405  p :    12.121266
      px      :     4.040931
      py      :     4.040931
      dz2     :     0.551065  d :     4.583622
      dxz     :     1.016887
      dyz     :     1.016887
      dx2y2   :     0.999391
      dxy     :     0.999391
      f0      :     0.007135  f :     0.022013
      f+1     :     0.007200
      f-1     :     0.007200
      f+2     :     0.000239
      f-2     :     0.000239
      f+3     :     0.000000
      f-3     :     0.000000
      g0      :     0.002230  g :     0.005344
      g+1     :     0.001557
      g-1     :     0.001557
      g+2     :     0.000001
      g-2     :     0.000001
      g+3     :     0.000000
      g-3     :     0.000000
      g+4     :     0.000000
      g-4     :     0.000000
  1 F s       :     3.981040  s :     3.981040
      pz      :     1.763102  p :     5.622976
      px      :     1.929937
      py      :     1.929937
      dz2     :     0.002513  d :     0.009018
      dxz     :     0.002951
      dyz     :     0.002951
      dx2y2   :     0.000302
      dxy     :     0.000302
      f0      :     0.000686  f :     0.001896
      f+1     :     0.000538
      f-1     :     0.000538
      f+2     :     0.000067
      f-2     :     0.000067
      f+3     :     0.000000
      f-3     :     0.000000

SPIN
  0 Crs       :     0.597943  s :     0.597943
      pz      :     0.018091  p :     0.068938
      px      :     0.025423
      py      :     0.025423
      dz2     :     0.424151  d :     4.324911
      dxz     :     0.950989
      dyz     :     0.950989
      dx2y2   :     0.999391
      dxy     :     0.999391
      f0      :    -0.000023  f :     0.000180
      f+1     :    -0.000138
      f-1     :    -0.000138
      f+2     :     0.000239
      f-2     :     0.000239
      f+3     :    -0.000000
      f-3     :    -0.000000
      g0      :    -0.000270  g :    -0.000294
      g+1     :    -0.000012
      g-1     :    -0.000012
      g+2     :     0.000001
      g-2     :     0.000001
      g+3     :    -0.000000
      g-3     :    -0.000000
      g+4     :    -0.000000
      g-4     :     0.000000
  1 F s       :    -0.002657  s :    -0.002657
      pz      :    -0.037392  p :     0.009303
      px      :     0.023347
      py      :     0.023347
      dz2     :     0.000130  d :     0.000979
      dxz     :     0.000122
      dyz     :     0.000122
      dx2y2   :     0.000302
      dxy     :     0.000302
      f0      :     0.000028  f :     0.000698
      f+1     :     0.000268
      f-1     :     0.000268
      f+2     :     0.000067
      f-2     :     0.000067
      f+3     :    -0.000000
      f-3     :    -0.000000


                     *******************************
                     * LOEWDIN POPULATION ANALYSIS *
                     *******************************

-------------------------------------------
LOEWDIN ATOMIC CHARGES AND SPIN POPULATIONS
-------------------------------------------
   0 Cr:    0.400548    4.864130
   1 F :   -0.400548    0.135870

----------------------------------------------------
LOEWDIN REDUCED ORBITAL CHARGES AND SPIN POPULATIONS
----------------------------------------------------
CHARGE
  0 Crs       :     6.467264  s :     6.467264
      pz      :     4.074226  p :    12.168996
      px      :     4.047385
      py      :     4.047385
      dz2     :     0.651513  d :     4.669658
      dxz     :     1.013787
      dyz     :     1.013787
      dx2y2   :     0.995285
      dxy     :     0.995285
      f0      :     0.100421  f :     0.239859
      f+1     :     0.069198
      f-1     :     0.069198
      f+2     :     0.000522
      f-2     :     0.000522
      f+3     :     0.000000
      f-3     :     0.000000
      g0      :     0.023028  g :     0.053674
      g+1     :     0.015293
      g-1     :     0.015293
      g+2     :     0.000030
      g-2     :     0.000030
      g+3     :     0.000000
      g-3     :     0.000000
      g+4     :     0.000000
      g-4     :     0.000000
  1 F s       :     3.685076  s :     3.685076
      pz      :     1.877950  p :     5.483685
      px      :     1.802867
      py      :     1.802867
      dz2     :     0.101269  d :     0.191878
      dxz     :     0.042137
      dyz     :     0.042137
      dx2y2   :     0.003167
      dxy     :     0.003167
      f0      :     0.019253  f :     0.039910
      f+1     :     0.009333
      f-1     :     0.009333
      f+2     :     0.000995
      f-2     :     0.000995
      f+3     :     0.000000
      f-3     :     0.000000

SPIN
  0 Crs       :     0.553177  s :     0.553177
      pz      :     0.018924  p :     0.097971
      px      :     0.039524
      py      :     0.039524
      dz2     :     0.404142  d :     4.196192
      dxz     :     0.900739
      dyz     :     0.900739
      dx2y2   :     0.995285
      dxy     :     0.995285
      f0      :     0.000288  f :     0.014548
      f+1     :     0.006608
      f-1     :     0.006608
      f+2     :     0.000522
      f-2     :     0.000522
      f+3     :    -0.000000
      f-3     :    -0.000000
      g0      :    -0.000738  g :     0.002243
      g+1     :     0.001460
      g-1     :     0.001460
      g+2     :     0.000030
      g-2     :     0.000030
      g+3     :    -0.000000
      g-3     :    -0.000000
      g+4     :    -0.000000
      g-4     :     0.000000
  1 F s       :     0.015540  s :     0.015540
      pz      :     0.007057  p :     0.048940
      px      :     0.020941
      py      :     0.020941
      dz2     :     0.000232  d :     0.055051
      dxz     :     0.024242
      dyz     :     0.024242
      dx2y2   :     0.003167
      dxy     :     0.003167
      f0      :     0.001378  f :     0.016339
      f+1     :     0.006485
      f-1     :     0.006485
      f+2     :     0.000995
      f-2     :     0.000995
      f+3     :    -0.000000
      f-3     :    -0.000000


                      *****************************
                      * MAYER POPULATION ANALYSIS *
                      *****************************

  NA   - Mulliken gross atomic population
  ZA   - Total nuclear charge
  QA   - Mulliken gross atomic charge
  VA   - Mayer's total valence
  BVA  - Mayer's bonded valence
  FA   - Mayer's free valence

  ATOM       NA         ZA         QA         VA         BVA        FA
  0 Cr    23.3851    24.0000     0.6149     5.5997     0.7016     4.8982
  1 F      9.6149     9.0000    -0.6149     0.7048     0.7016     0.0032

  Mayer bond orders larger than 0.100000
B(  0-Cr,  1-F ) :   0.7016 

-------
TIMINGS
-------

Total SCF time: 0 days 0 hours 4 min 41 sec 

Total time                  ....     281.495 sec
Sum of individual times     ....     281.110 sec  ( 99.9%)

Fock matrix formation       ....     280.674 sec  ( 99.7%)
  XC integration            ....       0.528 sec  (  0.2% of F)
    Basis function eval.    ....       0.109 sec  ( 20.6% of XC)
    Density eval.           ....       0.058 sec  ( 11.0% of XC)
    XC-Functional eval.     ....       0.026 sec  (  4.9% of XC)
    XC-Potential eval.      ....       0.149 sec  ( 28.2% of XC)
Diagonalization             ....       0.113 sec  (  0.0%)
Density matrix formation    ....       0.015 sec  (  0.0%)
Population analysis         ....       0.007 sec  (  0.0%)
Initial guess               ....       0.097 sec  (  0.0%)
Orbital Transformation      ....       0.000 sec  (  0.0%)
Orbital Orthonormalization  ....       0.000 sec  (  0.0%)
DIIS solution               ....       0.037 sec  (  0.0%)
Grid generation             ....       0.167 sec  (  0.1%)

-------------------------   --------------------
FINAL SINGLE POINT ENERGY     -1144.215625259538
-------------------------   --------------------


                            ***************************************
                            *     ORCA property calculations      *
                            ***************************************

                                    ---------------------
                                    Active property flags
                                    ---------------------
   (+) Dipole Moment


------------------------------------------------------------------------------
                       ORCA ELECTRIC PROPERTIES CALCULATION
------------------------------------------------------------------------------

Dipole Moment Calculation                       ... on
Quadrupole Moment Calculation                   ... off
Polarizability Calculation                      ... off
GBWName                                         ... 20_CrF.gbw
Electron density file                           ... 20_CrF.scfp
The origin for moment calculation is the CENTER OF MASS  = ( 0.000000,  0.000000  1.104960)

-------------
DIPOLE MOMENT
-------------
                                X             Y             Z
Electronic contribution:     -0.00000      -0.00000      -2.27080
Nuclear contribution   :      0.00000       0.00000       0.57299
                        -----------------------------------------
Total Dipole Moment    :     -0.00000      -0.00000      -1.69781
                        -----------------------------------------
Magnitude (a.u.)       :      1.69781
Magnitude (Debye)      :      4.31549



--------------------
Rotational spectrum 
--------------------
 
Rotational constants in cm-1:     0.000000     0.379469     0.379469 
Rotational constants in MHz :     0.000000 11376.206933 11376.206933 

 Dipole components along the rotational axes: 
x,y,z [a.u.] :    -1.697809    -0.000000    -0.000000 
x,y,z [Debye]:    -4.315486    -0.000000    -0.000000 

 

Timings for individual modules:

Sum of individual times         ...      285.047 sec (=   4.751 min)
GTO integral calculation        ...        3.023 sec (=   0.050 min)   1.1 %
SCF iterations                  ...      282.024 sec (=   4.700 min)  98.9 %
                             ****ORCA TERMINATED NORMALLY****
TOTAL RUN TIME: 0 days 0 hours 4 minutes 45 seconds 642 msec
