
                                 *****************
                                 * O   R   C   A *
                                 *****************

           --- An Ab Initio, DFT and Semiempirical electronic structure package ---

                  #######################################################
                  #                        -***-                        #
                  #          Department of theory and spectroscopy      #
                  #               Directorship: Frank Neese             #
                  #        Max Planck Institute fuer Kohlenforschung    #
                  #                Kaiser Wilhelm Platz 1               #
                  #                 D-45470 Muelheim/Ruhr               #
                  #                      Germany                        #
                  #                                                     #
                  #                  All rights reserved                #
                  #                        -***-                        #
                  #######################################################


                         Program Version 4.2.0 -  RELEASE  -


 With contributions from (in alphabetic order):
   Daniel Aravena         : Magnetic Suceptibility
   Michael Atanasov       : Ab Initio Ligand Field Theory (pilot matlab implementation)
   Alexander A. Auer      : GIAO ZORA, VPT2
   Ute Becker             : Parallelization
   Giovanni Bistoni       : ED, misc. LED, open-shell LED, HFLED
   Martin Brehm           : Molecular dynamics
   Dmytro Bykov           : SCF Hessian
   Vijay G. Chilkuri      : MRCI spin determinant printing, contributions to CSF-ICE
   Dipayan Datta          : RHF DLPNO-CCSD density
   Achintya Kumar Dutta   : EOM-CC, STEOM-CC
   Dmitry Ganyushin       : Spin-Orbit,Spin-Spin,Magnetic field MRCI
   Miquel Garcia          : C-PCM Hessian, Gaussian charge scheme
   Yang Guo               : DLPNO-NEVPT2, CIM, IAO-localization
   Andreas Hansen         : Spin unrestricted coupled pair/coupled cluster methods
   Benjamin Helmich-Paris : CASSCF linear response (MC-RPA)
   Lee Huntington         : MR-EOM, pCC
   Robert Izsak           : Overlap fitted RIJCOSX, COSX-SCS-MP3, EOM
   Christian Kollmar      : KDIIS, OOCD, Brueckner-CCSD(T), CCSD density
   Simone Kossmann        : Meta GGA functionals, TD-DFT gradient, OOMP2, MP2 Hessian
   Martin Krupicka        : AUTO-CI
   Lucas Lang             : DCDCAS
   Dagmar Lenk            : GEPOL surface, SMD
   Dimitrios Liakos       : Extrapolation schemes; Compound Job, initial MDCI parallelization
   Dimitrios Manganas     : Further ROCIS development; embedding schemes
   Dimitrios Pantazis     : SARC Basis sets
   Taras Petrenko         : DFT Hessian,TD-DFT gradient, ASA, ECA, R-Raman, ABS, FL, XAS/XES, NRVS
   Peter Pinski           : DLPNO-MP2, DLPNO-MP2 Gradient
   Christoph Reimann      : Effective Core Potentials
   Marius Retegan         : Local ZFS, SOC
   Christoph Riplinger    : Optimizer, TS searches, QM/MM, DLPNO-CCSD(T), (RO)-DLPNO pert. Triples
   Tobias Risthaus        : Range-separated hybrids, TD-DFT gradient, RPA, STAB
   Michael Roemelt        : Original ROCIS implementation
   Masaaki Saitow         : Open-shell DLPNO-CCSD energy and density
   Barbara Sandhoefer     : DKH picture change effects
   Avijit Sen             : IP-ROCIS
   Kantharuban Sivalingam : CASSCF convergence, NEVPT2, FIC-MRCI
   Bernardo de Souza      : ESD, SOC TD-DFT
   Georgi Stoychev        : AutoAux, RI-MP2 NMR
   Willem Van den Heuvel  : Paramagnetic NMR
   Boris Wezisla          : Elementary symmetry handling
   Frank Wennmohs         : Technical directorship


 We gratefully acknowledge several colleagues who have allowed us to
 interface, adapt or use parts of their codes:
   Stefan Grimme, W. Hujo, H. Kruse,             : VdW corrections, initial TS optimization,
                  C. Bannwarth                     DFT functionals, gCP, sTDA/sTD-DF
   Ed Valeev, F. Pavosevic, A. Kumar             : LibInt (2-el integral package), F12 methods
   Garnet Chan, S. Sharma, J. Yang, R. Olivares  : DMRG
   Ulf Ekstrom                                   : XCFun DFT Library
   Mihaly Kallay                                 : mrcc  (arbitrary order and MRCC methods)
   Andreas Klamt, Michael Diedenhofen            : otool_cosmo (COSMO solvation model)
   Jiri Pittner, Ondrej Demel                    : Mk-CCSD
   Frank Weinhold                                : gennbo (NPA and NBO analysis)
   Christopher J. Cramer and Donald G. Truhlar   : smd solvation model
   Lars Goerigk                                  : TD-DFT with DH, B97 family of functionals
   V. Asgeirsson, H. Jonsson                     : NEB implementation
   FAccTs GmbH                                   : IRC, NEB, NEB-TS, Multilevel, MM, QM/MM, CI optimization
   S Lehtola, MJT Oliveira, MAL Marques          : LibXC Library


 Your calculation uses the libint2 library for the computation of 2-el integrals
 For citations please refer to: http://libint.valeyev.net

 Your ORCA version has been built with support for libXC version: 4.2.3
 For citations please refer to: https://tddft.org/programs/libxc/

 This ORCA versions uses:
   CBLAS   interface :  Fast vector & matrix operations
   LAPACKE interface :  Fast linear algebra routines
   SCALAPACK package :  Parallel linear algebra routines


Your calculation utilizes the DFT-NL dispersion correction.
Cite in your paper:
Vydrov, O. A.; Van Voorhis, T. J. Chem. Phys. 2010, 133, 244103
Hujo, W.; Grimme, S. J. Chem. Theory Comput. 2011, 7, 3866 
   

----- Orbital basis set information -----
Your calculation utilizes the basis: aug-cc-pVTZ 
    H, B-Ne : Obtained from the ccRepo (grant-hill.group.shef.ac.uk/ccrepo) Feb. 2017
              R. A. Kendall, T. H. Dunning, Jr., R. J. Harrison, J. Chem. Phys. 96, 6796 (1992)
         He : Obtained from the ccRepo (grant-hill.group.shef.ac.uk/ccrepo) Feb. 2017
              D. E. Woon, T. H. Dunning, Jr., J. Chem. Phys. 100, 2975 (1994)
  Li-Be, Na : Obtained from the ccRepo (grant-hill.group.shef.ac.uk/ccrepo) Feb. 2017
              B. P. Prascher, D. E. Woon, K. A. Peterson, T. H. Dunning, Jr., A. K. Wilson, Theor. Chem. Acc. 128, 69 (2011)
         Mg : Obtained from the Peterson Research Group Website (tyr0.chem.wsu.edu/~kipeters) Feb. 2017
              B. P. Prascher, D. E. Woon, K. A. Peterson, T. H. Dunning, Jr., A. K. Wilson, Theor. Chem. Acc. 128, 69 (2011)
      Al-Ar : Obtained from the ccRepo (grant-hill.group.shef.ac.uk/ccrepo) Feb. 2017
              D. E. Woon, T. H. Dunning, Jr., J. Chem. Phys. 98, 1358 (1993)
      Sc-Zn : Obtained from the ccRepo (grant-hill.group.shef.ac.uk/ccrepo) Feb. 2017
              N. B. Balabanov, K. A. Peterson, J. Chem. Phys. 123, 064107 (2005)
              N. B. Balabanov, K. A. Peterson, J. Chem. Phys. 125, 074110 (2006)
      Ga-Kr : Obtained from the ccRepo (grant-hill.group.shef.ac.uk/ccrepo) Feb. 2017
              A. K. Wilson, D. E. Woon, K. A. Peterson, T. H. Dunning, Jr., J. Chem. Phys. 110, 7667 (1999)
     Ag, Au : Obtained from the Peterson Research Group Website (tyr0.chem.wsu.edu/~kipeters) Feb. 2017
              K. A. Peterson, C. Puzzarini, Theor. Chem. Acc. 114, 283 (2005)

----- AuxJK basis set information -----
Your calculation utilizes the auxiliary basis: def2/JK
   H-Ba, Hf-Rn: F. Weigend, J. Comput. Chem. 29, 167 (2008).

================================================================================
                                        WARNINGS
                       Please study these warnings very carefully!
================================================================================


WARNING: your system is open-shell and RHF/RKS was chosen
  ===> : WILL SWITCH to UHF/UKS


INFO   : the flag for use of LIBINT has been found!

================================================================================
                                       INPUT FILE
================================================================================
NAME = 26_MnF.in
|  1> #
|  2> # 26_MnF wb97x-v/aug-cc-pvtz
|  3> #
|  4> ! wb97x-v aug-cc-pvtz def2/jk grid4 nofinalgrid
|  5> 
|  6> *xyz 0 7
|  7>   Mn  0.00000000000000      0.00000000000000      0.08590077209256
|  8>   F   0.00000000000000      0.00000000000000      1.91409922790744
|  9> *
| 10> 
| 11> %pal
| 12> nprocs 24
| 13> end
| 14> 
| 15> 
| 16>                          ****END OF INPUT****
================================================================================

                       ****************************
                       * Single Point Calculation *
                       ****************************

---------------------------------
CARTESIAN COORDINATES (ANGSTROEM)
---------------------------------
  Mn     0.000000    0.000000    0.085901
  F      0.000000    0.000000    1.914099

----------------------------
CARTESIAN COORDINATES (A.U.)
----------------------------
  NO LB      ZA    FRAG     MASS         X           Y           Z
   0 Mn   25.0000    0    54.940    0.000000    0.000000    0.162329
   1 F     9.0000    0    18.998    0.000000    0.000000    3.617123

--------------------------------
INTERNAL COORDINATES (ANGSTROEM)
--------------------------------
 Mn     0   0   0     0.000000000000     0.00000000     0.00000000
 F      1   0   0     1.828198455815     0.00000000     0.00000000

---------------------------
INTERNAL COORDINATES (A.U.)
---------------------------
 Mn     0   0   0     0.000000000000     0.00000000     0.00000000
 F      1   0   0     3.454794399948     0.00000000     0.00000000

---------------------
BASIS SET INFORMATION
---------------------
There are 2 groups of distinct atoms

 Group   1 Type Mn  : 116s77p23d3f2g contracted to 8s7p5d3f2g pattern {19191919191911/151515151511/77711/111/11}
 Group   2 Type F   : 19s6p3d2f contracted to 5s4p3d2f pattern {88111/3111/111/11}

Atom   0Mn   basis set group =>   1
Atom   1F    basis set group =>   2
----------------------------------
AUXILIARY/JK BASIS SET INFORMATION
----------------------------------
There are 2 groups of distinct atoms

 Group   1 Type Mn  : 19s14p12d10f7g3h1i contracted to 16s13p11d9f5g3h1i pattern {4111111111111111/2111111111111/21111111111/211111111/31111/111/1}
 Group   2 Type F   : 14s10p6d2f1g contracted to 10s8p4d2f1g pattern {5111111111/31111111/3111/11/1}

Atom   0Mn   basis set group =>   1
Atom   1F    basis set group =>   2


           ************************************************************
           *        Program running with 24 parallel MPI-processes    *
           *              working on a common directory               *
           ************************************************************
------------------------------------------------------------------------------
                           ORCA GTO INTEGRAL CALCULATION
------------------------------------------------------------------------------

                         BASIS SET STATISTICS AND STARTUP INFO

 # of primitive gaussian shells          ...  251
 # of primitive gaussian functions       ...  567
 # of contracted shells                  ...   39
 # of contracted basis functions         ...  139
 Highest angular momentum                ...    4
 Maximum contraction depth               ...   19
 Integral package used                   ... LIBINT
 Integral threshhold            Thresh   ...  1.000e-10
 Primitive cut-off              TCut     ...  1.000e-11


------------------------------ INTEGRAL EVALUATION ----------------------------


 * One electron integrals 
 Pre-screening matrix                    ... done
 Shell pair data                         ... done (   0.001 sec)



           ************************************************************
           *        Program running with 24 parallel MPI-processes    *
           *              working on a common directory               *
           ************************************************************
-------------------------------------------------------------------------------
                                 ORCA SCF
-------------------------------------------------------------------------------

------------
SCF SETTINGS
------------
Hamiltonian:
 Density Functional     Method          .... DFT(GTOs)
 Exchange Functional    Exchange        .... WB97X-V
 Correlation Functional Correlation     .... WB97X-V
 Gradients option       PostSCFGGA      .... off
 Hybrid DFT is turned on
   Fraction HF Exchange ScalHFX         ....  0.167000
   Scaling of DF-GGA-X  ScalDFX         ....  0.000000
   Scaling of DF-GGA-C  ScalDFC         ....  1.000000
   Scaling of DF-LDA-C  ScalLDAC        ....  1.000000
   Perturbative correction              ....  0.000000
   Density functional embedding theory  .... OFF
 Long-range corrected/Screened/Range-Separated Hybrid DFT is turned on
   Amount of maximum screened exact exchange              ....  0.833000
   Range separation parameter mu (erf(mu*r12)/r12)        ....  0.300000
   NL short-range parameter             ....  6.000000
   NL long-range parameter              ....  0.010000


General Settings:
 Integral files         IntName         .... 26_MnF
 Hartree-Fock type      HFTyp           .... UHF
 Total Charge           Charge          ....    0
 Multiplicity           Mult            ....    7
 Number of Electrons    NEL             ....   34
 Basis Dimension        Dim             ....  139
 Nuclear Repulsion      ENuc            ....     65.1268856993 Eh

Convergence Acceleration:
 DIIS                   CNVDIIS         .... on
   Start iteration      DIISMaxIt       ....    12
   Startup error        DIISStart       ....  0.200000
   # of expansion vecs  DIISMaxEq       ....     5
   Bias factor          DIISBfac        ....   1.050
   Max. coefficient     DIISMaxC        ....  10.000
 Newton-Raphson         CNVNR           .... off
 SOSCF                  CNVSOSCF        .... off
 Level Shifting         CNVShift        .... on
   Level shift para.    LevelShift      ....    0.2500
   Turn off err/grad.   ShiftErr        ....    0.0010
 Zerner damping         CNVZerner       .... off
 Static damping         CNVDamp         .... on
   Fraction old density DampFac         ....    0.7000
   Max. Damping (<1)    DampMax         ....    0.9800
   Min. Damping (>=0)   DampMin         ....    0.0000
   Turn off err/grad.   DampErr         ....    0.1000
 Fernandez-Rico         CNVRico         .... off

SCF Procedure:
 Maximum # iterations   MaxIter         ....   125
 SCF integral mode      SCFMode         .... Direct
   Integral package                     .... LIBINT
 Reset frequency        DirectResetFreq ....    20
 Integral Threshold     Thresh          ....  1.000e-10 Eh
 Primitive CutOff       TCut            ....  1.000e-11 Eh

Convergence Tolerance:
 Convergence Check Mode ConvCheckMode   .... Total+1el-Energy
 Convergence forced     ConvForced      .... 0
 Energy Change          TolE            ....  1.000e-06 Eh
 1-El. energy change                    ....  1.000e-03 Eh
 DIIS Error             TolErr          ....  1.000e-06


Diagonalization of the overlap matrix:
Smallest eigenvalue                        ... 5.155e-05
Time for diagonalization                   ...    0.005 sec
Threshold for overlap eigenvalues          ... 1.000e-08
Number of eigenvalues below threshold      ... 0
Time for construction of square roots      ...    0.002 sec
Total time needed                          ...    0.008 sec

-------------------
DFT GRID GENERATION
-------------------

General Integration Accuracy     IntAcc      ...  4.670
Radial Grid Type                 RadialGrid  ... Gauss-Chebyshev
Angular Grid (max. acc.)         AngularGrid ... Lebedev-302
Angular grid pruning method      GridPruning ... 3 (G Style)
Weight generation scheme         WeightScheme... Becke
Basis function cutoff            BFCut       ...    1.0000e-10
Integration weight cutoff        WCut        ...    1.0000e-14
Grids for H and He will be reduced by one unit

# of grid points (after initial pruning)     ...  15936 (   0.0 sec)
# of grid points (after weights+screening)   ...  15888 (   0.0 sec)
nearest neighbour list constructed           ...    0.0 sec
Grid point re-assignment to atoms done       ...    0.0 sec
Grid point division into batches done        ...    0.1 sec
Reduced shell lists constructed in    0.1 sec

Total number of grid points                  ...    15888
Total number of batches                      ...      250
Average number of points per batch           ...       63
Average number of grid points per atom       ...     7944
Average number of shells per batch           ...    15.17 (38.89%)
Average number of basis functions per batch  ...    36.00 (25.90%)
Average number of large shells per batch     ...     9.58 (63.19%)
Average number of large basis fcns per batch ...    23.25 (64.58%)
Maximum spatial batch extension              ...  28.57, 31.41, 18.58 au
Average spatial batch extension              ...   0.88,  0.94,  0.67 au

Time for grid setup =    0.150 sec

------------------------------
INITIAL GUESS: MODEL POTENTIAL
------------------------------
Loading Hartree-Fock densities                     ... done
Calculating cut-offs                               ... done
Setting up the integral package                    ... done
Initializing the effective Hamiltonian             ... done
Starting the Coulomb interaction                   ... done (   0.0 sec)
Reading the grid                                   ... done
Mapping shells                                     ... done
Starting the XC term evaluation                    ... done (   0.0 sec)
  promolecular density results
     # of electrons  =     34.000001172
     EX              =    -45.682836433
     EC              =     -1.863301102
     EX+EC           =    -47.546137535
Transforming the Hamiltonian                       ... done (   0.0 sec)
Diagonalizing the Hamiltonian                      ... done (   0.0 sec)
Back transforming the eigenvectors                 ... done (   0.0 sec)
Now organizing SCF variables                       ... done
                      ------------------
                      INITIAL GUESS DONE (   0.2 sec)
                      ------------------
--------------
SCF ITERATIONS
--------------
ITER       Energy         Delta-E        Max-DP      RMS-DP      [F,P]     Damp
               ***  Starting incremental Fock matrix formation  ***
  0  -1244.0943140576   0.000000000000 2.57355239  0.04751122  1.2874738 0.7000
  1  -1247.2128431637  -3.118529106085 1.37621822  0.01900392  0.5353442 0.7000
  2  -1248.4497175488  -1.236874385146 0.98181544  0.01376825  0.3106945 0.7000
  3  -1249.2007026261  -0.750985077299 0.69340026  0.00965544  0.2374032 0.7000
                               ***Turning on DIIS***
  4  -1249.6995139690  -0.498811342917 0.48747631  0.00678989  0.1704790 0.7000
  5  -1250.0476928864  -0.348178917348 0.34261192  0.00475975  0.1237663 0.7000
  6  -1250.2946909309  -0.246998044546 0.79746054  0.01107209  0.0815482 0.0000
  7  -1250.8921868809  -0.597495950004 0.09350329  0.00081424  0.0150204 0.0000
  8  -1250.8947690088  -0.002582127899 0.06936418  0.00064056  0.0103157 0.0000
  9  -1250.8961461484  -0.001377139639 0.02378891  0.00027371  0.0105139 0.0000
 10  -1250.8965632163  -0.000417067895 0.01628738  0.00015115  0.0035498 0.0000
 11  -1250.8967070167  -0.000143800351 0.00865106  0.00007668  0.0022420 0.0000
 12  -1250.8967600058  -0.000052989125 0.00550973  0.00004407  0.0012649 0.0000
 13  -1250.8967760510  -0.000016045187 0.00444364  0.00003397  0.0006549 0.0000
 14  -1250.8967811473  -0.000005096297 0.00095205  0.00001068  0.0001145 0.0000
                 **** Energy Check signals convergence ****

               *****************************************************
               *                     SUCCESS                       *
               *           SCF CONVERGED AFTER  15 CYCLES          *
               *****************************************************


Setting up the DFT-NL grid :

General Integration Accuracy     IntAcc      ...  4.340
Radial Grid Type                 RadialGrid  ... Gauss-Chebyshev
Angular Grid (max. acc.)         AngularGrid ... Lebedev-110
Angular grid pruning method      GridPruning ... 3 (G Style)
Weight generation scheme         WeightScheme... Becke
Basis function cutoff            BFCut       ...    1.0000e-10
Integration weight cutoff        WCut        ...    1.0000e-14
Grids for H and He will be reduced by one unit

# of grid points (after initial pruning)     ...   4652 (   0.0 sec)
# of grid points (after weights+screening)   ...   4627 (   0.0 sec)
nearest neighbour list constructed           ...    0.0 sec
Grid point re-assignment to atoms done       ...    0.0 sec
Grid point division into batches done        ...    0.0 sec
Reduced shell lists constructed in    0.0 sec

Total number of grid points                  ...     4627
Total number of batches                      ...       73
Average number of points per batch           ...       63
Average number of grid points per atom       ...     2314
Average number of shells per batch           ...    20.80 (53.33%)
Average number of basis functions per batch  ...    59.20 (42.59%)
Average number of large shells per batch     ...    16.40 (78.85%)
Average number of large basis fcns per batch ...    49.60 (83.78%)
Maximum spatial batch extension              ...  19.55, 28.73, 15.95 au
Average spatial batch extension              ...   1.01,  1.33,  0.87 au

Final grid set up in    0.0 sec

-------------------------------------------------------------------------------
                         DFT-NL dispersion correction                          
-------------------------------------------------------------------------------

SC Energy -1250.896781503 
NL    Energy 0.143577770 
SC+NL Energy -1250.753203733 
NL done in    0.0 sec
-------------------------------------------------------------------------------

----------------
TOTAL SCF ENERGY
----------------

Total Energy       :        -1250.75320373 Eh          -34034.72497 eV

Components:
Nuclear Repulsion  :           65.12688570 Eh            1772.19266 eV
Electronic Energy  :        -1315.88008943 Eh          -35806.91762 eV
One Electron Energy:        -1855.60219386 Eh          -50493.50273 eV
Two Electron Energy:          539.72210442 Eh           14686.58511 eV

Virial components:
Potential Energy   :        -2499.70819638 Eh          -68020.51812 eV
Kinetic Energy     :         1248.95499265 Eh           33985.79315 eV
Virial Ratio       :            2.00143977


DFT components:
N(Alpha)           :       20.000015626863 electrons
N(Beta)            :       14.000015011782 electrons
N(Total)           :       34.000030638645 electrons
E(X)               :      -45.994751114624 Eh       
E(C)               :       -1.805735451578 Eh       
NL Energy, E(C,NL) :        0.143577770114 Eh       
E(XC)              :      -47.656908796088 Eh       
DFET-embed. en.    :        0.000000000000 Eh       

---------------
SCF CONVERGENCE
---------------

  Last Energy change         ...   -3.5616e-07  Tolerance :   1.0000e-06
  Last MAX-Density change    ...    6.9246e-05  Tolerance :   1.0000e-05
  Last RMS-Density change    ...    1.4375e-06  Tolerance :   1.0000e-06
  Last DIIS Error            ...    3.2399e-05  Tolerance :   1.0000e-06

             **** THE GBW FILE WAS UPDATED (26_MnF.gbw) ****
             **** DENSITY FILE WAS UPDATED (26_MnF.scfp) ****
             **** ENERGY FILE WAS UPDATED (26_MnF.en.tmp) ****
----------------------
UHF SPIN CONTAMINATION
----------------------

Warning: in a DFT calculation there is little theoretical justification to 
         calculate <S**2> as in Hartree-Fock theory. We will do it anyways
         but you should keep in mind that the values have only limited relevance

Expectation value of <S**2>     :    12.001667
Ideal value S*(S+1) for S=3.0   :    12.000000
Deviation                       :     0.001667

             **** THE GBW FILE WAS UPDATED (26_MnF.gbw) ****
             **** DENSITY FILE WAS UPDATED (26_MnF.scfp) ****
----------------
ORBITAL ENERGIES
----------------
                 SPIN UP ORBITALS
  NO   OCC          E(Eh)            E(eV) 
   0   1.0000    -235.426305     -6406.2755 
   1   1.0000     -27.452194      -747.0122 
   2   1.0000     -24.686348      -671.7497 
   3   1.0000     -23.516146      -639.9069 
   4   1.0000     -23.516146      -639.9069 
   5   1.0000     -23.512493      -639.8075 
   6   1.0000      -3.437082       -93.5278 
   7   1.0000      -2.305835       -62.7450 
   8   1.0000      -2.305835       -62.7450 
   9   1.0000      -2.296927       -62.5026 
  10   1.0000      -1.220197       -33.2033 
  11   1.0000      -0.552504       -15.0344 
  12   1.0000      -0.521583       -14.1930 
  13   1.0000      -0.521583       -14.1930 
  14   1.0000      -0.495752       -13.4901 
  15   1.0000      -0.495750       -13.4900 
  16   1.0000      -0.438518       -11.9327 
  17   1.0000      -0.438518       -11.9327 
  18   1.0000      -0.427042       -11.6204 
  19   1.0000      -0.283948        -7.7266 
  20   0.0000       0.010533         0.2866 
  21   0.0000       0.010533         0.2866 
  22   0.0000       0.023326         0.6347 
  23   0.0000       0.030584         0.8322 
  24   0.0000       0.053646         1.4598 
  25   0.0000       0.053646         1.4598 
  26   0.0000       0.081417         2.2155 
  27   0.0000       0.082633         2.2486 
  28   0.0000       0.082633         2.2486 
  29   0.0000       0.089899         2.4463 
  30   0.0000       0.089899         2.4463 
  31   0.0000       0.109923         2.9912 
  32   0.0000       0.139716         3.8019 
  33   0.0000       0.210270         5.7217 
  34   0.0000       0.210270         5.7217 
  35   0.0000       0.247348         6.7307 
  36   0.0000       0.284899         7.7525 
  37   0.0000       0.284899         7.7525 
  38   0.0000       0.290013         7.8917 
  39   0.0000       0.297021         8.0823 
  40   0.0000       0.297021         8.0823 
  41   0.0000       0.316319         8.6075 
  42   0.0000       0.316319         8.6075 
  43   0.0000       0.368918        10.0388 
  44   0.0000       0.495227        13.4758 
  45   0.0000       0.595201        16.1962 
  46   0.0000       0.704242        19.1634 
  47   0.0000       0.704242        19.1634 
  48   0.0000       0.734417        19.9845 
  49   0.0000       0.734417        19.9845 
  50   0.0000       0.740046        20.1377 
  51   0.0000       0.740046        20.1377 
  52   0.0000       0.845659        23.0115 
  53   0.0000       0.847670        23.0663 
  54   0.0000       0.847670        23.0663 
  55   0.0000       0.939721        25.5711 
  56   0.0000       0.939721        25.5711 
  57   0.0000       0.956682        26.0326 
  58   0.0000       0.971545        26.4371 
  59   0.0000       0.971547        26.4371 
  60   0.0000       1.033017        28.1098 
  61   0.0000       1.033021        28.1099 
  62   0.0000       1.064071        28.9548 
  63   0.0000       1.112903        30.2836 
  64   0.0000       1.112903        30.2836 
  65   0.0000       1.346537        36.6411 
  66   0.0000       1.458760        39.6949 
  67   0.0000       1.502653        40.8893 
  68   0.0000       1.502653        40.8893 
  69   0.0000       2.155754        58.6610 
  70   0.0000       2.155754        58.6610 
  71   0.0000       2.209411        60.1211 
  72   0.0000       2.209411        60.1211 
  73   0.0000       2.215647        60.2908 
  74   0.0000       2.215649        60.2909 
  75   0.0000       2.237465        60.8845 
  76   0.0000       2.362290        64.2812 
  77   0.0000       2.535498        68.9944 
  78   0.0000       2.535513        68.9948 
  79   0.0000       2.611198        71.0543 
  80   0.0000       2.635422        71.7135 
  81   0.0000       2.635422        71.7135 
  82   0.0000       2.650406        72.1212 
  83   0.0000       2.650406        72.1212 
  84   0.0000       2.704924        73.6047 
  85   0.0000       2.704931        73.6049 
  86   0.0000       2.711787        73.7915 
  87   0.0000       2.711787        73.7915 
  88   0.0000       2.762092        75.1603 
  89   0.0000       2.762114        75.1609 
  90   0.0000       2.848390        77.5086 
  91   0.0000       2.888843        78.6094 
  92   0.0000       2.888843        78.6094 
  93   0.0000       2.953977        80.3818 
  94   0.0000       3.108247        84.5797 
  95   0.0000       3.108247        84.5797 
  96   0.0000       3.294686        89.6530 
  97   0.0000       3.294719        89.6539 
  98   0.0000       3.345938        91.0476 
  99   0.0000       3.794946       103.2657 
 100   0.0000       3.794946       103.2657 
 101   0.0000       3.884632       105.7062 
 102   0.0000       3.884633       105.7062 
 103   0.0000       4.131345       112.4196 
 104   0.0000       4.180830       113.7662 
 105   0.0000       4.180830       113.7662 
 106   0.0000       4.721227       128.4711 
 107   0.0000       5.012366       136.3934 
 108   0.0000       5.012366       136.3934 
 109   0.0000       5.536586       150.6582 
 110   0.0000       7.423024       201.9908 
 111   0.0000       7.423024       201.9908 
 112   0.0000       7.436529       202.3582 
 113   0.0000       7.436532       202.3583 
 114   0.0000       7.515434       204.5054 
 115   0.0000       7.515434       204.5054 
 116   0.0000       7.692404       209.3209 
 117   0.0000       7.941827       216.1081 
 118   0.0000       7.941884       216.1097 
 119   0.0000       7.947951       216.2747 
 120   0.0000       7.947951       216.2747 
 121   0.0000       8.007061       217.8832 
 122   0.0000       8.007075       217.8836 
 123   0.0000       8.217370       223.6060 
 124   0.0000       8.217370       223.6060 
 125   0.0000       8.259672       224.7571 
 126   0.0000       8.462018       230.2632 
 127   0.0000       8.462018       230.2632 
 128   0.0000       8.598712       233.9829 
 129   0.0000       8.598989       233.9904 
 130   0.0000       8.887074       241.8296 
 131   0.0000       8.887424       241.8391 
 132   0.0000       8.895002       242.0453 
 133   0.0000       8.903713       242.2824 
 134   0.0000       8.903713       242.2824 
 135   0.0000       9.048497       246.2221 
 136   0.0000       9.048497       246.2221 
 137   0.0000       9.326741       253.7935 
 138   0.0000      14.160584       385.3291 

                 SPIN DOWN ORBITALS
  NO   OCC          E(Eh)            E(eV) 
   0   1.0000    -235.424070     -6406.2146 
   1   1.0000     -27.369983      -744.7751 
   2   1.0000     -24.682323      -671.6402 
   3   1.0000     -23.449042      -638.0809 
   4   1.0000     -23.449042      -638.0809 
   5   1.0000     -23.445879      -637.9948 
   6   1.0000      -3.228965       -87.8646 
   7   1.0000      -2.079679       -56.5910 
   8   1.0000      -2.079679       -56.5910 
   9   1.0000      -2.071862       -56.3782 
  10   1.0000      -1.208253       -32.8782 
  11   1.0000      -0.499130       -13.5820 
  12   1.0000      -0.470107       -12.7923 
  13   1.0000      -0.470107       -12.7923 
  14   0.0000      -0.008091        -0.2202 
  15   0.0000       0.031922         0.8686 
  16   0.0000       0.031925         0.8687 
  17   0.0000       0.032957         0.8968 
  18   0.0000       0.032957         0.8968 
  19   0.0000       0.034239         0.9317 
  20   0.0000       0.039499         1.0748 
  21   0.0000       0.056310         1.5323 
  22   0.0000       0.056310         1.5323 
  23   0.0000       0.084323         2.2945 
  24   0.0000       0.098279         2.6743 
  25   0.0000       0.098279         2.6743 
  26   0.0000       0.101398         2.7592 
  27   0.0000       0.101408         2.7595 
  28   0.0000       0.106128         2.8879 
  29   0.0000       0.106131         2.8880 
  30   0.0000       0.109021         2.9666 
  31   0.0000       0.132230         3.5982 
  32   0.0000       0.191793         5.2189 
  33   0.0000       0.261442         7.1142 
  34   0.0000       0.261447         7.1143 
  35   0.0000       0.282096         7.6762 
  36   0.0000       0.301773         8.2117 
  37   0.0000       0.301773         8.2117 
  38   0.0000       0.333458         9.0738 
  39   0.0000       0.339554         9.2397 
  40   0.0000       0.339558         9.2398 
  41   0.0000       0.378992        10.3129 
  42   0.0000       0.378993        10.3129 
  43   0.0000       0.402762        10.9597 
  44   0.0000       0.543251        14.7826 
  45   0.0000       0.642116        17.4729 
  46   0.0000       0.746198        20.3051 
  47   0.0000       0.746199        20.3051 
  48   0.0000       0.791709        21.5435 
  49   0.0000       0.791709        21.5435 
  50   0.0000       0.796727        21.6800 
  51   0.0000       0.796728        21.6801 
  52   0.0000       0.911616        24.8063 
  53   0.0000       0.911616        24.8063 
  54   0.0000       0.919251        25.0141 
  55   0.0000       1.008380        27.4394 
  56   0.0000       1.017230        27.6802 
  57   0.0000       1.017230        27.6802 
  58   0.0000       1.029847        28.0236 
  59   0.0000       1.029851        28.0237 
  60   0.0000       1.096519        29.8378 
  61   0.0000       1.096520        29.8378 
  62   0.0000       1.104184        30.0464 
  63   0.0000       1.130048        30.7502 
  64   0.0000       1.130048        30.7502 
  65   0.0000       1.408926        38.3388 
  66   0.0000       1.465047        39.8660 
  67   0.0000       1.542905        41.9846 
  68   0.0000       1.542905        41.9846 
  69   0.0000       2.226001        60.5726 
  70   0.0000       2.226001        60.5726 
  71   0.0000       2.309909        62.8558 
  72   0.0000       2.309921        62.8561 
  73   0.0000       2.315588        63.0104 
  74   0.0000       2.315588        63.0104 
  75   0.0000       2.318657        63.0939 
  76   0.0000       2.404278        65.4237 
  77   0.0000       2.574259        70.0492 
  78   0.0000       2.574278        70.0497 
  79   0.0000       2.673805        72.7579 
  80   0.0000       2.673805        72.7579 
  81   0.0000       2.706010        73.6343 
  82   0.0000       2.706010        73.6343 
  83   0.0000       2.730045        74.2883 
  84   0.0000       2.770961        75.4017 
  85   0.0000       2.770971        75.4020 
  86   0.0000       2.772658        75.4479 
  87   0.0000       2.772682        75.4485 
  88   0.0000       2.821542        76.7781 
  89   0.0000       2.821542        76.7781 
  90   0.0000       2.904657        79.0397 
  91   0.0000       2.915659        79.3391 
  92   0.0000       2.915659        79.3391 
  93   0.0000       3.014490        82.0284 
  94   0.0000       3.133599        85.2696 
  95   0.0000       3.133599        85.2696 
  96   0.0000       3.327394        90.5430 
  97   0.0000       3.327425        90.5438 
  98   0.0000       3.423998        93.1717 
  99   0.0000       3.863706       105.1368 
 100   0.0000       3.863706       105.1368 
 101   0.0000       4.035348       109.8074 
 102   0.0000       4.035350       109.8075 
 103   0.0000       4.168343       113.4264 
 104   0.0000       4.297695       116.9462 
 105   0.0000       4.297695       116.9462 
 106   0.0000       4.828299       131.3847 
 107   0.0000       5.021993       136.6554 
 108   0.0000       5.021993       136.6554 
 109   0.0000       5.572081       151.6240 
 110   0.0000       7.604579       206.9311 
 111   0.0000       7.604579       206.9311 
 112   0.0000       7.620286       207.3585 
 113   0.0000       7.620291       207.3587 
 114   0.0000       7.688789       209.2226 
 115   0.0000       7.688789       209.2226 
 116   0.0000       7.852301       213.6720 
 117   0.0000       8.078053       219.8150 
 118   0.0000       8.078098       219.8162 
 119   0.0000       8.081496       219.9087 
 120   0.0000       8.081496       219.9087 
 121   0.0000       8.131031       221.2566 
 122   0.0000       8.131051       221.2571 
 123   0.0000       8.341520       226.9843 
 124   0.0000       8.341520       226.9843 
 125   0.0000       8.361930       227.5397 
 126   0.0000       8.470259       230.4875 
 127   0.0000       8.470259       230.4875 
 128   0.0000       8.615190       234.4312 
 129   0.0000       8.615455       234.4384 
 130   0.0000       8.897171       242.1043 
 131   0.0000       8.897524       242.1139 
 132   0.0000       8.915216       242.5954 
 133   0.0000       8.915216       242.5954 
 134   0.0000       8.924292       242.8423 
 135   0.0000       9.068140       246.7566 
 136   0.0000       9.068140       246.7566 
 137   0.0000       9.353505       254.5218 
 138   0.0000      14.176097       385.7512 

                    ********************************
                    * MULLIKEN POPULATION ANALYSIS *
                    ********************************

--------------------------------------------
MULLIKEN ATOMIC CHARGES AND SPIN POPULATIONS
--------------------------------------------
   0 Mn:    0.637098    5.883205
   1 F :   -0.637098    0.116795
Sum of atomic charges         :    0.0000000
Sum of atomic spin populations:    6.0000000

-----------------------------------------------------
MULLIKEN REDUCED ORBITAL CHARGES AND SPIN POPULATIONS
-----------------------------------------------------
CHARGE
  0 Mns       :     6.902083  s :     6.902083
      pz      :     4.247122  p :    12.307312
      px      :     4.030095
      py      :     4.030095
      dz2     :     1.049341  d :     5.129163
      dxz     :     1.040062
      dyz     :     1.040062
      dx2y2   :     0.999849
      dxy     :     0.999849
      f0      :     0.007783  f :     0.021142
      f+1     :     0.006656
      f-1     :     0.006656
      f+2     :     0.000023
      f-2     :     0.000023
      f+3     :     0.000000
      f-3     :     0.000000
      g0      :     0.001628  g :     0.003202
      g+1     :     0.000785
      g-1     :     0.000785
      g+2     :     0.000003
      g-2     :     0.000003
      g+3     :     0.000000
      g-3     :     0.000000
      g+4     :     0.000000
      g-4     :     0.000000
  1 F s       :     3.990135  s :     3.990135
      pz      :     1.799155  p :     5.636899
      px      :     1.918872
      py      :     1.918872
      dz2     :     0.002137  d :     0.008655
      dxz     :     0.003162
      dyz     :     0.003162
      dx2y2   :     0.000097
      dxy     :     0.000097
      f0      :     0.000615  f :     0.001409
      f+1     :     0.000368
      f-1     :     0.000368
      f+2     :     0.000029
      f-2     :     0.000029
      f+3     :     0.000000
      f-3     :     0.000000

SPIN
  0 Mns       :     0.831985  s :     0.831985
      pz      :     0.202401  p :     0.219220
      px      :     0.008410
      py      :     0.008410
      dz2     :     0.912451  d :     4.833526
      dxz     :     0.960688
      dyz     :     0.960688
      dx2y2   :     0.999849
      dxy     :     0.999849
      f0      :     0.000287  f :    -0.001617
      f+1     :    -0.000975
      f-1     :    -0.000975
      f+2     :     0.000023
      f-2     :     0.000023
      f+3     :     0.000000
      f-3     :     0.000000
      g0      :     0.000046  g :     0.000090
      g+1     :     0.000020
      g-1     :     0.000020
      g+2     :     0.000003
      g-2     :     0.000003
      g+3     :    -0.000000
      g-3     :    -0.000000
      g+4     :     0.000000
      g-4     :     0.000000
  1 F s       :     0.004856  s :     0.004856
      pz      :     0.047818  p :     0.112818
      px      :     0.032500
      py      :     0.032500
      dz2     :     0.000024  d :    -0.001230
      dxz     :    -0.000724
      dyz     :    -0.000724
      dx2y2   :     0.000097
      dxy     :     0.000097
      f0      :     0.000131  f :     0.000351
      f+1     :     0.000082
      f-1     :     0.000082
      f+2     :     0.000029
      f-2     :     0.000029
      f+3     :    -0.000000
      f-3     :    -0.000000


                     *******************************
                     * LOEWDIN POPULATION ANALYSIS *
                     *******************************

-------------------------------------------
LOEWDIN ATOMIC CHARGES AND SPIN POPULATIONS
-------------------------------------------
   0 Mn:    0.449067    5.770800
   1 F :   -0.449067    0.229200

----------------------------------------------------
LOEWDIN REDUCED ORBITAL CHARGES AND SPIN POPULATIONS
----------------------------------------------------
CHARGE
  0 Mns       :     6.698777  s :     6.698777
      pz      :     4.334538  p :    12.411301
      px      :     4.038382
      py      :     4.038382
      dz2     :     1.127091  d :     5.220352
      dxz     :     1.048804
      dyz     :     1.048804
      dx2y2   :     0.997827
      dxy     :     0.997827
      f0      :     0.084676  f :     0.195318
      f+1     :     0.055228
      f-1     :     0.055228
      f+2     :     0.000093
      f-2     :     0.000093
      f+3     :     0.000000
      f-3     :     0.000000
      g0      :     0.012612  g :     0.025185
      g+1     :     0.006268
      g-1     :     0.006268
      g+2     :     0.000019
      g-2     :     0.000019
      g+3     :     0.000000
      g-3     :     0.000000
      g+4     :     0.000000
      g-4     :     0.000000
  1 F s       :     3.728839  s :     3.728839
      pz      :     1.905261  p :     5.531335
      px      :     1.813037
      py      :     1.813037
      dz2     :     0.091464  d :     0.157108
      dxz     :     0.031331
      dyz     :     0.031331
      dx2y2   :     0.001491
      dxy     :     0.001491
      f0      :     0.016743  f :     0.031785
      f+1     :     0.006951
      f-1     :     0.006951
      f+2     :     0.000570
      f-2     :     0.000570
      f+3     :     0.000000
      f-3     :     0.000000

SPIN
  0 Mns       :     0.735948  s :     0.735948
      pz      :     0.255668  p :     0.286122
      px      :     0.015227
      py      :     0.015227
      dz2     :     0.885038  d :     4.734474
      dxz     :     0.926891
      dyz     :     0.926891
      dx2y2   :     0.997827
      dxy     :     0.997827
      f0      :     0.003358  f :     0.011449
      f+1     :     0.003952
      f-1     :     0.003952
      f+2     :     0.000093
      f-2     :     0.000093
      f+3     :     0.000000
      f-3     :     0.000000
      g0      :     0.001065  g :     0.002805
      g+1     :     0.000851
      g-1     :     0.000851
      g+2     :     0.000019
      g-2     :     0.000019
      g+3     :    -0.000000
      g-3     :    -0.000000
      g+4     :     0.000000
      g-4     :     0.000000
  1 F s       :     0.027855  s :     0.027855
      pz      :     0.081088  p :     0.140535
      px      :     0.029723
      py      :     0.029723
      dz2     :     0.006160  d :     0.045465
      dxz     :     0.018161
      dyz     :     0.018161
      dx2y2   :     0.001491
      dxy     :     0.001491
      f0      :     0.003819  f :     0.015346
      f+1     :     0.005194
      f-1     :     0.005194
      f+2     :     0.000570
      f-2     :     0.000570
      f+3     :    -0.000000
      f-3     :    -0.000000


                      *****************************
                      * MAYER POPULATION ANALYSIS *
                      *****************************

  NA   - Mulliken gross atomic population
  ZA   - Total nuclear charge
  QA   - Mulliken gross atomic charge
  VA   - Mayer's total valence
  BVA  - Mayer's bonded valence
  FA   - Mayer's free valence

  ATOM       NA         ZA         QA         VA         BVA        FA
  0 Mn    24.3629    25.0000     0.6371     6.4431     0.6583     5.7848
  1 F      9.6371     9.0000    -0.6371     0.6630     0.6583     0.0047

  Mayer bond orders larger than 0.100000
B(  0-Mn,  1-F ) :   0.6583 

-------
TIMINGS
-------

Total SCF time: 0 days 0 hours 3 min 16 sec 

Total time                  ....     196.155 sec
Sum of individual times     ....     195.814 sec  ( 99.8%)

Fock matrix formation       ....     195.430 sec  ( 99.6%)
  XC integration            ....       0.368 sec  (  0.2% of F)
    Basis function eval.    ....       0.080 sec  ( 21.8% of XC)
    Density eval.           ....       0.044 sec  ( 12.1% of XC)
    XC-Functional eval.     ....       0.018 sec  (  5.0% of XC)
    XC-Potential eval.      ....       0.101 sec  ( 27.6% of XC)
Diagonalization             ....       0.080 sec  (  0.0%)
Density matrix formation    ....       0.010 sec  (  0.0%)
Population analysis         ....       0.006 sec  (  0.0%)
Initial guess               ....       0.098 sec  (  0.1%)
Orbital Transformation      ....       0.000 sec  (  0.0%)
Orbital Orthonormalization  ....       0.000 sec  (  0.0%)
DIIS solution               ....       0.024 sec  (  0.0%)
Grid generation             ....       0.165 sec  (  0.1%)

-------------------------   --------------------
FINAL SINGLE POINT ENERGY     -1250.753203733347
-------------------------   --------------------


                            ***************************************
                            *     ORCA property calculations      *
                            ***************************************

                                    ---------------------
                                    Active property flags
                                    ---------------------
   (+) Dipole Moment


------------------------------------------------------------------------------
                       ORCA ELECTRIC PROPERTIES CALCULATION
------------------------------------------------------------------------------

Dipole Moment Calculation                       ... on
Quadrupole Moment Calculation                   ... off
Polarizability Calculation                      ... off
GBWName                                         ... 26_MnF.gbw
Electron density file                           ... 26_MnF.scfp
The origin for moment calculation is the CENTER OF MASS  = ( 0.000000,  0.000000  1.050021)

-------------
DIPOLE MOMENT
-------------
                                X             Y             Z
Electronic contribution:     -0.00000       0.00000      -1.83901
Nuclear contribution   :      0.00000       0.00000       0.91162
                        -----------------------------------------
Total Dipole Moment    :     -0.00000       0.00000      -0.92739
                        -----------------------------------------
Magnitude (a.u.)       :      0.92739
Magnitude (Debye)      :      2.35724



--------------------
Rotational spectrum 
--------------------
 
Rotational constants in cm-1:     0.000000     0.357290     0.357290 
Rotational constants in MHz :     0.000000 10711.297675 10711.297675 

 Dipole components along the rotational axes: 
x,y,z [a.u.] :    -0.927392     0.000000    -0.000000 
x,y,z [Debye]:    -2.357243     0.000000    -0.000000 

 

Timings for individual modules:

Sum of individual times         ...      199.550 sec (=   3.326 min)
GTO integral calculation        ...        2.911 sec (=   0.049 min)   1.5 %
SCF iterations                  ...      196.639 sec (=   3.277 min)  98.5 %
                             ****ORCA TERMINATED NORMALLY****
TOTAL RUN TIME: 0 days 0 hours 3 minutes 20 seconds 164 msec
