
                                 *****************
                                 * O   R   C   A *
                                 *****************

           --- An Ab Initio, DFT and Semiempirical electronic structure package ---

                  #######################################################
                  #                        -***-                        #
                  #          Department of theory and spectroscopy      #
                  #               Directorship: Frank Neese             #
                  #        Max Planck Institute fuer Kohlenforschung    #
                  #                Kaiser Wilhelm Platz 1               #
                  #                 D-45470 Muelheim/Ruhr               #
                  #                      Germany                        #
                  #                                                     #
                  #                  All rights reserved                #
                  #                        -***-                        #
                  #######################################################


                         Program Version 4.2.0 -  RELEASE  -


 With contributions from (in alphabetic order):
   Daniel Aravena         : Magnetic Suceptibility
   Michael Atanasov       : Ab Initio Ligand Field Theory (pilot matlab implementation)
   Alexander A. Auer      : GIAO ZORA, VPT2
   Ute Becker             : Parallelization
   Giovanni Bistoni       : ED, misc. LED, open-shell LED, HFLED
   Martin Brehm           : Molecular dynamics
   Dmytro Bykov           : SCF Hessian
   Vijay G. Chilkuri      : MRCI spin determinant printing, contributions to CSF-ICE
   Dipayan Datta          : RHF DLPNO-CCSD density
   Achintya Kumar Dutta   : EOM-CC, STEOM-CC
   Dmitry Ganyushin       : Spin-Orbit,Spin-Spin,Magnetic field MRCI
   Miquel Garcia          : C-PCM Hessian, Gaussian charge scheme
   Yang Guo               : DLPNO-NEVPT2, CIM, IAO-localization
   Andreas Hansen         : Spin unrestricted coupled pair/coupled cluster methods
   Benjamin Helmich-Paris : CASSCF linear response (MC-RPA)
   Lee Huntington         : MR-EOM, pCC
   Robert Izsak           : Overlap fitted RIJCOSX, COSX-SCS-MP3, EOM
   Christian Kollmar      : KDIIS, OOCD, Brueckner-CCSD(T), CCSD density
   Simone Kossmann        : Meta GGA functionals, TD-DFT gradient, OOMP2, MP2 Hessian
   Martin Krupicka        : AUTO-CI
   Lucas Lang             : DCDCAS
   Dagmar Lenk            : GEPOL surface, SMD
   Dimitrios Liakos       : Extrapolation schemes; Compound Job, initial MDCI parallelization
   Dimitrios Manganas     : Further ROCIS development; embedding schemes
   Dimitrios Pantazis     : SARC Basis sets
   Taras Petrenko         : DFT Hessian,TD-DFT gradient, ASA, ECA, R-Raman, ABS, FL, XAS/XES, NRVS
   Peter Pinski           : DLPNO-MP2, DLPNO-MP2 Gradient
   Christoph Reimann      : Effective Core Potentials
   Marius Retegan         : Local ZFS, SOC
   Christoph Riplinger    : Optimizer, TS searches, QM/MM, DLPNO-CCSD(T), (RO)-DLPNO pert. Triples
   Tobias Risthaus        : Range-separated hybrids, TD-DFT gradient, RPA, STAB
   Michael Roemelt        : Original ROCIS implementation
   Masaaki Saitow         : Open-shell DLPNO-CCSD energy and density
   Barbara Sandhoefer     : DKH picture change effects
   Avijit Sen             : IP-ROCIS
   Kantharuban Sivalingam : CASSCF convergence, NEVPT2, FIC-MRCI
   Bernardo de Souza      : ESD, SOC TD-DFT
   Georgi Stoychev        : AutoAux, RI-MP2 NMR
   Willem Van den Heuvel  : Paramagnetic NMR
   Boris Wezisla          : Elementary symmetry handling
   Frank Wennmohs         : Technical directorship


 We gratefully acknowledge several colleagues who have allowed us to
 interface, adapt or use parts of their codes:
   Stefan Grimme, W. Hujo, H. Kruse,             : VdW corrections, initial TS optimization,
                  C. Bannwarth                     DFT functionals, gCP, sTDA/sTD-DF
   Ed Valeev, F. Pavosevic, A. Kumar             : LibInt (2-el integral package), F12 methods
   Garnet Chan, S. Sharma, J. Yang, R. Olivares  : DMRG
   Ulf Ekstrom                                   : XCFun DFT Library
   Mihaly Kallay                                 : mrcc  (arbitrary order and MRCC methods)
   Andreas Klamt, Michael Diedenhofen            : otool_cosmo (COSMO solvation model)
   Jiri Pittner, Ondrej Demel                    : Mk-CCSD
   Frank Weinhold                                : gennbo (NPA and NBO analysis)
   Christopher J. Cramer and Donald G. Truhlar   : smd solvation model
   Lars Goerigk                                  : TD-DFT with DH, B97 family of functionals
   V. Asgeirsson, H. Jonsson                     : NEB implementation
   FAccTs GmbH                                   : IRC, NEB, NEB-TS, Multilevel, MM, QM/MM, CI optimization
   S Lehtola, MJT Oliveira, MAL Marques          : LibXC Library


 Your calculation uses the libint2 library for the computation of 2-el integrals
 For citations please refer to: http://libint.valeyev.net

 Your ORCA version has been built with support for libXC version: 4.2.3
 For citations please refer to: https://tddft.org/programs/libxc/

 This ORCA versions uses:
   CBLAS   interface :  Fast vector & matrix operations
   LAPACKE interface :  Fast linear algebra routines
   SCALAPACK package :  Parallel linear algebra routines


Your calculation utilizes the DFT-NL dispersion correction.
Cite in your paper:
Vydrov, O. A.; Van Voorhis, T. J. Chem. Phys. 2010, 133, 244103
Hujo, W.; Grimme, S. J. Chem. Theory Comput. 2011, 7, 3866 
   

----- Orbital basis set information -----
Your calculation utilizes the basis: aug-cc-pVTZ 
    H, B-Ne : Obtained from the ccRepo (grant-hill.group.shef.ac.uk/ccrepo) Feb. 2017
              R. A. Kendall, T. H. Dunning, Jr., R. J. Harrison, J. Chem. Phys. 96, 6796 (1992)
         He : Obtained from the ccRepo (grant-hill.group.shef.ac.uk/ccrepo) Feb. 2017
              D. E. Woon, T. H. Dunning, Jr., J. Chem. Phys. 100, 2975 (1994)
  Li-Be, Na : Obtained from the ccRepo (grant-hill.group.shef.ac.uk/ccrepo) Feb. 2017
              B. P. Prascher, D. E. Woon, K. A. Peterson, T. H. Dunning, Jr., A. K. Wilson, Theor. Chem. Acc. 128, 69 (2011)
         Mg : Obtained from the Peterson Research Group Website (tyr0.chem.wsu.edu/~kipeters) Feb. 2017
              B. P. Prascher, D. E. Woon, K. A. Peterson, T. H. Dunning, Jr., A. K. Wilson, Theor. Chem. Acc. 128, 69 (2011)
      Al-Ar : Obtained from the ccRepo (grant-hill.group.shef.ac.uk/ccrepo) Feb. 2017
              D. E. Woon, T. H. Dunning, Jr., J. Chem. Phys. 98, 1358 (1993)
      Sc-Zn : Obtained from the ccRepo (grant-hill.group.shef.ac.uk/ccrepo) Feb. 2017
              N. B. Balabanov, K. A. Peterson, J. Chem. Phys. 123, 064107 (2005)
              N. B. Balabanov, K. A. Peterson, J. Chem. Phys. 125, 074110 (2006)
      Ga-Kr : Obtained from the ccRepo (grant-hill.group.shef.ac.uk/ccrepo) Feb. 2017
              A. K. Wilson, D. E. Woon, K. A. Peterson, T. H. Dunning, Jr., J. Chem. Phys. 110, 7667 (1999)
     Ag, Au : Obtained from the Peterson Research Group Website (tyr0.chem.wsu.edu/~kipeters) Feb. 2017
              K. A. Peterson, C. Puzzarini, Theor. Chem. Acc. 114, 283 (2005)

----- AuxJK basis set information -----
Your calculation utilizes the auxiliary basis: def2/JK
   H-Ba, Hf-Rn: F. Weigend, J. Comput. Chem. 29, 167 (2008).

================================================================================
                                        WARNINGS
                       Please study these warnings very carefully!
================================================================================


WARNING: your system is open-shell and RHF/RKS was chosen
  ===> : WILL SWITCH to UHF/UKS


INFO   : the flag for use of LIBINT has been found!

================================================================================
                                       INPUT FILE
================================================================================
NAME = 31_FeH.in
|  1> #
|  2> # 31_FeH wb97x-v/aug-cc-pvtz
|  3> #
|  4> ! wb97x-v aug-cc-pvtz def2/jk grid4 nofinalgrid
|  5> 
|  6> *xyz 0 4
|  7>   Fe  0.00000000000000      0.00000000000000      0.22838748047068
|  8>   H   0.00000000000000      0.00000000000000      1.77161251952932
|  9> *
| 10> 
| 11> %pal
| 12> nprocs 24
| 13> end
| 14> 
| 15> 
| 16>                          ****END OF INPUT****
================================================================================

                       ****************************
                       * Single Point Calculation *
                       ****************************

---------------------------------
CARTESIAN COORDINATES (ANGSTROEM)
---------------------------------
  Fe     0.000000    0.000000    0.228387
  H      0.000000    0.000000    1.771613

----------------------------
CARTESIAN COORDINATES (A.U.)
----------------------------
  NO LB      ZA    FRAG     MASS         X           Y           Z
   0 Fe   26.0000    0    55.850    0.000000    0.000000    0.431590
   1 H     1.0000    0     1.008    0.000000    0.000000    3.347862

--------------------------------
INTERNAL COORDINATES (ANGSTROEM)
--------------------------------
 Fe     0   0   0     0.000000000000     0.00000000     0.00000000
 H      1   0   0     1.543225039059     0.00000000     0.00000000

---------------------------
INTERNAL COORDINATES (A.U.)
---------------------------
 Fe     0   0   0     0.000000000000     0.00000000     0.00000000
 H      1   0   0     2.916272686831     0.00000000     0.00000000

---------------------
BASIS SET INFORMATION
---------------------
There are 2 groups of distinct atoms

 Group   1 Type Fe  : 116s77p23d3f2g contracted to 8s7p5d3f2g pattern {19191919191911/151515151511/77711/111/11}
 Group   2 Type H   : 6s3p2d contracted to 4s3p2d pattern {3111/111/11}

Atom   0Fe   basis set group =>   1
Atom   1H    basis set group =>   2
----------------------------------
AUXILIARY/JK BASIS SET INFORMATION
----------------------------------
There are 2 groups of distinct atoms

 Group   1 Type Fe  : 19s14p12d10f7g3h1i contracted to 16s13p11d9f5g3h1i pattern {4111111111111111/2111111111111/21111111111/211111111/31111/111/1}
 Group   2 Type H   : 4s2p2d contracted to 2s2p2d pattern {31/11/11}

Atom   0Fe   basis set group =>   1
Atom   1H    basis set group =>   2


           ************************************************************
           *        Program running with 24 parallel MPI-processes    *
           *              working on a common directory               *
           ************************************************************
------------------------------------------------------------------------------
                           ORCA GTO INTEGRAL CALCULATION
------------------------------------------------------------------------------

                         BASIS SET STATISTICS AND STARTUP INFO

 # of primitive gaussian shells          ...  232
 # of primitive gaussian functions       ...  526
 # of contracted shells                  ...   34
 # of contracted basis functions         ...  116
 Highest angular momentum                ...    4
 Maximum contraction depth               ...   19
 Integral package used                   ... LIBINT
 Integral threshhold            Thresh   ...  1.000e-10
 Primitive cut-off              TCut     ...  1.000e-11


------------------------------ INTEGRAL EVALUATION ----------------------------


 * One electron integrals 
 Pre-screening matrix                    ... done
 Shell pair data                         ... done (   0.001 sec)



           ************************************************************
           *        Program running with 24 parallel MPI-processes    *
           *              working on a common directory               *
           ************************************************************
-------------------------------------------------------------------------------
                                 ORCA SCF
-------------------------------------------------------------------------------

------------
SCF SETTINGS
------------
Hamiltonian:
 Density Functional     Method          .... DFT(GTOs)
 Exchange Functional    Exchange        .... WB97X-V
 Correlation Functional Correlation     .... WB97X-V
 Gradients option       PostSCFGGA      .... off
 Hybrid DFT is turned on
   Fraction HF Exchange ScalHFX         ....  0.167000
   Scaling of DF-GGA-X  ScalDFX         ....  0.000000
   Scaling of DF-GGA-C  ScalDFC         ....  1.000000
   Scaling of DF-LDA-C  ScalLDAC        ....  1.000000
   Perturbative correction              ....  0.000000
   Density functional embedding theory  .... OFF
 Long-range corrected/Screened/Range-Separated Hybrid DFT is turned on
   Amount of maximum screened exact exchange              ....  0.833000
   Range separation parameter mu (erf(mu*r12)/r12)        ....  0.300000
   NL short-range parameter             ....  6.000000
   NL long-range parameter              ....  0.010000


General Settings:
 Integral files         IntName         .... 31_FeH
 Hartree-Fock type      HFTyp           .... UHF
 Total Charge           Charge          ....    0
 Multiplicity           Mult            ....    4
 Number of Electrons    NEL             ....   27
 Basis Dimension        Dim             ....  116
 Nuclear Repulsion      ENuc            ....      8.9154900080 Eh

Convergence Acceleration:
 DIIS                   CNVDIIS         .... on
   Start iteration      DIISMaxIt       ....    12
   Startup error        DIISStart       ....  0.200000
   # of expansion vecs  DIISMaxEq       ....     5
   Bias factor          DIISBfac        ....   1.050
   Max. coefficient     DIISMaxC        ....  10.000
 Newton-Raphson         CNVNR           .... off
 SOSCF                  CNVSOSCF        .... off
 Level Shifting         CNVShift        .... on
   Level shift para.    LevelShift      ....    0.2500
   Turn off err/grad.   ShiftErr        ....    0.0010
 Zerner damping         CNVZerner       .... off
 Static damping         CNVDamp         .... on
   Fraction old density DampFac         ....    0.7000
   Max. Damping (<1)    DampMax         ....    0.9800
   Min. Damping (>=0)   DampMin         ....    0.0000
   Turn off err/grad.   DampErr         ....    0.1000
 Fernandez-Rico         CNVRico         .... off

SCF Procedure:
 Maximum # iterations   MaxIter         ....   125
 SCF integral mode      SCFMode         .... Direct
   Integral package                     .... LIBINT
 Reset frequency        DirectResetFreq ....    20
 Integral Threshold     Thresh          ....  1.000e-10 Eh
 Primitive CutOff       TCut            ....  1.000e-11 Eh

Convergence Tolerance:
 Convergence Check Mode ConvCheckMode   .... Total+1el-Energy
 Convergence forced     ConvForced      .... 0
 Energy Change          TolE            ....  1.000e-06 Eh
 1-El. energy change                    ....  1.000e-03 Eh
 DIIS Error             TolErr          ....  1.000e-06


Diagonalization of the overlap matrix:
Smallest eigenvalue                        ... 6.010e-05
Time for diagonalization                   ...    0.004 sec
Threshold for overlap eigenvalues          ... 1.000e-08
Number of eigenvalues below threshold      ... 0
Time for construction of square roots      ...    0.002 sec
Total time needed                          ...    0.006 sec

-------------------
DFT GRID GENERATION
-------------------

General Integration Accuracy     IntAcc      ...  4.670
Radial Grid Type                 RadialGrid  ... Gauss-Chebyshev
Angular Grid (max. acc.)         AngularGrid ... Lebedev-302
Angular grid pruning method      GridPruning ... 3 (G Style)
Weight generation scheme         WeightScheme... Becke
Basis function cutoff            BFCut       ...    1.0000e-10
Integration weight cutoff        WCut        ...    1.0000e-14
Grids for H and He will be reduced by one unit

# of grid points (after initial pruning)     ...  13034 (   0.0 sec)
# of grid points (after weights+screening)   ...  12994 (   0.0 sec)
nearest neighbour list constructed           ...    0.0 sec
Grid point re-assignment to atoms done       ...    0.0 sec
Grid point division into batches done        ...    0.1 sec
Reduced shell lists constructed in    0.1 sec

Total number of grid points                  ...    12994
Total number of batches                      ...      204
Average number of points per batch           ...       63
Average number of grid points per atom       ...     6497
Average number of shells per batch           ...    14.90 (43.82%)
Average number of basis functions per batch  ...    33.50 (28.88%)
Average number of large shells per batch     ...     8.00 (53.69%)
Average number of large basis fcns per batch ...    18.80 (56.12%)
Maximum spatial batch extension              ...  31.41, 28.57, 18.66 au
Average spatial batch extension              ...   1.02,  0.94,  0.71 au

Time for grid setup =    0.120 sec

------------------------------
INITIAL GUESS: MODEL POTENTIAL
------------------------------
Loading Hartree-Fock densities                     ... done
Calculating cut-offs                               ... done
Setting up the integral package                    ... done
Initializing the effective Hamiltonian             ... done
Starting the Coulomb interaction                   ... done (   0.0 sec)
Reading the grid                                   ... done
Mapping shells                                     ... done
Starting the XC term evaluation                    ... done (   0.0 sec)
  promolecular density results
     # of electrons  =     26.999503944
     EX              =    -41.480932764
     EC              =     -1.557688316
     EX+EC           =    -43.038621080
Transforming the Hamiltonian                       ... done (   0.0 sec)
Diagonalizing the Hamiltonian                      ... done (   0.0 sec)
Back transforming the eigenvectors                 ... done (   0.0 sec)
Now organizing SCF variables                       ... done
                      ------------------
                      INITIAL GUESS DONE (   0.2 sec)
                      ------------------
--------------
SCF ITERATIONS
--------------
ITER       Energy         Delta-E        Max-DP      RMS-DP      [F,P]     Damp
               ***  Starting incremental Fock matrix formation  ***
  0  -1256.1597188207   0.000000000000 2.58031232  0.03570686  1.9228399 0.7000
  1  -1260.6892852052  -4.529566384478 1.80657529  0.01859043  0.7104094 0.7000
  2  -1262.0426293661  -1.353344160896 1.26827924  0.01424031  0.5425653 0.7000
  3  -1262.6580819787  -0.615452612649 0.88860534  0.01006313  0.5272044 0.7000
  4  -1263.0950701437  -0.436988164932 0.62187723  0.00698871  0.3520590 0.7000
  5  -1263.4085599333  -0.313489789624 0.43527444  0.00483439  0.2084181 0.7000
                               ***Turning on DIIS***
  6  -1263.6311409422  -0.222581008944 0.30476397  0.00337177  0.1252943 0.7000
  7  -1263.7913272087  -0.160186266457 0.71139337  0.00799905  0.0806569 0.0000
  8  -1264.1935475164  -0.402220307732 0.05478818  0.00081952  0.0427211 0.0000
  9  -1264.2033365725  -0.009789056045 0.02183475  0.00043268  0.0319593 0.0000
 10  -1264.2059931132  -0.002656540695 0.03174818  0.00036938  0.0396686 0.0000
 11  -1264.2106397667  -0.004646653543 0.02843579  0.00035678  0.0180175 0.0000
 12  -1264.2132017591  -0.002561992370 0.01427468  0.00025938  0.0103353 0.0000
 13  -1264.2142162534  -0.001014494307 0.01159397  0.00015583  0.0054058 0.0000
 14  -1264.2146648756  -0.000448622188 0.01083683  0.00012036  0.0042991 0.0000
 15  -1264.2149828182  -0.000317942660 0.01069314  0.00011257  0.0044744 0.0000
 16  -1264.2152748774  -0.000292059126 0.00941203  0.00010021  0.0046229 0.0000
 17  -1264.2155347263  -0.000259848906 0.00652189  0.00007173  0.0047505 0.0000
 18  -1264.2157220610  -0.000187334778 0.00320632  0.00003727  0.0048470 0.0000
 19  -1264.2158198128  -0.000097751745 0.00054999  0.00000779  0.0049048 0.0000
               *** Restarting incremental Fock matrix formation ***
                                   *** Resetting DIIS ***
 20  -1264.2158349880  -0.000015175221 0.00709409  0.00007934  0.0049248 0.0000
 21  -1264.2160470192  -0.000212031196 0.00693832  0.00007951  0.0050336 0.0000
 22  -1264.2162612591  -0.000214239938 0.00295834  0.00003609  0.0051212 0.0000
 23  -1264.2163585630  -0.000097303836 0.00190856  0.00002162  0.0051703 0.0000
 24  -1264.2163024669   0.000056096034 0.00064827  0.00000762  0.0051633 0.0000
 25  -1264.2162830958   0.000019371174 0.00467122  0.00005366  0.0051610 0.0000
 26  -1264.2164296787  -0.000146582952 0.00617177  0.00007329  0.0052125 0.0000
 27  -1264.2166315598  -0.000201881098 0.00384691  0.00004791  0.0052866 0.0000
 28  -1264.2167641388  -0.000132578984 0.00175173  0.00002086  0.0053433 0.0000
 29  -1264.2167104227   0.000053716094 0.00116562  0.00001399  0.0053453 0.0000
 30  -1264.2167504165  -0.000039993781 0.00409202  0.00004946  0.0053619 0.0000
 31  -1264.2168889561  -0.000138539609 0.00437288  0.00005468  0.0054004 0.0000
 32  -1264.2170429414  -0.000153985265 0.00222176  0.00002958  0.0054516 0.0000
 33  -1264.2171258754  -0.000082934022 0.00030931  0.00000499  0.0054901 0.0000
 34  -1264.2171214869   0.000004388484 0.00235960  0.00002973  0.0055032 0.0000
 35  -1264.2172071302  -0.000085643312 0.00370769  0.00004738  0.0055289 0.0000
 36  -1264.2173430410  -0.000135910842 0.00457377  0.00005990  0.0055641 0.0000
 37  -1264.2175156256  -0.000172584545 0.00286197  0.00003792  0.0056116 0.0000
 38  -1264.2176248268  -0.000109201239 0.00067845  0.00000868  0.0056488 0.0000
 39  -1264.2176050679   0.000019758965 0.00260521  0.00003438  0.0056583 0.0000
               *** Restarting incremental Fock matrix formation ***
                                   *** Resetting DIIS ***
 40  -1264.2177056421  -0.000100574280 0.00740627  0.00009654  0.0056823 0.0000
 41  -1264.2179883775  -0.000282735358 0.00729190  0.00009250  0.0057441 0.0000
 42  -1264.2182595845  -0.000271207004 0.00239038  0.00003005  0.0057913 0.0000
 43  -1264.2183454878  -0.000085903287 0.00258661  0.00003428  0.0058206 0.0000
 44  -1264.2182457353   0.000099752524 0.00073979  0.00000983  0.0058209 0.0000
 45  -1264.2182182151   0.000027520137 0.00631760  0.00007994  0.0058209 0.0000
 46  -1264.2184551619  -0.000236946738 0.00869201  0.00010733  0.0058479 0.0000
 47  -1264.2187736501  -0.000318488236 0.00712688  0.00008547  0.0058821 0.0000
 48  -1264.2190267576  -0.000253107526 0.00131146  0.00001703  0.0059177 0.0000
 49  -1264.2190701577  -0.000043400102 0.00457876  0.00005638  0.0059434 0.0000
 50  -1264.2189034599   0.000166697845 0.00337932  0.00004130  0.0059427 0.0000
 51  -1264.2190269882  -0.000123528315 0.00700855  0.00008341  0.0059502 0.0000
 52  -1264.2192753499  -0.000248361655 0.00942322  0.00011008  0.0059654 0.0000
 53  -1264.2196038020  -0.000328452135 0.00826296  0.00009400  0.0059829 0.0000
 54  -1264.2198822164  -0.000278414448 0.00127206  0.00001632  0.0060008 0.0000
 55  -1264.2199211735  -0.000038957080 0.00599478  0.00007018  0.0060240 0.0000
 56  -1264.2197126619   0.000208511587 0.00577341  0.00006697  0.0060371 0.0000
 57  -1264.2199134431  -0.000200781147 0.00748560  0.00008449  0.0060350 0.0000
 58  -1264.2201643396  -0.000250896545 0.01292555  0.00014352  0.0060297 0.0000
 59  -1264.2205890398  -0.000424700155 0.01011693  0.00010925  0.0060103 0.0000
               *** Restarting incremental Fock matrix formation ***
                                   *** Resetting DIIS ***
 60  -1264.2209076108  -0.000318570990 0.01019039  0.00010944  0.0059969 0.0000
 61  -1264.2212255444  -0.000317933661 0.00954014  0.00010025  0.0059781 0.0000
 62  -1264.2215112549  -0.000285710436 0.00812251  0.00008412  0.0059591 0.0000
 63  -1264.2217521827  -0.000240927872 0.01169865  0.00011977  0.0059371 0.0000
 64  -1264.2220911771  -0.000338994354 0.03055480  0.00030964  0.0058900 0.0000
 65  -1264.2229348508  -0.000843673722 0.01374032  0.00013457  0.0056744 0.0000
 66  -1264.2232871504  -0.000352299568 0.04816204  0.00047409  0.0055482 0.0000
 67  -1264.2244357948  -0.001148644431 0.00410625  0.00004964  0.0050154 0.0000
 68  -1264.2245232641  -0.000087469283 0.07259811  0.00070207  0.0049908 0.0000
 69  -1264.2259039457  -0.001380681585 0.02565821  0.00023699  0.0040593 0.0000
 70  -1264.2263291638  -0.000425218121 0.07964427  0.00075849  0.0035126 0.0000
 71  -1264.2271976416  -0.000868477758 0.00686187  0.00008380  0.0048842 0.0000
 72  -1264.2273280587  -0.000130417133 0.04006552  0.00037494  0.0021858 0.0000
 73  -1264.2275854856  -0.000257426947 0.01815840  0.00016380  0.0025203 0.0000
 74  -1264.2276982513  -0.000112765603 0.01597826  0.00014313  0.0015411 0.0000
 75  -1264.2277917009  -0.000093449653 0.01078477  0.00009895  0.0012687 0.0000
 76  -1264.2278612379  -0.000069536991 0.01347883  0.00012765  0.0011679 0.0000
 77  -1264.2279423508  -0.000081112946 0.01259276  0.00011773  0.0011935 0.0000
 78  -1264.2279985679  -0.000056217079 0.01796571  0.00017352  0.0012491 0.0000
 79  -1264.2280620946  -0.000063526640 0.00683289  0.00007394  0.0015100 0.0000
               *** Restarting incremental Fock matrix formation ***
                                   *** Resetting DIIS ***
 80  -1264.2280610700   0.000001024546 0.00183984  0.00003303  0.0012409 0.0000
 81  -1264.2280786051  -0.000017535061 0.00111185  0.00002738  0.0013623 0.0000
 82  -1264.2280922848  -0.000013679722 0.00198445  0.00002843  0.0010915 0.0000
 83  -1264.2281110397  -0.000018754873 0.00337385  0.00004736  0.0010084 0.0000
 84  -1264.2281391511  -0.000028111466 0.00590275  0.00009041  0.0008644 0.0000
 85  -1264.2281826326  -0.000043481456 0.00857274  0.00012966  0.0005894 0.0000
 86  -1264.2282236427  -0.000041010116 0.00642052  0.00010272  0.0002489 0.0000
 87  -1264.2282382044  -0.000014561649 0.00158463  0.00002122  0.0003141 0.0000
 88  -1264.2282402553  -0.000002050920 0.00207414  0.00002017  0.0002923 0.0000
 89  -1264.2282422685  -0.000002013194 0.00441270  0.00004274  0.0002502 0.0000
 90  -1264.2282451797  -0.000002911192 0.00267761  0.00002727  0.0001632 0.0000
 91  -1264.2282465620  -0.000001382360 0.00296088  0.00002853  0.0000831 0.0000
 92  -1264.2282471230  -0.000000561025 0.00076322  0.00001012  0.0000523 0.0000
 93  -1264.2282472604  -0.000000137328 0.00055336  0.00000499  0.0000248 0.0000
                 **** Energy Check signals convergence ****

               *****************************************************
               *                     SUCCESS                       *
               *           SCF CONVERGED AFTER  94 CYCLES          *
               *****************************************************


Setting up the DFT-NL grid :

General Integration Accuracy     IntAcc      ...  4.340
Radial Grid Type                 RadialGrid  ... Gauss-Chebyshev
Angular Grid (max. acc.)         AngularGrid ... Lebedev-110
Angular grid pruning method      GridPruning ... 3 (G Style)
Weight generation scheme         WeightScheme... Becke
Basis function cutoff            BFCut       ...    1.0000e-10
Integration weight cutoff        WCut        ...    1.0000e-14
Grids for H and He will be reduced by one unit

# of grid points (after initial pruning)     ...   3706 (   0.0 sec)
# of grid points (after weights+screening)   ...   3681 (   0.0 sec)
nearest neighbour list constructed           ...    0.0 sec
Grid point re-assignment to atoms done       ...    0.0 sec
Grid point division into batches done        ...    0.0 sec
Reduced shell lists constructed in    0.0 sec

Total number of grid points                  ...     3681
Total number of batches                      ...       59
Average number of points per batch           ...       62
Average number of grid points per atom       ...     1840
Average number of shells per batch           ...    20.25 (59.56%)
Average number of basis functions per batch  ...    56.25 (48.49%)
Average number of large shells per batch     ...    15.50 (76.54%)
Average number of large basis fcns per batch ...    44.50 (79.11%)
Maximum spatial batch extension              ...  37.20, 28.73, 20.01 au
Average spatial batch extension              ...   1.30,  1.32,  0.87 au

Final grid set up in    0.0 sec

-------------------------------------------------------------------------------
                         DFT-NL dispersion correction                          
-------------------------------------------------------------------------------

SC Energy -1264.228247287 
NL    Energy 0.114282658 
SC+NL Energy -1264.113964629 
NL done in    0.0 sec
-------------------------------------------------------------------------------

----------------
TOTAL SCF ENERGY
----------------

Total Energy       :        -1264.11396463 Eh          -34398.28975 eV

Components:
Nuclear Repulsion  :            8.91549001 Eh             242.60282 eV
Electronic Energy  :        -1273.02945464 Eh          -34640.89257 eV
One Electron Energy:        -1765.62417234 Eh          -48045.07629 eV
Two Electron Energy:          492.59471770 Eh           13404.18372 eV

Virial components:
Potential Energy   :        -2526.69689303 Eh          -68754.91789 eV
Kinetic Energy     :         1262.58292841 Eh           34356.62814 eV
Virial Ratio       :            2.00121262


DFT components:
N(Alpha)           :       15.000005548502 electrons
N(Beta)            :       12.000004718530 electrons
N(Total)           :       27.000010267033 electrons
E(X)               :      -41.684580637061 Eh       
E(C)               :       -1.542715739836 Eh       
NL Energy, E(C,NL) :        0.114282657963 Eh       
E(XC)              :      -43.113013718934 Eh       
DFET-embed. en.    :        0.000000000000 Eh       

---------------
SCF CONVERGENCE
---------------

  Last Energy change         ...   -2.6160e-08  Tolerance :   1.0000e-06
  Last MAX-Density change    ...    1.1012e-04  Tolerance :   1.0000e-05
  Last RMS-Density change    ...    1.3321e-06  Tolerance :   1.0000e-06
  Last DIIS Error            ...    1.1206e-05  Tolerance :   1.0000e-06

             **** THE GBW FILE WAS UPDATED (31_FeH.gbw) ****
             **** DENSITY FILE WAS UPDATED (31_FeH.scfp) ****
             **** ENERGY FILE WAS UPDATED (31_FeH.en.tmp) ****
----------------------
UHF SPIN CONTAMINATION
----------------------

Warning: in a DFT calculation there is little theoretical justification to 
         calculate <S**2> as in Hartree-Fock theory. We will do it anyways
         but you should keep in mind that the values have only limited relevance

Expectation value of <S**2>     :     3.851375
Ideal value S*(S+1) for S=1.5   :     3.750000
Deviation                       :     0.101375

             **** THE GBW FILE WAS UPDATED (31_FeH.gbw) ****
             **** DENSITY FILE WAS UPDATED (31_FeH.scfp) ****
----------------
ORBITAL ENERGIES
----------------
                 SPIN UP ORBITALS
  NO   OCC          E(Eh)            E(eV) 
   0   1.0000    -255.919499     -6963.9236 
   1   1.0000     -30.044658      -817.5567 
   2   1.0000     -25.904080      -704.8858 
   3   1.0000     -25.896654      -704.6838 
   4   1.0000     -25.882395      -704.2958 
   5   1.0000      -3.581956       -97.4700 
   6   1.0000      -2.376654       -64.6720 
   7   1.0000      -2.364026       -64.3284 
   8   1.0000      -2.337490       -63.6063 
   9   1.0000      -0.423728       -11.5302 
  10   1.0000      -0.409458       -11.1419 
  11   1.0000      -0.400666       -10.9027 
  12   1.0000      -0.397893       -10.8272 
  13   1.0000      -0.365917        -9.9571 
  14   1.0000      -0.317310        -8.6344 
  15   0.0000      -0.014187        -0.3860 
  16   0.0000       0.020662         0.5622 
  17   0.0000       0.022417         0.6100 
  18   0.0000       0.029677         0.8076 
  19   0.0000       0.037256         1.0138 
  20   0.0000       0.068442         1.8624 
  21   0.0000       0.070502         1.9184 
  22   0.0000       0.093835         2.5534 
  23   0.0000       0.101213         2.7541 
  24   0.0000       0.101686         2.7670 
  25   0.0000       0.101863         2.7718 
  26   0.0000       0.102195         2.7809 
  27   0.0000       0.105211         2.8629 
  28   0.0000       0.171225         4.6593 
  29   0.0000       0.226357         6.1595 
  30   0.0000       0.244330         6.6486 
  31   0.0000       0.247810         6.7433 
  32   0.0000       0.287011         7.8100 
  33   0.0000       0.326363         8.8808 
  34   0.0000       0.327122         8.9014 
  35   0.0000       0.348612         9.4862 
  36   0.0000       0.349598         9.5131 
  37   0.0000       0.371535        10.1100 
  38   0.0000       0.372084        10.1249 
  39   0.0000       0.375957        10.2303 
  40   0.0000       0.593635        16.1536 
  41   0.0000       0.619969        16.8702 
  42   0.0000       0.769264        20.9327 
  43   0.0000       0.809555        22.0291 
  44   0.0000       0.809859        22.0374 
  45   0.0000       0.839317        22.8390 
  46   0.0000       0.843099        22.9419 
  47   0.0000       0.946082        25.7442 
  48   0.0000       0.946096        25.7446 
  49   0.0000       0.956273        26.0215 
  50   0.0000       0.956345        26.0235 
  51   0.0000       0.957967        26.0676 
  52   0.0000       1.051623        28.6161 
  53   0.0000       1.053938        28.6791 
  54   0.0000       1.073283        29.2055 
  55   0.0000       1.112273        30.2665 
  56   0.0000       1.113505        30.3000 
  57   0.0000       1.147965        31.2377 
  58   0.0000       1.148447        31.2508 
  59   0.0000       1.235012        33.6064 
  60   0.0000       1.238808        33.7097 
  61   0.0000       1.421424        38.6789 
  62   0.0000       1.517822        41.3020 
  63   0.0000       1.756039        47.7843 
  64   0.0000       1.758820        47.8599 
  65   0.0000       2.236738        60.8647 
  66   0.0000       2.762685        75.1765 
  67   0.0000       2.767645        75.3114 
  68   0.0000       2.778214        75.5990 
  69   0.0000       2.779481        75.6335 
  70   0.0000       2.809710        76.4561 
  71   0.0000       2.813772        76.5666 
  72   0.0000       2.850022        77.5530 
  73   0.0000       3.024360        82.2970 
  74   0.0000       3.093409        84.1759 
  75   0.0000       3.117847        84.8409 
  76   0.0000       3.119072        84.8743 
  77   0.0000       3.406231        92.6883 
  78   0.0000       3.406462        92.6945 
  79   0.0000       3.409284        92.7713 
  80   0.0000       3.431388        93.3728 
  81   0.0000       3.431535        93.3768 
  82   0.0000       3.434621        93.4608 
  83   0.0000       3.435423        93.4826 
  84   0.0000       3.443805        93.7107 
  85   0.0000       3.446754        93.7909 
  86   0.0000       3.658567        99.5547 
  87   0.0000       3.910323       106.4053 
  88   0.0000       3.910925       106.4217 
  89   0.0000       4.149859       112.9234 
  90   0.0000       4.151289       112.9623 
  91   0.0000       4.577008       124.5467 
  92   0.0000       4.584309       124.7454 
  93   0.0000       4.610430       125.4562 
  94   0.0000       4.618732       125.6821 
  95   0.0000       4.906513       133.5130 
  96   0.0000       4.965419       135.1159 
  97   0.0000       4.983385       135.6048 
  98   0.0000       5.297450       144.1509 
  99   0.0000       5.942412       161.7012 
 100   0.0000       9.011502       245.2154 
 101   0.0000       9.012832       245.2516 
 102   0.0000       9.054047       246.3731 
 103   0.0000       9.062410       246.6007 
 104   0.0000       9.113415       247.9886 
 105   0.0000       9.144565       248.8363 
 106   0.0000       9.431128       256.6340 
 107   0.0000       9.742253       265.1002 
 108   0.0000       9.742395       265.1040 
 109   0.0000       9.758710       265.5480 
 110   0.0000       9.758788       265.5501 
 111   0.0000       9.804699       266.7994 
 112   0.0000       9.810943       266.9693 
 113   0.0000      10.015148       272.5260 
 114   0.0000      10.035223       273.0723 
 115   0.0000      10.321488       280.8620 

                 SPIN DOWN ORBITALS
  NO   OCC          E(Eh)            E(eV) 
   0   1.0000    -255.918925     -6963.9080 
   1   1.0000     -29.988124      -816.0183 
   2   1.0000     -25.853682      -703.5144 
   3   1.0000     -25.848539      -703.3745 
   4   1.0000     -25.843943      -703.2494 
   5   1.0000      -3.445681       -93.7618 
   6   1.0000      -2.211835       -60.1871 
   7   1.0000      -2.211492       -60.1778 
   8   1.0000      -2.209985       -60.1368 
   9   1.0000      -0.388694       -10.5769 
  10   1.0000      -0.300468        -8.1762 
  11   1.0000      -0.270372        -7.3572 
  12   0.0000      -0.005974        -0.1626 
  13   0.0000       0.020390         0.5548 
  14   0.0000       0.021242         0.5780 
  15   0.0000       0.028903         0.7865 
  16   0.0000       0.037081         1.0090 
  17   0.0000       0.068525         1.8647 
  18   0.0000       0.069163         1.8820 
  19   0.0000       0.072987         1.9861 
  20   0.0000       0.073955         2.0124 
  21   0.0000       0.080672         2.1952 
  22   0.0000       0.094234         2.5642 
  23   0.0000       0.100954         2.7471 
  24   0.0000       0.103881         2.8267 
  25   0.0000       0.113094         3.0775 
  26   0.0000       0.116577         3.1722 
  27   0.0000       0.122571         3.3353 
  28   0.0000       0.175213         4.7678 
  29   0.0000       0.230138         6.2624 
  30   0.0000       0.252677         6.8757 
  31   0.0000       0.253107         6.8874 
  32   0.0000       0.295545         8.0422 
  33   0.0000       0.330034         8.9807 
  34   0.0000       0.339922         9.2497 
  35   0.0000       0.365704         9.9513 
  36   0.0000       0.372892        10.1469 
  37   0.0000       0.375668        10.2224 
  38   0.0000       0.387218        10.5367 
  39   0.0000       0.387726        10.5506 
  40   0.0000       0.612463        16.6660 
  41   0.0000       0.619583        16.8597 
  42   0.0000       0.780910        21.2496 
  43   0.0000       0.813097        22.1255 
  44   0.0000       0.813864        22.1464 
  45   0.0000       0.862098        23.4589 
  46   0.0000       0.866598        23.5813 
  47   0.0000       0.954495        25.9731 
  48   0.0000       0.954682        25.9782 
  49   0.0000       0.956613        26.0308 
  50   0.0000       0.957198        26.0467 
  51   0.0000       0.961885        26.1742 
  52   0.0000       1.063510        28.9396 
  53   0.0000       1.071182        29.1484 
  54   0.0000       1.094186        29.7743 
  55   0.0000       1.122879        30.5551 
  56   0.0000       1.125067        30.6146 
  57   0.0000       1.156578        31.4721 
  58   0.0000       1.172822        31.9141 
  59   0.0000       1.280319        34.8393 
  60   0.0000       1.291528        35.1443 
  61   0.0000       1.432785        38.9881 
  62   0.0000       1.535161        41.7739 
  63   0.0000       1.774048        48.2743 
  64   0.0000       1.785333        48.5814 
  65   0.0000       2.246355        61.1264 
  66   0.0000       2.813291        76.5535 
  67   0.0000       2.825134        76.8758 
  68   0.0000       2.849030        77.5260 
  69   0.0000       2.855325        77.6973 
  70   0.0000       2.871949        78.1497 
  71   0.0000       2.878066        78.3162 
  72   0.0000       2.888818        78.6087 
  73   0.0000       3.085752        83.9676 
  74   0.0000       3.117166        84.8224 
  75   0.0000       3.190192        86.8095 
  76   0.0000       3.191772        86.8525 
  77   0.0000       3.429720        93.3274 
  78   0.0000       3.433242        93.4233 
  79   0.0000       3.444784        93.7373 
  80   0.0000       3.464844        94.2832 
  81   0.0000       3.471233        94.4571 
  82   0.0000       3.471955        94.4767 
  83   0.0000       3.473620        94.5220 
  84   0.0000       3.474013        94.5327 
  85   0.0000       3.479855        94.6917 
  86   0.0000       3.697157       100.6048 
  87   0.0000       3.912663       106.4690 
  88   0.0000       3.913792       106.4997 
  89   0.0000       4.142189       112.7147 
  90   0.0000       4.143201       112.7422 
  91   0.0000       4.595039       125.0374 
  92   0.0000       4.606303       125.3439 
  93   0.0000       4.713796       128.2689 
  94   0.0000       4.729972       128.7091 
  95   0.0000       4.908162       133.5579 
  96   0.0000       5.034095       136.9847 
  97   0.0000       5.065345       137.8351 
  98   0.0000       5.345631       145.4620 
  99   0.0000       5.983357       162.8154 
 100   0.0000       9.150957       249.0102 
 101   0.0000       9.151918       249.0364 
 102   0.0000       9.175732       249.6844 
 103   0.0000       9.181569       249.8432 
 104   0.0000       9.231989       251.2152 
 105   0.0000       9.255080       251.8435 
 106   0.0000       9.532542       259.3937 
 107   0.0000       9.843670       267.8599 
 108   0.0000       9.844682       267.8874 
 109   0.0000       9.847505       267.9642 
 110   0.0000       9.848052       267.9791 
 111   0.0000       9.891728       269.1676 
 112   0.0000       9.893463       269.2148 
 113   0.0000      10.097460       274.7659 
 114   0.0000      10.110870       275.1308 
 115   0.0000      10.401733       283.0455 

                    ********************************
                    * MULLIKEN POPULATION ANALYSIS *
                    ********************************

--------------------------------------------
MULLIKEN ATOMIC CHARGES AND SPIN POPULATIONS
--------------------------------------------
   0 Fe:    0.106779    3.085055
   1 H :   -0.106779   -0.085055
Sum of atomic charges         :   -0.0000000
Sum of atomic spin populations:    3.0000000

-----------------------------------------------------
MULLIKEN REDUCED ORBITAL CHARGES AND SPIN POPULATIONS
-----------------------------------------------------
CHARGE
  0 Fes       :     7.006163  s :     7.006163
      pz      :     4.145689  p :    12.148987
      px      :     4.001387
      py      :     4.001911
      dz2     :     1.400778  d :     6.733752
      dxz     :     1.290306
      dyz     :     1.703305
      dx2y2   :     1.058006
      dxy     :     1.281357
      f0      :     0.003660  f :     0.004059
      f+1     :     0.000067
      f-1     :     0.000094
      f+2     :     0.000084
      f-2     :     0.000141
      f+3     :     0.000002
      f-3     :     0.000011
      g0      :     0.000215  g :     0.000260
      g+1     :     0.000005
      g-1     :     0.000010
      g+2     :     0.000004
      g-2     :     0.000011
      g+3     :     0.000007
      g-3     :     0.000001
      g+4     :     0.000003
      g-4     :     0.000004
  1 H s       :     1.105638  s :     1.105638
      pz      :    -0.002835  p :     0.000908
      px      :     0.001410
      py      :     0.002332
      dz2     :     0.000933  d :     0.000234
      dxz     :    -0.000477
      dyz     :    -0.000371
      dx2y2   :     0.000058
      dxy     :     0.000091

SPIN
  0 Fes       :    -0.012123  s :    -0.012123
      pz      :    -0.021100  p :    -0.021458
      px      :    -0.000043
      py      :    -0.000316
      dz2     :     0.457643  d :     3.118887
      dxz     :     0.707101
      dyz     :     0.294171
      dx2y2   :     0.941720
      dxy     :     0.718253
      f0      :    -0.000280  f :    -0.000211
      f+1     :     0.000004
      f-1     :    -0.000002
      f+2     :     0.000058
      f-2     :     0.000017
      f+3     :     0.000000
      f-3     :    -0.000009
      g0      :    -0.000035  g :    -0.000040
      g+1     :    -0.000001
      g-1     :    -0.000004
      g+2     :     0.000002
      g-2     :    -0.000001
      g+3     :    -0.000003
      g-3     :     0.000001
      g+4     :     0.000000
      g-4     :    -0.000000
  1 H s       :    -0.081067  s :    -0.081067
      pz      :    -0.002997  p :    -0.003358
      px      :     0.000378
      py      :    -0.000739
      dz2     :    -0.000154  d :    -0.000631
      dxz     :    -0.000142
      dyz     :    -0.000397
      dx2y2   :     0.000043
      dxy     :     0.000019


                     *******************************
                     * LOEWDIN POPULATION ANALYSIS *
                     *******************************

-------------------------------------------
LOEWDIN ATOMIC CHARGES AND SPIN POPULATIONS
-------------------------------------------
   0 Fe:    0.685259    2.997495
   1 H :   -0.685259    0.002505

----------------------------------------------------
LOEWDIN REDUCED ORBITAL CHARGES AND SPIN POPULATIONS
----------------------------------------------------
CHARGE
  0 Fes       :     6.705509  s :     6.705509
      pz      :     4.109567  p :    12.022140
      px      :     3.954763
      py      :     3.957809
      dz2     :     1.381617  d :     6.563394
      dxz     :     1.233079
      dyz     :     1.622612
      dx2y2   :     1.052277
      dxy     :     1.273809
      f0      :     0.017146  f :     0.022312
      f+1     :     0.001938
      f-1     :     0.002505
      f+2     :     0.000291
      f-2     :     0.000419
      f+3     :     0.000002
      f-3     :     0.000011
      g0      :     0.001045  g :     0.001386
      g+1     :     0.000125
      g-1     :     0.000165
      g+2     :     0.000013
      g-2     :     0.000022
      g+3     :     0.000007
      g-3     :     0.000001
      g+4     :     0.000003
      g-4     :     0.000004
  1 H s       :     1.098563  s :     1.098563
      pz      :     0.210225  p :     0.308849
      px      :     0.043299
      py      :     0.055325
      dz2     :     0.136568  d :     0.277846
      dxz     :     0.059494
      dyz     :     0.068864
      dx2y2   :     0.005571
      dxy     :     0.007350

SPIN
  0 Fes       :    -0.020077  s :    -0.020077
      pz      :    -0.030637  p :    -0.028383
      px      :     0.002350
      py      :    -0.000096
      dz2     :     0.430781  d :     3.046337
      dxz     :     0.678212
      dyz     :     0.285431
      dx2y2   :     0.936884
      dxy     :     0.715029
      f0      :    -0.001670  f :    -0.000450
      f+1     :     0.000648
      f-1     :     0.000221
      f+2     :     0.000231
      f-2     :     0.000128
      f+3     :     0.000000
      f-3     :    -0.000009
      g0      :    -0.000074  g :     0.000069
      g+1     :     0.000074
      g-1     :     0.000059
      g+2     :     0.000009
      g-2     :     0.000003
      g+3     :    -0.000003
      g-3     :     0.000001
      g+4     :     0.000000
      g-4     :    -0.000000
  1 H s       :    -0.040282  s :    -0.040282
      pz      :     0.000556  p :     0.015230
      px      :     0.012458
      py      :     0.002216
      dz2     :     0.001291  d :     0.027557
      dxz     :     0.013554
      dyz     :     0.004883
      dx2y2   :     0.004699
      dxy     :     0.003128


                      *****************************
                      * MAYER POPULATION ANALYSIS *
                      *****************************

  NA   - Mulliken gross atomic population
  ZA   - Total nuclear charge
  QA   - Mulliken gross atomic charge
  VA   - Mayer's total valence
  BVA  - Mayer's bonded valence
  FA   - Mayer's free valence

  ATOM       NA         ZA         QA         VA         BVA        FA
  0 Fe    25.8932    26.0000     0.1068     4.2180     1.0689     3.1491
  1 H      1.1068     1.0000    -0.1068     1.0750     1.0689     0.0061

  Mayer bond orders larger than 0.100000
B(  0-Fe,  1-H ) :   1.0689 

-------
TIMINGS
-------

Total SCF time: 0 days 0 hours 19 min 14 sec 

Total time                  ....    1154.645 sec
Sum of individual times     ....    1154.178 sec  (100.0%)

Fock matrix formation       ....    1153.444 sec  ( 99.9%)
  XC integration            ....       1.641 sec  (  0.1% of F)
    Basis function eval.    ....       0.382 sec  ( 23.3% of XC)
    Density eval.           ....       0.180 sec  ( 11.0% of XC)
    XC-Functional eval.     ....       0.090 sec  (  5.5% of XC)
    XC-Potential eval.      ....       0.394 sec  ( 24.0% of XC)
Diagonalization             ....       0.320 sec  (  0.0%)
Density matrix formation    ....       0.047 sec  (  0.0%)
Population analysis         ....       0.005 sec  (  0.0%)
Initial guess               ....       0.095 sec  (  0.0%)
Orbital Transformation      ....       0.000 sec  (  0.0%)
Orbital Orthonormalization  ....       0.000 sec  (  0.0%)
DIIS solution               ....       0.135 sec  (  0.0%)
Grid generation             ....       0.132 sec  (  0.0%)

-------------------------   --------------------
FINAL SINGLE POINT ENERGY     -1264.113964628574
-------------------------   --------------------


                            ***************************************
                            *     ORCA property calculations      *
                            ***************************************

                                    ---------------------
                                    Active property flags
                                    ---------------------
   (+) Dipole Moment


------------------------------------------------------------------------------
                       ORCA ELECTRIC PROPERTIES CALCULATION
------------------------------------------------------------------------------

Dipole Moment Calculation                       ... on
Quadrupole Moment Calculation                   ... off
Polarizability Calculation                      ... off
GBWName                                         ... 31_FeH.gbw
Electron density file                           ... 31_FeH.scfp
The origin for moment calculation is the CENTER OF MASS  = ( 0.000000,  0.000000  0.483291)

-------------
DIPOLE MOMENT
-------------
                                X             Y             Z
Electronic contribution:      0.00000       0.00000      -2.72015
Nuclear contribution   :      0.00000       0.00000       1.52035
                        -----------------------------------------
Total Dipole Moment    :      0.00000       0.00000      -1.19980
                        -----------------------------------------
Magnitude (a.u.)       :      1.19980
Magnitude (Debye)      :      3.04965



--------------------
Rotational spectrum 
--------------------
 
Rotational constants in cm-1:     0.000000     7.149016     7.149016 
Rotational constants in MHz :     0.000000 214322.097628 214322.097628 

 Dipole components along the rotational axes: 
x,y,z [a.u.] :    -1.199800     0.000000     0.000000 
x,y,z [Debye]:    -3.049648     0.000000     0.000000 

 

Timings for individual modules:

Sum of individual times         ...     1158.132 sec (=  19.302 min)
GTO integral calculation        ...        2.945 sec (=   0.049 min)   0.3 %
SCF iterations                  ...     1155.187 sec (=  19.253 min)  99.7 %
                             ****ORCA TERMINATED NORMALLY****
TOTAL RUN TIME: 0 days 0 hours 19 minutes 18 seconds 872 msec
