
                                 *****************
                                 * O   R   C   A *
                                 *****************

           --- An Ab Initio, DFT and Semiempirical electronic structure package ---

                  #######################################################
                  #                        -***-                        #
                  #          Department of theory and spectroscopy      #
                  #               Directorship: Frank Neese             #
                  #        Max Planck Institute fuer Kohlenforschung    #
                  #                Kaiser Wilhelm Platz 1               #
                  #                 D-45470 Muelheim/Ruhr               #
                  #                      Germany                        #
                  #                                                     #
                  #                  All rights reserved                #
                  #                        -***-                        #
                  #######################################################


                         Program Version 4.2.0 -  RELEASE  -


 With contributions from (in alphabetic order):
   Daniel Aravena         : Magnetic Suceptibility
   Michael Atanasov       : Ab Initio Ligand Field Theory (pilot matlab implementation)
   Alexander A. Auer      : GIAO ZORA, VPT2
   Ute Becker             : Parallelization
   Giovanni Bistoni       : ED, misc. LED, open-shell LED, HFLED
   Martin Brehm           : Molecular dynamics
   Dmytro Bykov           : SCF Hessian
   Vijay G. Chilkuri      : MRCI spin determinant printing, contributions to CSF-ICE
   Dipayan Datta          : RHF DLPNO-CCSD density
   Achintya Kumar Dutta   : EOM-CC, STEOM-CC
   Dmitry Ganyushin       : Spin-Orbit,Spin-Spin,Magnetic field MRCI
   Miquel Garcia          : C-PCM Hessian, Gaussian charge scheme
   Yang Guo               : DLPNO-NEVPT2, CIM, IAO-localization
   Andreas Hansen         : Spin unrestricted coupled pair/coupled cluster methods
   Benjamin Helmich-Paris : CASSCF linear response (MC-RPA)
   Lee Huntington         : MR-EOM, pCC
   Robert Izsak           : Overlap fitted RIJCOSX, COSX-SCS-MP3, EOM
   Christian Kollmar      : KDIIS, OOCD, Brueckner-CCSD(T), CCSD density
   Simone Kossmann        : Meta GGA functionals, TD-DFT gradient, OOMP2, MP2 Hessian
   Martin Krupicka        : AUTO-CI
   Lucas Lang             : DCDCAS
   Dagmar Lenk            : GEPOL surface, SMD
   Dimitrios Liakos       : Extrapolation schemes; Compound Job, initial MDCI parallelization
   Dimitrios Manganas     : Further ROCIS development; embedding schemes
   Dimitrios Pantazis     : SARC Basis sets
   Taras Petrenko         : DFT Hessian,TD-DFT gradient, ASA, ECA, R-Raman, ABS, FL, XAS/XES, NRVS
   Peter Pinski           : DLPNO-MP2, DLPNO-MP2 Gradient
   Christoph Reimann      : Effective Core Potentials
   Marius Retegan         : Local ZFS, SOC
   Christoph Riplinger    : Optimizer, TS searches, QM/MM, DLPNO-CCSD(T), (RO)-DLPNO pert. Triples
   Tobias Risthaus        : Range-separated hybrids, TD-DFT gradient, RPA, STAB
   Michael Roemelt        : Original ROCIS implementation
   Masaaki Saitow         : Open-shell DLPNO-CCSD energy and density
   Barbara Sandhoefer     : DKH picture change effects
   Avijit Sen             : IP-ROCIS
   Kantharuban Sivalingam : CASSCF convergence, NEVPT2, FIC-MRCI
   Bernardo de Souza      : ESD, SOC TD-DFT
   Georgi Stoychev        : AutoAux, RI-MP2 NMR
   Willem Van den Heuvel  : Paramagnetic NMR
   Boris Wezisla          : Elementary symmetry handling
   Frank Wennmohs         : Technical directorship


 We gratefully acknowledge several colleagues who have allowed us to
 interface, adapt or use parts of their codes:
   Stefan Grimme, W. Hujo, H. Kruse,             : VdW corrections, initial TS optimization,
                  C. Bannwarth                     DFT functionals, gCP, sTDA/sTD-DF
   Ed Valeev, F. Pavosevic, A. Kumar             : LibInt (2-el integral package), F12 methods
   Garnet Chan, S. Sharma, J. Yang, R. Olivares  : DMRG
   Ulf Ekstrom                                   : XCFun DFT Library
   Mihaly Kallay                                 : mrcc  (arbitrary order and MRCC methods)
   Andreas Klamt, Michael Diedenhofen            : otool_cosmo (COSMO solvation model)
   Jiri Pittner, Ondrej Demel                    : Mk-CCSD
   Frank Weinhold                                : gennbo (NPA and NBO analysis)
   Christopher J. Cramer and Donald G. Truhlar   : smd solvation model
   Lars Goerigk                                  : TD-DFT with DH, B97 family of functionals
   V. Asgeirsson, H. Jonsson                     : NEB implementation
   FAccTs GmbH                                   : IRC, NEB, NEB-TS, Multilevel, MM, QM/MM, CI optimization
   S Lehtola, MJT Oliveira, MAL Marques          : LibXC Library


 Your calculation uses the libint2 library for the computation of 2-el integrals
 For citations please refer to: http://libint.valeyev.net

 Your ORCA version has been built with support for libXC version: 4.2.3
 For citations please refer to: https://tddft.org/programs/libxc/

 This ORCA versions uses:
   CBLAS   interface :  Fast vector & matrix operations
   LAPACKE interface :  Fast linear algebra routines
   SCALAPACK package :  Parallel linear algebra routines


Your calculation utilizes the DFT-NL dispersion correction.
Cite in your paper:
Vydrov, O. A.; Van Voorhis, T. J. Chem. Phys. 2010, 133, 244103
Hujo, W.; Grimme, S. J. Chem. Theory Comput. 2011, 7, 3866 
   

----- Orbital basis set information -----
Your calculation utilizes the basis: aug-cc-pVTZ 
    H, B-Ne : Obtained from the ccRepo (grant-hill.group.shef.ac.uk/ccrepo) Feb. 2017
              R. A. Kendall, T. H. Dunning, Jr., R. J. Harrison, J. Chem. Phys. 96, 6796 (1992)
         He : Obtained from the ccRepo (grant-hill.group.shef.ac.uk/ccrepo) Feb. 2017
              D. E. Woon, T. H. Dunning, Jr., J. Chem. Phys. 100, 2975 (1994)
  Li-Be, Na : Obtained from the ccRepo (grant-hill.group.shef.ac.uk/ccrepo) Feb. 2017
              B. P. Prascher, D. E. Woon, K. A. Peterson, T. H. Dunning, Jr., A. K. Wilson, Theor. Chem. Acc. 128, 69 (2011)
         Mg : Obtained from the Peterson Research Group Website (tyr0.chem.wsu.edu/~kipeters) Feb. 2017
              B. P. Prascher, D. E. Woon, K. A. Peterson, T. H. Dunning, Jr., A. K. Wilson, Theor. Chem. Acc. 128, 69 (2011)
      Al-Ar : Obtained from the ccRepo (grant-hill.group.shef.ac.uk/ccrepo) Feb. 2017
              D. E. Woon, T. H. Dunning, Jr., J. Chem. Phys. 98, 1358 (1993)
      Sc-Zn : Obtained from the ccRepo (grant-hill.group.shef.ac.uk/ccrepo) Feb. 2017
              N. B. Balabanov, K. A. Peterson, J. Chem. Phys. 123, 064107 (2005)
              N. B. Balabanov, K. A. Peterson, J. Chem. Phys. 125, 074110 (2006)
      Ga-Kr : Obtained from the ccRepo (grant-hill.group.shef.ac.uk/ccrepo) Feb. 2017
              A. K. Wilson, D. E. Woon, K. A. Peterson, T. H. Dunning, Jr., J. Chem. Phys. 110, 7667 (1999)
     Ag, Au : Obtained from the Peterson Research Group Website (tyr0.chem.wsu.edu/~kipeters) Feb. 2017
              K. A. Peterson, C. Puzzarini, Theor. Chem. Acc. 114, 283 (2005)

----- AuxJK basis set information -----
Your calculation utilizes the auxiliary basis: def2/JK
   H-Ba, Hf-Rn: F. Weigend, J. Comput. Chem. 29, 167 (2008).

================================================================================
                                        WARNINGS
                       Please study these warnings very carefully!
================================================================================


WARNING: your system is open-shell and RHF/RKS was chosen
  ===> : WILL SWITCH to UHF/UKS


INFO   : the flag for use of LIBINT has been found!

================================================================================
                                       INPUT FILE
================================================================================
NAME = 36_FeS.in
|  1> #
|  2> # 36_FeS wb97x-v/aug-cc-pvtz
|  3> #
|  4> ! wb97x-v aug-cc-pvtz def2/jk grid4 nofinalgrid
|  5> 
|  6> *xyz 0 5
|  7>   Fe  0.00000000000000      0.00000000000000     -0.00599090985654
|  8>   S   0.00000000000000      0.00000000000000      2.00599090985654
|  9> *
| 10> 
| 11> %pal
| 12> nprocs 24
| 13> end
| 14> 
| 15> 
| 16>                          ****END OF INPUT****
================================================================================

                       ****************************
                       * Single Point Calculation *
                       ****************************

---------------------------------
CARTESIAN COORDINATES (ANGSTROEM)
---------------------------------
  Fe     0.000000    0.000000   -0.005991
  S      0.000000    0.000000    2.005991

----------------------------
CARTESIAN COORDINATES (A.U.)
----------------------------
  NO LB      ZA    FRAG     MASS         X           Y           Z
   0 Fe   26.0000    0    55.850    0.000000    0.000000   -0.011321
   1 S    16.0000    0    32.060    0.000000    0.000000    3.790773

--------------------------------
INTERNAL COORDINATES (ANGSTROEM)
--------------------------------
 Fe     0   0   0     0.000000000000     0.00000000     0.00000000
 S      1   0   0     2.011981819713     0.00000000     0.00000000

---------------------------
INTERNAL COORDINATES (A.U.)
---------------------------
 Fe     0   0   0     0.000000000000     0.00000000     0.00000000
 S      1   0   0     3.802094625686     0.00000000     0.00000000

---------------------
BASIS SET INFORMATION
---------------------
There are 2 groups of distinct atoms

 Group   1 Type Fe  : 116s77p23d3f2g contracted to 8s7p5d3f2g pattern {19191919191911/151515151511/77711/111/11}
 Group   2 Type S   : 42s17p3d2f contracted to 6s5p3d2f pattern {131313111/77111/111/11}

Atom   0Fe   basis set group =>   1
Atom   1S    basis set group =>   2
----------------------------------
AUXILIARY/JK BASIS SET INFORMATION
----------------------------------
There are 2 groups of distinct atoms

 Group   1 Type Fe  : 19s14p12d10f7g3h1i contracted to 16s13p11d9f5g3h1i pattern {4111111111111111/2111111111111/21111111111/211111111/31111/111/1}
 Group   2 Type S   : 16s12p10d4f1g contracted to 13s11p9d4f1g pattern {4111111111111/21111111111/211111111/1111/1}

Atom   0Fe   basis set group =>   1
Atom   1S    basis set group =>   2


           ************************************************************
           *        Program running with 24 parallel MPI-processes    *
           *              working on a common directory               *
           ************************************************************
------------------------------------------------------------------------------
                           ORCA GTO INTEGRAL CALCULATION
------------------------------------------------------------------------------

                         BASIS SET STATISTICS AND STARTUP INFO

 # of primitive gaussian shells          ...  285
 # of primitive gaussian functions       ...  623
 # of contracted shells                  ...   41
 # of contracted basis functions         ...  143
 Highest angular momentum                ...    4
 Maximum contraction depth               ...   19
 Integral package used                   ... LIBINT
 Integral threshhold            Thresh   ...  1.000e-10
 Primitive cut-off              TCut     ...  1.000e-11


------------------------------ INTEGRAL EVALUATION ----------------------------


 * One electron integrals 
 Pre-screening matrix                    ... done
 Shell pair data                         ... done (   0.001 sec)



           ************************************************************
           *        Program running with 24 parallel MPI-processes    *
           *              working on a common directory               *
           ************************************************************
-------------------------------------------------------------------------------
                                 ORCA SCF
-------------------------------------------------------------------------------

------------
SCF SETTINGS
------------
Hamiltonian:
 Density Functional     Method          .... DFT(GTOs)
 Exchange Functional    Exchange        .... WB97X-V
 Correlation Functional Correlation     .... WB97X-V
 Gradients option       PostSCFGGA      .... off
 Hybrid DFT is turned on
   Fraction HF Exchange ScalHFX         ....  0.167000
   Scaling of DF-GGA-X  ScalDFX         ....  0.000000
   Scaling of DF-GGA-C  ScalDFC         ....  1.000000
   Scaling of DF-LDA-C  ScalLDAC        ....  1.000000
   Perturbative correction              ....  0.000000
   Density functional embedding theory  .... OFF
 Long-range corrected/Screened/Range-Separated Hybrid DFT is turned on
   Amount of maximum screened exact exchange              ....  0.833000
   Range separation parameter mu (erf(mu*r12)/r12)        ....  0.300000
   NL short-range parameter             ....  6.000000
   NL long-range parameter              ....  0.010000


General Settings:
 Integral files         IntName         .... 36_FeS
 Hartree-Fock type      HFTyp           .... UHF
 Total Charge           Charge          ....    0
 Multiplicity           Mult            ....    5
 Number of Electrons    NEL             ....   42
 Basis Dimension        Dim             ....  143
 Nuclear Repulsion      ENuc            ....    109.4133736677 Eh

Convergence Acceleration:
 DIIS                   CNVDIIS         .... on
   Start iteration      DIISMaxIt       ....    12
   Startup error        DIISStart       ....  0.200000
   # of expansion vecs  DIISMaxEq       ....     5
   Bias factor          DIISBfac        ....   1.050
   Max. coefficient     DIISMaxC        ....  10.000
 Newton-Raphson         CNVNR           .... off
 SOSCF                  CNVSOSCF        .... off
 Level Shifting         CNVShift        .... on
   Level shift para.    LevelShift      ....    0.2500
   Turn off err/grad.   ShiftErr        ....    0.0010
 Zerner damping         CNVZerner       .... off
 Static damping         CNVDamp         .... on
   Fraction old density DampFac         ....    0.7000
   Max. Damping (<1)    DampMax         ....    0.9800
   Min. Damping (>=0)   DampMin         ....    0.0000
   Turn off err/grad.   DampErr         ....    0.1000
 Fernandez-Rico         CNVRico         .... off

SCF Procedure:
 Maximum # iterations   MaxIter         ....   125
 SCF integral mode      SCFMode         .... Direct
   Integral package                     .... LIBINT
 Reset frequency        DirectResetFreq ....    20
 Integral Threshold     Thresh          ....  1.000e-10 Eh
 Primitive CutOff       TCut            ....  1.000e-11 Eh

Convergence Tolerance:
 Convergence Check Mode ConvCheckMode   .... Total+1el-Energy
 Convergence forced     ConvForced      .... 0
 Energy Change          TolE            ....  1.000e-06 Eh
 1-El. energy change                    ....  1.000e-03 Eh
 DIIS Error             TolErr          ....  1.000e-06


Diagonalization of the overlap matrix:
Smallest eigenvalue                        ... 9.650e-05
Time for diagonalization                   ...    0.005 sec
Threshold for overlap eigenvalues          ... 1.000e-08
Number of eigenvalues below threshold      ... 0
Time for construction of square roots      ...    0.002 sec
Total time needed                          ...    0.007 sec

-------------------
DFT GRID GENERATION
-------------------

General Integration Accuracy     IntAcc      ...  4.670
Radial Grid Type                 RadialGrid  ... Gauss-Chebyshev
Angular Grid (max. acc.)         AngularGrid ... Lebedev-302
Angular grid pruning method      GridPruning ... 3 (G Style)
Weight generation scheme         WeightScheme... Becke
Basis function cutoff            BFCut       ...    1.0000e-10
Integration weight cutoff        WCut        ...    1.0000e-14
Grids for H and He will be reduced by one unit

# of grid points (after initial pruning)     ...  16486 (   0.0 sec)
# of grid points (after weights+screening)   ...  16457 (   0.0 sec)
nearest neighbour list constructed           ...    0.0 sec
Grid point re-assignment to atoms done       ...    0.0 sec
Grid point division into batches done        ...    0.1 sec
Reduced shell lists constructed in    0.1 sec

Total number of grid points                  ...    16457
Total number of batches                      ...      258
Average number of points per batch           ...       63
Average number of grid points per atom       ...     8228
Average number of shells per batch           ...    14.83 (36.18%)
Average number of basis functions per batch  ...    37.50 (26.22%)
Average number of large shells per batch     ...     7.67 (51.69%)
Average number of large basis fcns per batch ...    19.17 (51.11%)
Maximum spatial batch extension              ...  24.49, 24.19, 18.13 au
Average spatial batch extension              ...   0.84,  0.83,  0.65 au

Time for grid setup =    0.166 sec

------------------------------
INITIAL GUESS: MODEL POTENTIAL
------------------------------
Loading Hartree-Fock densities                     ... done
Calculating cut-offs                               ... done
Setting up the integral package                    ... done
Initializing the effective Hamiltonian             ... done
Starting the Coulomb interaction                   ... done (   0.0 sec)
Reading the grid                                   ... done
Mapping shells                                     ... done
Starting the XC term evaluation                    ... done (   0.0 sec)
  promolecular density results
     # of electrons  =     42.000005632
     EX              =    -59.909496547
     EC              =     -2.364032986
     EX+EC           =    -62.273529533
Transforming the Hamiltonian                       ... done (   0.0 sec)
Diagonalizing the Hamiltonian                      ... done (   0.0 sec)
Back transforming the eigenvectors                 ... done (   0.0 sec)
Now organizing SCF variables                       ... done
                      ------------------
                      INITIAL GUESS DONE (   0.3 sec)
                      ------------------
--------------
SCF ITERATIONS
--------------
ITER       Energy         Delta-E        Max-DP      RMS-DP      [F,P]     Damp
               ***  Starting incremental Fock matrix formation  ***
  0  -1656.0226084343   0.000000000000 0.81515153  0.01727000  1.3497053 0.7000
  1  -1659.0439796715  -3.021371237177 0.27537062  0.00596558  0.3955602 0.7000
  2  -1659.6652962791  -0.621316607620 0.18446179  0.00499855  0.5016162 0.7000
  3  -1660.3486760169  -0.683379737786 0.15340122  0.00339637  0.2593621 0.7000
                               ***Turning on DIIS***
  4  -1660.7798952514  -0.431219234488 0.10844946  0.00231745  0.1165561 0.7000
  5  -1661.0905475754  -0.310652324046 0.26636796  0.00572801  0.0771403 0.0000
  6  -1661.8632890893  -0.772741513859 0.06258442  0.00111561  0.0831681 0.0000
  7  -1661.8702139166  -0.006924827337 0.01332452  0.00024823  0.1014290 0.7000
  8  -1661.8736175435  -0.003403626896 0.03029100  0.00062392  0.0773375 0.0000
  9  -1661.8818313048  -0.008213761267 0.01816849  0.00032197  0.0183097 0.0000
 10  -1661.8839015746  -0.002070269820 0.01762271  0.00019383  0.0134807 0.0000
 11  -1661.8850710384  -0.001169463856 0.01737553  0.00019524  0.0098022 0.0000
 12  -1661.8858873103  -0.000816271825 0.01138996  0.00011293  0.0054807 0.0000
 13  -1661.8861728537  -0.000285543396 0.00792810  0.00007385  0.0029076 0.0000
 14  -1661.8862829412  -0.000110087526 0.00452304  0.00003889  0.0013649 0.0000
 15  -1661.8863158794  -0.000032938234 0.00425426  0.00003637  0.0007307 0.0000
 16  -1661.8863282902  -0.000012410743 0.00072547  0.00000909  0.0007292 0.0000
 17  -1661.8863302170  -0.000001926887 0.00064777  0.00000673  0.0002803 0.0000
 18  -1661.8863313065  -0.000001089463 0.00055429  0.00000620  0.0003407 0.0000
                 **** Energy Check signals convergence ****

               *****************************************************
               *                     SUCCESS                       *
               *           SCF CONVERGED AFTER  19 CYCLES          *
               *****************************************************


Setting up the DFT-NL grid :

General Integration Accuracy     IntAcc      ...  4.340
Radial Grid Type                 RadialGrid  ... Gauss-Chebyshev
Angular Grid (max. acc.)         AngularGrid ... Lebedev-110
Angular grid pruning method      GridPruning ... 3 (G Style)
Weight generation scheme         WeightScheme... Becke
Basis function cutoff            BFCut       ...    1.0000e-10
Integration weight cutoff        WCut        ...    1.0000e-14
Grids for H and He will be reduced by one unit

# of grid points (after initial pruning)     ...   4718 (   0.0 sec)
# of grid points (after weights+screening)   ...   4693 (   0.0 sec)
nearest neighbour list constructed           ...    0.0 sec
Grid point re-assignment to atoms done       ...    0.0 sec
Grid point division into batches done        ...    0.0 sec
Reduced shell lists constructed in    0.0 sec

Total number of grid points                  ...     4693
Total number of batches                      ...       75
Average number of points per batch           ...       62
Average number of grid points per atom       ...     2346
Average number of shells per batch           ...    23.20 (56.59%)
Average number of basis functions per batch  ...    71.20 (49.79%)
Average number of large shells per batch     ...    16.80 (72.41%)
Average number of large basis fcns per batch ...    49.60 (69.66%)
Maximum spatial batch extension              ...  18.98, 28.73, 16.15 au
Average spatial batch extension              ...   0.94,  1.29,  0.86 au

Final grid set up in    0.0 sec

-------------------------------------------------------------------------------
                         DFT-NL dispersion correction                          
-------------------------------------------------------------------------------

SC Energy -1661.886332059 
NL    Energy 0.175562297 
SC+NL Energy -1661.710769761 
NL done in    0.0 sec
-------------------------------------------------------------------------------

----------------
TOTAL SCF ENERGY
----------------

Total Energy       :        -1661.71076976 Eh          -45217.44886 eV

Components:
Nuclear Repulsion  :          109.41337367 Eh            2977.28926 eV
Electronic Energy  :        -1771.12414343 Eh          -48194.73812 eV
One Electron Energy:        -2515.25724210 Eh          -68443.62916 eV
Two Electron Energy:          744.13309867 Eh           20248.89105 eV

Virial components:
Potential Energy   :        -3320.81313383 Eh          -90363.91938 eV
Kinetic Energy     :         1659.10236407 Eh           45146.47053 eV
Virial Ratio       :            2.00157218


DFT components:
N(Alpha)           :       23.000007642597 electrons
N(Beta)            :       19.000007218062 electrons
N(Total)           :       42.000014860660 electrons
E(X)               :      -60.089847090425 Eh       
E(C)               :       -2.346714128461 Eh       
NL Energy, E(C,NL) :        0.175562297232 Eh       
E(XC)              :      -62.260998921654 Eh       
DFET-embed. en.    :        0.000000000000 Eh       

---------------
SCF CONVERGENCE
---------------

  Last Energy change         ...   -7.5200e-07  Tolerance :   1.0000e-06
  Last MAX-Density change    ...    5.3363e-04  Tolerance :   1.0000e-05
  Last RMS-Density change    ...    5.9193e-06  Tolerance :   1.0000e-06
  Last DIIS Error            ...    1.6169e-04  Tolerance :   1.0000e-06

             **** THE GBW FILE WAS UPDATED (36_FeS.gbw) ****
             **** DENSITY FILE WAS UPDATED (36_FeS.scfp) ****
             **** ENERGY FILE WAS UPDATED (36_FeS.en.tmp) ****
----------------------
UHF SPIN CONTAMINATION
----------------------

Warning: in a DFT calculation there is little theoretical justification to 
         calculate <S**2> as in Hartree-Fock theory. We will do it anyways
         but you should keep in mind that the values have only limited relevance

Expectation value of <S**2>     :     6.027816
Ideal value S*(S+1) for S=2.0   :     6.000000
Deviation                       :     0.027816

             **** THE GBW FILE WAS UPDATED (36_FeS.gbw) ****
             **** DENSITY FILE WAS UPDATED (36_FeS.scfp) ****
----------------
ORBITAL ENERGIES
----------------
                 SPIN UP ORBITALS
  NO   OCC          E(Eh)            E(eV) 
   0   1.0000    -255.990868     -6965.8657 
   1   1.0000     -88.830721     -2417.2068 
   2   1.0000     -30.122592      -819.6774 
   3   1.0000     -25.985713      -707.1072 
   4   1.0000     -25.964206      -706.5220 
   5   1.0000     -25.964206      -706.5220 
   6   1.0000      -7.986721      -217.3297 
   7   1.0000      -5.940033      -161.6365 
   8   1.0000      -5.939796      -161.6301 
   9   1.0000      -5.939796      -161.6301 
  10   1.0000      -3.661255       -99.6278 
  11   1.0000      -2.469534       -67.1994 
  12   1.0000      -2.422530       -65.9204 
  13   1.0000      -2.422530       -65.9204 
  14   1.0000      -0.755276       -20.5521 
  15   1.0000      -0.487403       -13.2629 
  16   1.0000      -0.486949       -13.2506 
  17   1.0000      -0.486949       -13.2506 
  18   1.0000      -0.461036       -12.5454 
  19   1.0000      -0.428574       -11.6621 
  20   1.0000      -0.342880        -9.3302 
  21   1.0000      -0.312071        -8.4919 
  22   1.0000      -0.312071        -8.4919 
  23   0.0000      -0.053064        -1.4439 
  24   0.0000       0.019551         0.5320 
  25   0.0000       0.019551         0.5320 
  26   0.0000       0.020860         0.5676 
  27   0.0000       0.035507         0.9662 
  28   0.0000       0.062551         1.7021 
  29   0.0000       0.062551         1.7021 
  30   0.0000       0.088860         2.4180 
  31   0.0000       0.093315         2.5392 
  32   0.0000       0.093718         2.5502 
  33   0.0000       0.111002         3.0205 
  34   0.0000       0.114316         3.1107 
  35   0.0000       0.114316         3.1107 
  36   0.0000       0.144842         3.9413 
  37   0.0000       0.145547         3.9605 
  38   0.0000       0.145547         3.9605 
  39   0.0000       0.162406         4.4193 
  40   0.0000       0.229041         6.2325 
  41   0.0000       0.229041         6.2325 
  42   0.0000       0.291828         7.9410 
  43   0.0000       0.292183         7.9507 
  44   0.0000       0.293083         7.9752 
  45   0.0000       0.298361         8.1188 
  46   0.0000       0.344848         9.3838 
  47   0.0000       0.344848         9.3838 
  48   0.0000       0.347419         9.4538 
  49   0.0000       0.348731         9.4895 
  50   0.0000       0.382881        10.4187 
  51   0.0000       0.413097        11.2410 
  52   0.0000       0.413097        11.2410 
  53   0.0000       0.532492        14.4898 
  54   0.0000       0.565824        15.3969 
  55   0.0000       0.605177        16.4677 
  56   0.0000       0.605177        16.4677 
  57   0.0000       0.713366        19.4117 
  58   0.0000       0.714530        19.4433 
  59   0.0000       0.714715        19.4484 
  60   0.0000       0.728493        19.8233 
  61   0.0000       0.728493        19.8233 
  62   0.0000       0.806848        21.9555 
  63   0.0000       0.806848        21.9555 
  64   0.0000       0.818606        22.2754 
  65   0.0000       0.840166        22.8621 
  66   0.0000       0.840166        22.8621 
  67   0.0000       0.841284        22.8925 
  68   0.0000       0.841719        22.9043 
  69   0.0000       0.953303        25.9407 
  70   0.0000       0.970561        26.4103 
  71   0.0000       0.970561        26.4103 
  72   0.0000       1.009518        27.4704 
  73   0.0000       1.009518        27.4704 
  74   0.0000       1.092477        29.7278 
  75   0.0000       1.111724        30.2515 
  76   0.0000       1.116064        30.3696 
  77   0.0000       1.136452        30.9244 
  78   0.0000       1.136452        30.9244 
  79   0.0000       1.165403        31.7122 
  80   0.0000       1.243135        33.8274 
  81   0.0000       1.249817        34.0093 
  82   0.0000       1.453404        39.5491 
  83   0.0000       1.590695        43.2850 
  84   0.0000       1.590695        43.2850 
  85   0.0000       1.930342        52.5273 
  86   0.0000       1.930441        52.5300 
  87   0.0000       1.968302        53.5602 
  88   0.0000       2.034800        55.3697 
  89   0.0000       2.034800        55.3697 
  90   0.0000       2.200705        59.8842 
  91   0.0000       2.218419        60.3662 
  92   0.0000       2.218419        60.3662 
  93   0.0000       2.238282        60.9067 
  94   0.0000       2.238282        60.9067 
  95   0.0000       2.242732        61.0278 
  96   0.0000       2.243065        61.0369 
  97   0.0000       2.289039        62.2879 
  98   0.0000       2.366012        64.3825 
  99   0.0000       2.366012        64.3825 
 100   0.0000       2.741069        74.5883 
 101   0.0000       2.741069        74.5883 
 102   0.0000       2.744291        74.6760 
 103   0.0000       2.797841        76.1331 
 104   0.0000       2.808601        76.4259 
 105   0.0000       2.921918        79.5094 
 106   0.0000       2.921918        79.5094 
 107   0.0000       2.961257        80.5799 
 108   0.0000       3.096792        84.2680 
 109   0.0000       3.096792        84.2680 
 110   0.0000       3.238891        88.1347 
 111   0.0000       3.389104        92.2222 
 112   0.0000       3.389118        92.2226 
 113   0.0000       3.390692        92.2654 
 114   0.0000       3.390692        92.2654 
 115   0.0000       3.468695        94.3880 
 116   0.0000       3.473563        94.5205 
 117   0.0000       3.622682        98.5782 
 118   0.0000       3.761095       102.3446 
 119   0.0000       3.761095       102.3446 
 120   0.0000       3.902063       106.1805 
 121   0.0000       4.570137       124.3598 
 122   0.0000       4.594571       125.0246 
 123   0.0000       4.931343       134.1887 
 124   0.0000       4.931343       134.1887 
 125   0.0000       5.484136       149.2309 
 126   0.0000       6.045025       164.4935 
 127   0.0000       8.979926       244.3562 
 128   0.0000       8.985671       244.5125 
 129   0.0000       8.985671       244.5125 
 130   0.0000       9.005386       245.0490 
 131   0.0000       9.031663       245.7640 
 132   0.0000       9.031663       245.7640 
 133   0.0000       9.147741       248.9227 
 134   0.0000       9.698120       263.8993 
 135   0.0000       9.698120       263.8993 
 136   0.0000       9.712275       264.2844 
 137   0.0000       9.712651       264.2947 
 138   0.0000       9.714858       264.3547 
 139   0.0000       9.733473       264.8613 
 140   0.0000       9.861385       268.3419 
 141   0.0000       9.861385       268.3419 
 142   0.0000       9.979398       271.5532 

                 SPIN DOWN ORBITALS
  NO   OCC          E(Eh)            E(eV) 
   0   1.0000    -255.989658     -6965.8327 
   1   1.0000     -88.829112     -2417.1630 
   2   1.0000     -30.059406      -817.9580 
   3   1.0000     -25.929040      -705.5651 
   4   1.0000     -25.915928      -705.2083 
   5   1.0000     -25.915928      -705.2083 
   6   1.0000      -7.985187      -217.2880 
   7   1.0000      -5.940061      -161.6373 
   8   1.0000      -5.936033      -161.5277 
   9   1.0000      -5.936033      -161.5277 
  10   1.0000      -3.511155       -95.5434 
  11   1.0000      -2.283265       -62.1308 
  12   1.0000      -2.272007       -61.8245 
  13   1.0000      -2.272007       -61.8245 
  14   1.0000      -0.738386       -20.0925 
  15   1.0000      -0.373944       -10.1755 
  16   1.0000      -0.356405        -9.6983 
  17   1.0000      -0.326995        -8.8980 
  18   1.0000      -0.326995        -8.8980 
  19   0.0000      -0.050000        -1.3606 
  20   0.0000      -0.000964        -0.0262 
  21   0.0000      -0.000963        -0.0262 
  22   0.0000      -0.000963        -0.0262 
  23   0.0000       0.026227         0.7137 
  24   0.0000       0.031706         0.8628 
  25   0.0000       0.031707         0.8628 
  26   0.0000       0.039640         1.0787 
  27   0.0000       0.042069         1.1448 
  28   0.0000       0.075237         2.0473 
  29   0.0000       0.075237         2.0473 
  30   0.0000       0.095168         2.5897 
  31   0.0000       0.097403         2.6505 
  32   0.0000       0.104285         2.8377 
  33   0.0000       0.117377         3.1940 
  34   0.0000       0.121053         3.2940 
  35   0.0000       0.121053         3.2940 
  36   0.0000       0.149955         4.0805 
  37   0.0000       0.149955         4.0805 
  38   0.0000       0.155802         4.2396 
  39   0.0000       0.168745         4.5918 
  40   0.0000       0.241071         6.5599 
  41   0.0000       0.241071         6.5599 
  42   0.0000       0.293864         7.9965 
  43   0.0000       0.299215         8.1421 
  44   0.0000       0.304150         8.2763 
  45   0.0000       0.313188         8.5223 
  46   0.0000       0.352237         9.5849 
  47   0.0000       0.361897         9.8477 
  48   0.0000       0.365640         9.9496 
  49   0.0000       0.365640         9.9496 
  50   0.0000       0.394406        10.7323 
  51   0.0000       0.414941        11.2911 
  52   0.0000       0.414941        11.2911 
  53   0.0000       0.535654        14.5759 
  54   0.0000       0.585073        15.9207 
  55   0.0000       0.609368        16.5817 
  56   0.0000       0.609368        16.5817 
  57   0.0000       0.724585        19.7170 
  58   0.0000       0.724998        19.7282 
  59   0.0000       0.728108        19.8128 
  60   0.0000       0.736206        20.0332 
  61   0.0000       0.736206        20.0332 
  62   0.0000       0.810777        22.0624 
  63   0.0000       0.810777        22.0624 
  64   0.0000       0.822687        22.3865 
  65   0.0000       0.846859        23.0442 
  66   0.0000       0.848359        23.0850 
  67   0.0000       0.863941        23.5090 
  68   0.0000       0.863941        23.5090 
  69   0.0000       0.975562        26.5464 
  70   0.0000       0.977558        26.6007 
  71   0.0000       0.977558        26.6007 
  72   0.0000       1.034219        28.1425 
  73   0.0000       1.034219        28.1425 
  74   0.0000       1.105493        30.0820 
  75   0.0000       1.134425        30.8693 
  76   0.0000       1.141703        31.0673 
  77   0.0000       1.151764        31.3411 
  78   0.0000       1.151764        31.3411 
  79   0.0000       1.177883        32.0518 
  80   0.0000       1.270389        34.5690 
  81   0.0000       1.287956        35.0471 
  82   0.0000       1.472814        40.0773 
  83   0.0000       1.620479        44.0955 
  84   0.0000       1.620479        44.0955 
  85   0.0000       1.942207        52.8501 
  86   0.0000       1.942208        52.8502 
  87   0.0000       1.995813        54.3088 
  88   0.0000       2.041629        55.5556 
  89   0.0000       2.041629        55.5556 
  90   0.0000       2.203459        59.9592 
  91   0.0000       2.226626        60.5896 
  92   0.0000       2.226626        60.5896 
  93   0.0000       2.250051        61.2270 
  94   0.0000       2.250288        61.2334 
  95   0.0000       2.252528        61.2944 
  96   0.0000       2.252528        61.2944 
  97   0.0000       2.293581        62.4115 
  98   0.0000       2.380101        64.7658 
  99   0.0000       2.380101        64.7658 
 100   0.0000       2.801394        76.2298 
 101   0.0000       2.808316        76.4182 
 102   0.0000       2.808316        76.4182 
 103   0.0000       2.863498        77.9197 
 104   0.0000       2.883910        78.4752 
 105   0.0000       2.989230        81.3411 
 106   0.0000       2.989230        81.3411 
 107   0.0000       3.038991        82.6952 
 108   0.0000       3.167729        86.1983 
 109   0.0000       3.167729        86.1983 
 110   0.0000       3.300199        89.8030 
 111   0.0000       3.429642        93.3253 
 112   0.0000       3.431327        93.3712 
 113   0.0000       3.431327        93.3712 
 114   0.0000       3.433617        93.4335 
 115   0.0000       3.504463        95.3613 
 116   0.0000       3.511810        95.5612 
 117   0.0000       3.653789        99.4246 
 118   0.0000       3.799632       103.3932 
 119   0.0000       3.799632       103.3932 
 120   0.0000       3.962448       107.8237 
 121   0.0000       4.652383       126.5978 
 122   0.0000       4.700164       127.8980 
 123   0.0000       5.036395       137.0473 
 124   0.0000       5.036395       137.0473 
 125   0.0000       5.494592       149.5154 
 126   0.0000       6.135181       166.9468 
 127   0.0000       9.101481       247.6639 
 128   0.0000       9.101481       247.6639 
 129   0.0000       9.118741       248.1336 
 130   0.0000       9.144956       248.8469 
 131   0.0000       9.176487       249.7049 
 132   0.0000       9.176487       249.7049 
 133   0.0000       9.290199       252.7992 
 134   0.0000       9.793484       266.4942 
 135   0.0000       9.793484       266.4942 
 136   0.0000       9.795045       266.5367 
 137   0.0000       9.798483       266.6303 
 138   0.0000       9.815441       267.0917 
 139   0.0000       9.831101       267.5179 
 140   0.0000       9.961055       271.0541 
 141   0.0000       9.961055       271.0541 
 142   0.0000      10.080207       274.2964 

                    ********************************
                    * MULLIKEN POPULATION ANALYSIS *
                    ********************************

--------------------------------------------
MULLIKEN ATOMIC CHARGES AND SPIN POPULATIONS
--------------------------------------------
   0 Fe:    0.388248    3.542186
   1 S :   -0.388248    0.457814
Sum of atomic charges         :   -0.0000000
Sum of atomic spin populations:    4.0000000

-----------------------------------------------------
MULLIKEN REDUCED ORBITAL CHARGES AND SPIN POPULATIONS
-----------------------------------------------------
CHARGE
  0 Fes       :     6.641227  s :     6.641227
      pz      :     4.096024  p :    12.320556
      px      :     4.112266
      py      :     4.112266
      dz2     :     1.141412  d :     6.631727
      dxz     :     1.246763
      dyz     :     1.246763
      dx2y2   :     1.997663
      dxy     :     0.999126
      f0      :     0.003915  f :     0.017188
      f+1     :     0.006459
      f-1     :     0.006459
      f+2     :     0.000181
      f-2     :     0.000105
      f+3     :     0.000035
      f-3     :     0.000035
      g0      :     0.000360  g :     0.001054
      g+1     :     0.000331
      g-1     :     0.000331
      g+2     :     0.000014
      g-2     :     0.000004
      g+3     :     0.000002
      g-3     :     0.000002
      g+4     :     0.000009
      g-4     :     0.000000
  1 S s       :     5.862916  s :     5.862916
      pz      :     3.248547  p :    10.478579
      px      :     3.615016
      py      :     3.615016
      dz2     :     0.005172  d :     0.042118
      dxz     :     0.017596
      dyz     :     0.017596
      dx2y2   :     0.001305
      dxy     :     0.000451
      f0      :     0.000418  f :     0.004635
      f+1     :     0.001532
      f-1     :     0.001532
      f+2     :     0.000838
      f-2     :     0.000315
      f+3     :     0.000000
      f-3     :     0.000000

SPIN
  0 Fes       :     0.240282  s :     0.240282
      pz      :    -0.010253  p :     0.046108
      px      :     0.028180
      py      :     0.028180
      dz2     :     0.767208  d :     3.255097
      dxz     :     0.744238
      dyz     :     0.744238
      dx2y2   :     0.000288
      dxy     :     0.999126
      f0      :    -0.000004  f :     0.000912
      f+1     :     0.000405
      f-1     :     0.000405
      f+2     :     0.000047
      f-2     :     0.000105
      f+3     :    -0.000023
      f-3     :    -0.000023
      g0      :    -0.000059  g :    -0.000212
      g+1     :    -0.000083
      g-1     :    -0.000083
      g+2     :     0.000005
      g-2     :     0.000004
      g+3     :     0.000001
      g-3     :     0.000001
      g+4     :     0.000002
      g-4     :     0.000000
  1 S s       :     0.012276  s :     0.012276
      pz      :    -0.011299  p :     0.458793
      px      :     0.235046
      py      :     0.235046
      dz2     :     0.001306  d :    -0.011813
      dxz     :    -0.006674
      dyz     :    -0.006674
      dx2y2   :    -0.000222
      dxy     :     0.000451
      f0      :     0.000542  f :    -0.001441
      f+1     :    -0.001091
      f-1     :    -0.001091
      f+2     :    -0.000118
      f-2     :     0.000315
      f+3     :    -0.000000
      f-3     :    -0.000000


                     *******************************
                     * LOEWDIN POPULATION ANALYSIS *
                     *******************************

-------------------------------------------
LOEWDIN ATOMIC CHARGES AND SPIN POPULATIONS
-------------------------------------------
   0 Fe:    0.157103    3.573843
   1 S :   -0.157103    0.426157

----------------------------------------------------
LOEWDIN REDUCED ORBITAL CHARGES AND SPIN POPULATIONS
----------------------------------------------------
CHARGE
  0 Fes       :     6.350754  s :     6.350754
      pz      :     4.228821  p :    12.511052
      px      :     4.141115
      py      :     4.141115
      dz2     :     1.270588  d :     6.846550
      dxz     :     1.302944
      dyz     :     1.302944
      dx2y2   :     1.978587
      dxy     :     0.991488
      f0      :     0.044245  f :     0.129843
      f+1     :     0.042132
      f-1     :     0.042132
      f+2     :     0.000864
      f-2     :     0.000400
      f+3     :     0.000035
      f-3     :     0.000035
      g0      :     0.001792  g :     0.004698
      g+1     :     0.001442
      g-1     :     0.001442
      g+2     :     0.000007
      g-2     :     0.000003
      g+3     :     0.000002
      g-3     :     0.000002
      g+4     :     0.000009
      g-4     :     0.000000
  1 S s       :     5.453606  s :     5.453606
      pz      :     3.426011  p :    10.278854
      px      :     3.426422
      py      :     3.426422
      dz2     :     0.134270  d :     0.235060
      dxz     :     0.045753
      dyz     :     0.045753
      dx2y2   :     0.006858
      dxy     :     0.002426
      f0      :     0.089904  f :     0.189582
      f+1     :     0.040156
      f-1     :     0.040156
      f+2     :     0.013684
      f-2     :     0.005683
      f+3     :     0.000000
      f-3     :     0.000000

SPIN
  0 Fes       :     0.226706  s :     0.226706
      pz      :    -0.002987  p :     0.126131
      px      :     0.064559
      py      :     0.064559
      dz2     :     0.747707  d :     3.201258
      dxz     :     0.729819
      dyz     :     0.729819
      dx2y2   :     0.002425
      dxy     :     0.991488
      f0      :     0.000252  f :     0.019470
      f+1     :     0.009418
      f-1     :     0.009418
      f+2     :     0.000028
      f-2     :     0.000400
      f+3     :    -0.000023
      f-3     :    -0.000023
      g0      :    -0.000104  g :     0.000278
      g+1     :     0.000185
      g-1     :     0.000185
      g+2     :     0.000005
      g-2     :     0.000003
      g+3     :     0.000001
      g-3     :     0.000001
      g+4     :     0.000002
      g-4     :     0.000000
  1 S s       :     0.009898  s :     0.009898
      pz      :     0.006514  p :     0.367286
      px      :     0.180386
      py      :     0.180386
      dz2     :     0.008788  d :     0.022058
      dxz     :     0.006009
      dyz     :     0.006009
      dx2y2   :    -0.001173
      dxy     :     0.002426
      f0      :     0.003224  f :     0.026915
      f+1     :     0.009647
      f-1     :     0.009647
      f+2     :    -0.001285
      f-2     :     0.005683
      f+3     :    -0.000000
      f-3     :    -0.000000


                      *****************************
                      * MAYER POPULATION ANALYSIS *
                      *****************************

  NA   - Mulliken gross atomic population
  ZA   - Total nuclear charge
  QA   - Mulliken gross atomic charge
  VA   - Mayer's total valence
  BVA  - Mayer's bonded valence
  FA   - Mayer's free valence

  ATOM       NA         ZA         QA         VA         BVA        FA
  0 Fe    25.6118    26.0000     0.3882     5.3238     2.1956     3.1281
  1 S     16.3882    16.0000    -0.3882     2.3284     2.1956     0.1327

  Mayer bond orders larger than 0.100000
B(  0-Fe,  1-S ) :   2.1956 

-------
TIMINGS
-------

Total SCF time: 0 days 0 hours 5 min 17 sec 

Total time                  ....     317.706 sec
Sum of individual times     ....     317.329 sec  ( 99.9%)

Fock matrix formation       ....     316.891 sec  ( 99.7%)
  XC integration            ....       0.491 sec  (  0.2% of F)
    Basis function eval.    ....       0.104 sec  ( 21.1% of XC)
    Density eval.           ....       0.054 sec  ( 10.9% of XC)
    XC-Functional eval.     ....       0.022 sec  (  4.6% of XC)
    XC-Potential eval.      ....       0.135 sec  ( 27.5% of XC)
Diagonalization             ....       0.104 sec  (  0.0%)
Density matrix formation    ....       0.016 sec  (  0.0%)
Population analysis         ....       0.007 sec  (  0.0%)
Initial guess               ....       0.098 sec  (  0.0%)
Orbital Transformation      ....       0.000 sec  (  0.0%)
Orbital Orthonormalization  ....       0.000 sec  (  0.0%)
DIIS solution               ....       0.032 sec  (  0.0%)
Grid generation             ....       0.181 sec  (  0.1%)

-------------------------   --------------------
FINAL SINGLE POINT ENERGY     -1661.710769761282
-------------------------   --------------------


                            ***************************************
                            *     ORCA property calculations      *
                            ***************************************

                                    ---------------------
                                    Active property flags
                                    ---------------------
   (+) Dipole Moment


------------------------------------------------------------------------------
                       ORCA ELECTRIC PROPERTIES CALCULATION
------------------------------------------------------------------------------

Dipole Moment Calculation                       ... on
Quadrupole Moment Calculation                   ... off
Polarizability Calculation                      ... off
GBWName                                         ... 36_FeS.gbw
Electron density file                           ... 36_FeS.scfp
The origin for moment calculation is the CENTER OF MASS  = ( 0.000000,  0.000000  1.375269)

-------------
DIPOLE MOMENT
-------------
                                X             Y             Z
Electronic contribution:      0.00000       0.00000      -5.20830
Nuclear contribution   :      0.00000       0.00000       2.59672
                        -----------------------------------------
Total Dipole Moment    :      0.00000       0.00000      -2.61158
                        -----------------------------------------
Magnitude (a.u.)       :      2.61158
Magnitude (Debye)      :      6.63811



--------------------
Rotational spectrum 
--------------------
 
Rotational constants in cm-1:     0.000000     0.204456     0.204456 
Rotational constants in MHz :     0.000000  6129.444038  6129.444038 

 Dipole components along the rotational axes: 
x,y,z [a.u.] :    -2.611579     0.000000     0.000000 
x,y,z [Debye]:    -6.638107     0.000000     0.000000 

 

Timings for individual modules:

Sum of individual times         ...      321.697 sec (=   5.362 min)
GTO integral calculation        ...        3.463 sec (=   0.058 min)   1.1 %
SCF iterations                  ...      318.234 sec (=   5.304 min)  98.9 %
                             ****ORCA TERMINATED NORMALLY****
TOTAL RUN TIME: 0 days 0 hours 5 minutes 22 seconds 451 msec
