
                                 *****************
                                 * O   R   C   A *
                                 *****************

           --- An Ab Initio, DFT and Semiempirical electronic structure package ---

                  #######################################################
                  #                        -***-                        #
                  #          Department of theory and spectroscopy      #
                  #               Directorship: Frank Neese             #
                  #        Max Planck Institute fuer Kohlenforschung    #
                  #                Kaiser Wilhelm Platz 1               #
                  #                 D-45470 Muelheim/Ruhr               #
                  #                      Germany                        #
                  #                                                     #
                  #                  All rights reserved                #
                  #                        -***-                        #
                  #######################################################


                         Program Version 4.2.0 -  RELEASE  -


 With contributions from (in alphabetic order):
   Daniel Aravena         : Magnetic Suceptibility
   Michael Atanasov       : Ab Initio Ligand Field Theory (pilot matlab implementation)
   Alexander A. Auer      : GIAO ZORA, VPT2
   Ute Becker             : Parallelization
   Giovanni Bistoni       : ED, misc. LED, open-shell LED, HFLED
   Martin Brehm           : Molecular dynamics
   Dmytro Bykov           : SCF Hessian
   Vijay G. Chilkuri      : MRCI spin determinant printing, contributions to CSF-ICE
   Dipayan Datta          : RHF DLPNO-CCSD density
   Achintya Kumar Dutta   : EOM-CC, STEOM-CC
   Dmitry Ganyushin       : Spin-Orbit,Spin-Spin,Magnetic field MRCI
   Miquel Garcia          : C-PCM Hessian, Gaussian charge scheme
   Yang Guo               : DLPNO-NEVPT2, CIM, IAO-localization
   Andreas Hansen         : Spin unrestricted coupled pair/coupled cluster methods
   Benjamin Helmich-Paris : CASSCF linear response (MC-RPA)
   Lee Huntington         : MR-EOM, pCC
   Robert Izsak           : Overlap fitted RIJCOSX, COSX-SCS-MP3, EOM
   Christian Kollmar      : KDIIS, OOCD, Brueckner-CCSD(T), CCSD density
   Simone Kossmann        : Meta GGA functionals, TD-DFT gradient, OOMP2, MP2 Hessian
   Martin Krupicka        : AUTO-CI
   Lucas Lang             : DCDCAS
   Dagmar Lenk            : GEPOL surface, SMD
   Dimitrios Liakos       : Extrapolation schemes; Compound Job, initial MDCI parallelization
   Dimitrios Manganas     : Further ROCIS development; embedding schemes
   Dimitrios Pantazis     : SARC Basis sets
   Taras Petrenko         : DFT Hessian,TD-DFT gradient, ASA, ECA, R-Raman, ABS, FL, XAS/XES, NRVS
   Peter Pinski           : DLPNO-MP2, DLPNO-MP2 Gradient
   Christoph Reimann      : Effective Core Potentials
   Marius Retegan         : Local ZFS, SOC
   Christoph Riplinger    : Optimizer, TS searches, QM/MM, DLPNO-CCSD(T), (RO)-DLPNO pert. Triples
   Tobias Risthaus        : Range-separated hybrids, TD-DFT gradient, RPA, STAB
   Michael Roemelt        : Original ROCIS implementation
   Masaaki Saitow         : Open-shell DLPNO-CCSD energy and density
   Barbara Sandhoefer     : DKH picture change effects
   Avijit Sen             : IP-ROCIS
   Kantharuban Sivalingam : CASSCF convergence, NEVPT2, FIC-MRCI
   Bernardo de Souza      : ESD, SOC TD-DFT
   Georgi Stoychev        : AutoAux, RI-MP2 NMR
   Willem Van den Heuvel  : Paramagnetic NMR
   Boris Wezisla          : Elementary symmetry handling
   Frank Wennmohs         : Technical directorship


 We gratefully acknowledge several colleagues who have allowed us to
 interface, adapt or use parts of their codes:
   Stefan Grimme, W. Hujo, H. Kruse,             : VdW corrections, initial TS optimization,
                  C. Bannwarth                     DFT functionals, gCP, sTDA/sTD-DF
   Ed Valeev, F. Pavosevic, A. Kumar             : LibInt (2-el integral package), F12 methods
   Garnet Chan, S. Sharma, J. Yang, R. Olivares  : DMRG
   Ulf Ekstrom                                   : XCFun DFT Library
   Mihaly Kallay                                 : mrcc  (arbitrary order and MRCC methods)
   Andreas Klamt, Michael Diedenhofen            : otool_cosmo (COSMO solvation model)
   Jiri Pittner, Ondrej Demel                    : Mk-CCSD
   Frank Weinhold                                : gennbo (NPA and NBO analysis)
   Christopher J. Cramer and Donald G. Truhlar   : smd solvation model
   Lars Goerigk                                  : TD-DFT with DH, B97 family of functionals
   V. Asgeirsson, H. Jonsson                     : NEB implementation
   FAccTs GmbH                                   : IRC, NEB, NEB-TS, Multilevel, MM, QM/MM, CI optimization
   S Lehtola, MJT Oliveira, MAL Marques          : LibXC Library


 Your calculation uses the libint2 library for the computation of 2-el integrals
 For citations please refer to: http://libint.valeyev.net

 Your ORCA version has been built with support for libXC version: 4.2.3
 For citations please refer to: https://tddft.org/programs/libxc/

 This ORCA versions uses:
   CBLAS   interface :  Fast vector & matrix operations
   LAPACKE interface :  Fast linear algebra routines
   SCALAPACK package :  Parallel linear algebra routines


Your calculation utilizes the DFT-NL dispersion correction.
Cite in your paper:
Vydrov, O. A.; Van Voorhis, T. J. Chem. Phys. 2010, 133, 244103
Hujo, W.; Grimme, S. J. Chem. Theory Comput. 2011, 7, 3866 
   

----- Orbital basis set information -----
Your calculation utilizes the basis: aug-cc-pVTZ 
    H, B-Ne : Obtained from the ccRepo (grant-hill.group.shef.ac.uk/ccrepo) Feb. 2017
              R. A. Kendall, T. H. Dunning, Jr., R. J. Harrison, J. Chem. Phys. 96, 6796 (1992)
         He : Obtained from the ccRepo (grant-hill.group.shef.ac.uk/ccrepo) Feb. 2017
              D. E. Woon, T. H. Dunning, Jr., J. Chem. Phys. 100, 2975 (1994)
  Li-Be, Na : Obtained from the ccRepo (grant-hill.group.shef.ac.uk/ccrepo) Feb. 2017
              B. P. Prascher, D. E. Woon, K. A. Peterson, T. H. Dunning, Jr., A. K. Wilson, Theor. Chem. Acc. 128, 69 (2011)
         Mg : Obtained from the Peterson Research Group Website (tyr0.chem.wsu.edu/~kipeters) Feb. 2017
              B. P. Prascher, D. E. Woon, K. A. Peterson, T. H. Dunning, Jr., A. K. Wilson, Theor. Chem. Acc. 128, 69 (2011)
      Al-Ar : Obtained from the ccRepo (grant-hill.group.shef.ac.uk/ccrepo) Feb. 2017
              D. E. Woon, T. H. Dunning, Jr., J. Chem. Phys. 98, 1358 (1993)
      Sc-Zn : Obtained from the ccRepo (grant-hill.group.shef.ac.uk/ccrepo) Feb. 2017
              N. B. Balabanov, K. A. Peterson, J. Chem. Phys. 123, 064107 (2005)
              N. B. Balabanov, K. A. Peterson, J. Chem. Phys. 125, 074110 (2006)
      Ga-Kr : Obtained from the ccRepo (grant-hill.group.shef.ac.uk/ccrepo) Feb. 2017
              A. K. Wilson, D. E. Woon, K. A. Peterson, T. H. Dunning, Jr., J. Chem. Phys. 110, 7667 (1999)
     Ag, Au : Obtained from the Peterson Research Group Website (tyr0.chem.wsu.edu/~kipeters) Feb. 2017
              K. A. Peterson, C. Puzzarini, Theor. Chem. Acc. 114, 283 (2005)

----- AuxJK basis set information -----
Your calculation utilizes the auxiliary basis: def2/JK
   H-Ba, Hf-Rn: F. Weigend, J. Comput. Chem. 29, 167 (2008).

================================================================================
                                        WARNINGS
                       Please study these warnings very carefully!
================================================================================


WARNING: your system is open-shell and RHF/RKS was chosen
  ===> : WILL SWITCH to UHF/UKS


INFO   : the flag for use of LIBINT has been found!

================================================================================
                                       INPUT FILE
================================================================================
NAME = 37_CoH.in
|  1> #
|  2> # 37_CoH wb97x-v/aug-cc-pvtz
|  3> #
|  4> ! wb97x-v aug-cc-pvtz def2/jk grid4 nofinalgrid
|  5> 
|  6> *xyz 0 3
|  7>   Co  0.00000000000000      0.00000000000000      0.23964953556340
|  8>   H   0.00000000000000      0.00000000000000      1.76035046443660
|  9> *
| 10> 
| 11> %pal
| 12> nprocs 24
| 13> end
| 14> 
| 15> 
| 16>                          ****END OF INPUT****
================================================================================

                       ****************************
                       * Single Point Calculation *
                       ****************************

---------------------------------
CARTESIAN COORDINATES (ANGSTROEM)
---------------------------------
  Co     0.000000    0.000000    0.239650
  H      0.000000    0.000000    1.760350

----------------------------
CARTESIAN COORDINATES (A.U.)
----------------------------
  NO LB      ZA    FRAG     MASS         X           Y           Z
   0 Co   27.0000    0    58.930    0.000000    0.000000    0.452872
   1 H     1.0000    0     1.008    0.000000    0.000000    3.326580

--------------------------------
INTERNAL COORDINATES (ANGSTROEM)
--------------------------------
 Co     0   0   0     0.000000000000     0.00000000     0.00000000
 H      1   0   0     1.520700928873     0.00000000     0.00000000

---------------------------
INTERNAL COORDINATES (A.U.)
---------------------------
 Co     0   0   0     0.000000000000     0.00000000     0.00000000
 H      1   0   0     2.873708287170     0.00000000     0.00000000

---------------------
BASIS SET INFORMATION
---------------------
There are 2 groups of distinct atoms

 Group   1 Type Co  : 116s77p23d3f2g contracted to 8s7p5d3f2g pattern {19191919191911/151515151511/77711/111/11}
 Group   2 Type H   : 6s3p2d contracted to 4s3p2d pattern {3111/111/11}

Atom   0Co   basis set group =>   1
Atom   1H    basis set group =>   2
----------------------------------
AUXILIARY/JK BASIS SET INFORMATION
----------------------------------
There are 2 groups of distinct atoms

 Group   1 Type Co  : 19s14p12d10f7g3h1i contracted to 16s13p11d9f5g3h1i pattern {4111111111111111/2111111111111/21111111111/211111111/31111/111/1}
 Group   2 Type H   : 4s2p2d contracted to 2s2p2d pattern {31/11/11}

Atom   0Co   basis set group =>   1
Atom   1H    basis set group =>   2


           ************************************************************
           *        Program running with 24 parallel MPI-processes    *
           *              working on a common directory               *
           ************************************************************
------------------------------------------------------------------------------
                           ORCA GTO INTEGRAL CALCULATION
------------------------------------------------------------------------------

                         BASIS SET STATISTICS AND STARTUP INFO

 # of primitive gaussian shells          ...  232
 # of primitive gaussian functions       ...  526
 # of contracted shells                  ...   34
 # of contracted basis functions         ...  116
 Highest angular momentum                ...    4
 Maximum contraction depth               ...   19
 Integral package used                   ... LIBINT
 Integral threshhold            Thresh   ...  1.000e-10
 Primitive cut-off              TCut     ...  1.000e-11


------------------------------ INTEGRAL EVALUATION ----------------------------


 * One electron integrals 
 Pre-screening matrix                    ... done
 Shell pair data                         ... done (   0.001 sec)



           ************************************************************
           *        Program running with 24 parallel MPI-processes    *
           *              working on a common directory               *
           ************************************************************
-------------------------------------------------------------------------------
                                 ORCA SCF
-------------------------------------------------------------------------------

------------
SCF SETTINGS
------------
Hamiltonian:
 Density Functional     Method          .... DFT(GTOs)
 Exchange Functional    Exchange        .... WB97X-V
 Correlation Functional Correlation     .... WB97X-V
 Gradients option       PostSCFGGA      .... off
 Hybrid DFT is turned on
   Fraction HF Exchange ScalHFX         ....  0.167000
   Scaling of DF-GGA-X  ScalDFX         ....  0.000000
   Scaling of DF-GGA-C  ScalDFC         ....  1.000000
   Scaling of DF-LDA-C  ScalLDAC        ....  1.000000
   Perturbative correction              ....  0.000000
   Density functional embedding theory  .... OFF
 Long-range corrected/Screened/Range-Separated Hybrid DFT is turned on
   Amount of maximum screened exact exchange              ....  0.833000
   Range separation parameter mu (erf(mu*r12)/r12)        ....  0.300000
   NL short-range parameter             ....  6.000000
   NL long-range parameter              ....  0.010000


General Settings:
 Integral files         IntName         .... 37_CoH
 Hartree-Fock type      HFTyp           .... UHF
 Total Charge           Charge          ....    0
 Multiplicity           Mult            ....    3
 Number of Electrons    NEL             ....   28
 Basis Dimension        Dim             ....  116
 Nuclear Repulsion      ENuc            ....      9.3955256769 Eh

Convergence Acceleration:
 DIIS                   CNVDIIS         .... on
   Start iteration      DIISMaxIt       ....    12
   Startup error        DIISStart       ....  0.200000
   # of expansion vecs  DIISMaxEq       ....     5
   Bias factor          DIISBfac        ....   1.050
   Max. coefficient     DIISMaxC        ....  10.000
 Newton-Raphson         CNVNR           .... off
 SOSCF                  CNVSOSCF        .... off
 Level Shifting         CNVShift        .... on
   Level shift para.    LevelShift      ....    0.2500
   Turn off err/grad.   ShiftErr        ....    0.0010
 Zerner damping         CNVZerner       .... off
 Static damping         CNVDamp         .... on
   Fraction old density DampFac         ....    0.7000
   Max. Damping (<1)    DampMax         ....    0.9800
   Min. Damping (>=0)   DampMin         ....    0.0000
   Turn off err/grad.   DampErr         ....    0.1000
 Fernandez-Rico         CNVRico         .... off

SCF Procedure:
 Maximum # iterations   MaxIter         ....   125
 SCF integral mode      SCFMode         .... Direct
   Integral package                     .... LIBINT
 Reset frequency        DirectResetFreq ....    20
 Integral Threshold     Thresh          ....  1.000e-10 Eh
 Primitive CutOff       TCut            ....  1.000e-11 Eh

Convergence Tolerance:
 Convergence Check Mode ConvCheckMode   .... Total+1el-Energy
 Convergence forced     ConvForced      .... 0
 Energy Change          TolE            ....  1.000e-06 Eh
 1-El. energy change                    ....  1.000e-03 Eh
 DIIS Error             TolErr          ....  1.000e-06


Diagonalization of the overlap matrix:
Smallest eigenvalue                        ... 6.306e-05
Time for diagonalization                   ...    0.020 sec
Threshold for overlap eigenvalues          ... 1.000e-08
Number of eigenvalues below threshold      ... 0
Time for construction of square roots      ...    0.001 sec
Total time needed                          ...    0.022 sec

-------------------
DFT GRID GENERATION
-------------------

General Integration Accuracy     IntAcc      ...  4.670
Radial Grid Type                 RadialGrid  ... Gauss-Chebyshev
Angular Grid (max. acc.)         AngularGrid ... Lebedev-302
Angular grid pruning method      GridPruning ... 3 (G Style)
Weight generation scheme         WeightScheme... Becke
Basis function cutoff            BFCut       ...    1.0000e-10
Integration weight cutoff        WCut        ...    1.0000e-14
Grids for H and He will be reduced by one unit

# of grid points (after initial pruning)     ...  13034 (   0.0 sec)
# of grid points (after weights+screening)   ...  12998 (   0.0 sec)
nearest neighbour list constructed           ...    0.0 sec
Grid point re-assignment to atoms done       ...    0.0 sec
Grid point division into batches done        ...    0.1 sec
Reduced shell lists constructed in    0.1 sec

Total number of grid points                  ...    12998
Total number of batches                      ...      205
Average number of points per batch           ...       63
Average number of grid points per atom       ...     6499
Average number of shells per batch           ...    14.60 (42.94%)
Average number of basis functions per batch  ...    32.60 (28.10%)
Average number of large shells per batch     ...     7.00 (47.95%)
Average number of large basis fcns per batch ...    15.80 (48.47%)
Maximum spatial batch extension              ...  31.41, 28.57, 18.66 au
Average spatial batch extension              ...   1.02,  0.93,  0.70 au

Time for grid setup =    0.124 sec

------------------------------
INITIAL GUESS: MODEL POTENTIAL
------------------------------
Loading Hartree-Fock densities                     ... done
Calculating cut-offs                               ... done
Setting up the integral package                    ... done
Initializing the effective Hamiltonian             ... done
Starting the Coulomb interaction                   ... done (   0.0 sec)
Reading the grid                                   ... done
Mapping shells                                     ... done
Starting the XC term evaluation                    ... done (   0.0 sec)
  promolecular density results
     # of electrons  =     27.999537409
     EX              =    -44.354301887
     EC              =     -1.642364743
     EX+EC           =    -45.996666631
Transforming the Hamiltonian                       ... done (   0.0 sec)
Diagonalizing the Hamiltonian                      ... done (   0.0 sec)
Back transforming the eigenvectors                 ... done (   0.0 sec)
Now organizing SCF variables                       ... done
                      ------------------
                      INITIAL GUESS DONE (   0.2 sec)
                      ------------------
--------------
SCF ITERATIONS
--------------
ITER       Energy         Delta-E        Max-DP      RMS-DP      [F,P]     Damp
               ***  Starting incremental Fock matrix formation  ***
  0  -1378.1424728529   0.000000000000 1.30949439  0.01977985  2.0050390 0.7000
  1  -1381.0003437722  -2.857870919375 0.92045339  0.01060026  0.5252418 0.7000
  2  -1381.7491662393  -0.748822467020 0.64655162  0.00809326  0.4926096 0.7000
  3  -1382.1540158191  -0.404849579868 0.45275319  0.00566727  0.4270956 0.7000
  4  -1382.4697472929  -0.315731473809 0.31702418  0.00385919  0.2589881 0.7000
                               ***Turning on DIIS***
  5  -1382.6971635674  -0.227416274432 0.22212505  0.00266977  0.1463479 0.7000
  6  -1382.8616380813  -0.164474513981 0.51894320  0.00638939  0.0901338 0.0000
  7  -1383.2784431410  -0.416805059674 0.06808745  0.00094000  0.0514255 0.0000
  8  -1383.2891038944  -0.010660753395 0.02081960  0.00045225  0.0599214 0.0000
  9  -1383.2936250571  -0.004521162690 0.04695624  0.00045799  0.0364894 0.0000
 10  -1383.2997847948  -0.006159737739 0.03713329  0.00038735  0.0223870 0.0000
 11  -1383.3030125406  -0.003227745757 0.02385382  0.00029853  0.0140196 0.0000
 12  -1383.3043507448  -0.001338204235 0.00957928  0.00014121  0.0074957 0.0000
 13  -1383.3047160329  -0.000365288049 0.00600696  0.00008442  0.0043022 0.0000
 14  -1383.3048566926  -0.000140659746 0.00388995  0.00005159  0.0024747 0.0000
 15  -1383.3049173500  -0.000060657341 0.00345583  0.00004979  0.0016886 0.0000
 16  -1383.3049592196  -0.000041869628 0.00280873  0.00004095  0.0010516 0.0000
 17  -1383.3049818683  -0.000022648711 0.00423888  0.00005952  0.0006772 0.0000
 18  -1383.3049984218  -0.000016553454 0.00093653  0.00001312  0.0001448 0.0000
 19  -1383.3049994148  -0.000000993048 0.00023797  0.00000346  0.0000843 0.0000
               *** Restarting incremental Fock matrix formation ***
                                   *** Resetting DIIS ***
 20  -1383.3049994960  -0.000000081232 0.00007720  0.00000170  0.0000847 0.0000
 21  -1383.3049994988  -0.000000002796 0.00004244  0.00000104  0.0001625 0.0000
                 **** Energy Check signals convergence ****

               *****************************************************
               *                     SUCCESS                       *
               *           SCF CONVERGED AFTER  22 CYCLES          *
               *****************************************************


Setting up the DFT-NL grid :

General Integration Accuracy     IntAcc      ...  4.340
Radial Grid Type                 RadialGrid  ... Gauss-Chebyshev
Angular Grid (max. acc.)         AngularGrid ... Lebedev-110
Angular grid pruning method      GridPruning ... 3 (G Style)
Weight generation scheme         WeightScheme... Becke
Basis function cutoff            BFCut       ...    1.0000e-10
Integration weight cutoff        WCut        ...    1.0000e-14
Grids for H and He will be reduced by one unit

# of grid points (after initial pruning)     ...   3706 (   0.0 sec)
# of grid points (after weights+screening)   ...   3680 (   0.0 sec)
nearest neighbour list constructed           ...    0.0 sec
Grid point re-assignment to atoms done       ...    0.0 sec
Grid point division into batches done        ...    0.0 sec
Reduced shell lists constructed in    0.0 sec

Total number of grid points                  ...     3680
Total number of batches                      ...       59
Average number of points per batch           ...       62
Average number of grid points per atom       ...     1840
Average number of shells per batch           ...    20.25 (59.56%)
Average number of basis functions per batch  ...    56.25 (48.49%)
Average number of large shells per batch     ...    14.75 (72.84%)
Average number of large basis fcns per batch ...    40.75 (72.44%)
Maximum spatial batch extension              ...  37.20, 28.73, 20.01 au
Average spatial batch extension              ...   1.30,  1.32,  0.87 au

Final grid set up in    0.0 sec

-------------------------------------------------------------------------------
                         DFT-NL dispersion correction                          
-------------------------------------------------------------------------------

SC Energy -1383.304999518 
NL    Energy 0.118810637 
SC+NL Energy -1383.186188880 
NL done in    0.0 sec
-------------------------------------------------------------------------------

----------------
TOTAL SCF ENERGY
----------------

Total Energy       :        -1383.18618888 Eh          -37638.40970 eV

Components:
Nuclear Repulsion  :            9.39552568 Eh             255.66525 eV
Electronic Energy  :        -1392.58171456 Eh          -37894.07495 eV
One Electron Energy:        -1937.35254517 Eh          -52718.04289 eV
Two Electron Energy:          544.77083062 Eh           14823.96794 eV

Virial components:
Potential Energy   :        -2764.68949797 Eh          -75231.02591 eV
Kinetic Energy     :         1381.50330909 Eh           37592.61621 eV
Virial Ratio       :            2.00121815


DFT components:
N(Alpha)           :       15.000006963750 electrons
N(Beta)            :       13.000006569744 electrons
N(Total)           :       28.000013533494 electrons
E(X)               :      -44.563533129947 Eh       
E(C)               :       -1.640999669413 Eh       
NL Energy, E(C,NL) :        0.118810637392 Eh       
E(XC)              :      -46.085722161968 Eh       
DFET-embed. en.    :        0.000000000000 Eh       

---------------
SCF CONVERGENCE
---------------

  Last Energy change         ...   -1.8880e-08  Tolerance :   1.0000e-06
  Last MAX-Density change    ...    6.1085e-05  Tolerance :   1.0000e-05
  Last RMS-Density change    ...    9.2429e-07  Tolerance :   1.0000e-06
  Last DIIS Error            ...    2.1096e-05  Tolerance :   1.0000e-06

             **** THE GBW FILE WAS UPDATED (37_CoH.gbw) ****
             **** DENSITY FILE WAS UPDATED (37_CoH.scfp) ****
             **** ENERGY FILE WAS UPDATED (37_CoH.en.tmp) ****
----------------------
UHF SPIN CONTAMINATION
----------------------

Warning: in a DFT calculation there is little theoretical justification to 
         calculate <S**2> as in Hartree-Fock theory. We will do it anyways
         but you should keep in mind that the values have only limited relevance

Expectation value of <S**2>     :     2.014679
Ideal value S*(S+1) for S=1.0   :     2.000000
Deviation                       :     0.014679

             **** THE GBW FILE WAS UPDATED (37_CoH.gbw) ****
             **** DENSITY FILE WAS UPDATED (37_CoH.scfp) ****
----------------
ORBITAL ENERGIES
----------------
                 SPIN UP ORBITALS
  NO   OCC          E(Eh)            E(eV) 
   0   1.0000    -277.330955     -7546.5589 
   1   1.0000     -32.816098      -892.9714 
   2   1.0000     -28.450433      -774.1756 
   3   1.0000     -28.450433      -774.1756 
   4   1.0000     -28.449393      -774.1474 
   5   1.0000      -3.804753      -103.5326 
   6   1.0000      -2.491054       -67.7850 
   7   1.0000      -2.491053       -67.7850 
   8   1.0000      -2.490759       -67.7770 
   9   1.0000      -0.409390       -11.1401 
  10   1.0000      -0.375166       -10.2088 
  11   1.0000      -0.343041        -9.3346 
  12   1.0000      -0.343040        -9.3346 
  13   1.0000      -0.341116        -9.2822 
  14   1.0000      -0.312291        -8.4979 
  15   0.0000      -0.007890        -0.2147 
  16   0.0000       0.023610         0.6425 
  17   0.0000       0.023610         0.6425 
  18   0.0000       0.030914         0.8412 
  19   0.0000       0.041482         1.1288 
  20   0.0000       0.080645         2.1945 
  21   0.0000       0.080645         2.1945 
  22   0.0000       0.097472         2.6524 
  23   0.0000       0.112152         3.0518 
  24   0.0000       0.112152         3.0518 
  25   0.0000       0.112586         3.0636 
  26   0.0000       0.113043         3.0761 
  27   0.0000       0.115574         3.1449 
  28   0.0000       0.185894         5.0584 
  29   0.0000       0.240516         6.5448 
  30   0.0000       0.273760         7.4494 
  31   0.0000       0.273760         7.4494 
  32   0.0000       0.309521         8.4225 
  33   0.0000       0.347111         9.4454 
  34   0.0000       0.347111         9.4454 
  35   0.0000       0.401109        10.9147 
  36   0.0000       0.403383        10.9766 
  37   0.0000       0.408902        11.1268 
  38   0.0000       0.418457        11.3868 
  39   0.0000       0.418457        11.3868 
  40   0.0000       0.641675        17.4609 
  41   0.0000       0.674351        18.3500 
  42   0.0000       0.797708        21.7068 
  43   0.0000       0.844503        22.9801 
  44   0.0000       0.844606        22.9829 
  45   0.0000       0.929835        25.3021 
  46   0.0000       0.929835        25.3021 
  47   0.0000       0.995005        27.0755 
  48   0.0000       1.022143        27.8139 
  49   0.0000       1.022143        27.8139 
  50   0.0000       1.100669        29.9507 
  51   0.0000       1.100669        29.9507 
  52   0.0000       1.128613        30.7111 
  53   0.0000       1.128613        30.7111 
  54   0.0000       1.207210        32.8498 
  55   0.0000       1.280158        34.8349 
  56   0.0000       1.281617        34.8746 
  57   0.0000       1.321879        35.9702 
  58   0.0000       1.321879        35.9702 
  59   0.0000       1.404976        38.2314 
  60   0.0000       1.416119        38.5345 
  61   0.0000       1.529275        41.6137 
  62   0.0000       1.577076        42.9144 
  63   0.0000       1.898131        51.6508 
  64   0.0000       1.898131        51.6508 
  65   0.0000       2.351523        63.9882 
  66   0.0000       3.114526        84.7506 
  67   0.0000       3.249604        88.4262 
  68   0.0000       3.249604        88.4262 
  69   0.0000       3.283775        89.3561 
  70   0.0000       3.290481        89.5385 
  71   0.0000       3.290481        89.5385 
  72   0.0000       3.341540        90.9279 
  73   0.0000       3.353903        91.2643 
  74   0.0000       3.381637        92.0190 
  75   0.0000       3.536522        96.2337 
  76   0.0000       3.536523        96.2337 
  77   0.0000       3.735443       101.6466 
  78   0.0000       3.736917       101.6867 
  79   0.0000       3.810947       103.7011 
  80   0.0000       3.810947       103.7011 
  81   0.0000       3.838303       104.4455 
  82   0.0000       4.030525       109.6762 
  83   0.0000       4.167083       113.3921 
  84   0.0000       4.167267       113.3971 
  85   0.0000       4.169700       113.4633 
  86   0.0000       4.169700       113.4633 
  87   0.0000       4.179308       113.7247 
  88   0.0000       4.179308       113.7247 
  89   0.0000       4.307546       117.2143 
  90   0.0000       4.313350       117.3722 
  91   0.0000       4.949598       134.6854 
  92   0.0000       4.949598       134.6854 
  93   0.0000       5.055208       137.5592 
  94   0.0000       5.265198       143.2733 
  95   0.0000       5.291490       143.9888 
  96   0.0000       5.536614       150.6589 
  97   0.0000       5.617289       152.8542 
  98   0.0000       5.617289       152.8542 
  99   0.0000       6.859170       186.6475 
 100   0.0000      10.570860       287.6477 
 101   0.0000      10.570860       287.6477 
 102   0.0000      10.609563       288.7009 
 103   0.0000      10.636742       289.4405 
 104   0.0000      10.661728       290.1204 
 105   0.0000      10.661729       290.1204 
 106   0.0000      10.864488       295.6377 
 107   0.0000      11.635661       316.6224 
 108   0.0000      11.635678       316.6229 
 109   0.0000      11.658161       317.2347 
 110   0.0000      11.658161       317.2347 
 111   0.0000      11.670886       317.5810 
 112   0.0000      11.691367       318.1383 
 113   0.0000      11.871374       323.0365 
 114   0.0000      11.871374       323.0365 
 115   0.0000      12.175692       331.3174 

                 SPIN DOWN ORBITALS
  NO   OCC          E(Eh)            E(eV) 
   0   1.0000    -277.330270     -7546.5403 
   1   1.0000     -32.779801      -891.9837 
   2   1.0000     -28.422789      -773.4234 
   3   1.0000     -28.420076      -773.3496 
   4   1.0000     -28.420076      -773.3496 
   5   1.0000      -3.720686      -101.2450 
   6   1.0000      -2.401746       -65.3548 
   7   1.0000      -2.398974       -65.2794 
   8   1.0000      -2.398973       -65.2794 
   9   1.0000      -0.375023       -10.2049 
  10   1.0000      -0.302864        -8.2414 
  11   1.0000      -0.302864        -8.2414 
  12   1.0000      -0.302325        -8.2267 
  13   0.0000      -0.014346        -0.3904 
  14   0.0000       0.027173         0.7394 
  15   0.0000       0.027173         0.7394 
  16   0.0000       0.031128         0.8470 
  17   0.0000       0.038630         1.0512 
  18   0.0000       0.074512         2.0276 
  19   0.0000       0.086403         2.3512 
  20   0.0000       0.086404         2.3512 
  21   0.0000       0.092696         2.5224 
  22   0.0000       0.098617         2.6835 
  23   0.0000       0.114182         3.1070 
  24   0.0000       0.114182         3.1070 
  25   0.0000       0.115795         3.1509 
  26   0.0000       0.133230         3.6254 
  27   0.0000       0.141308         3.8452 
  28   0.0000       0.191612         5.2140 
  29   0.0000       0.245563         6.6821 
  30   0.0000       0.281800         7.6682 
  31   0.0000       0.281800         7.6682 
  32   0.0000       0.315312         8.5801 
  33   0.0000       0.347842         9.4653 
  34   0.0000       0.347842         9.4653 
  35   0.0000       0.404962        11.0196 
  36   0.0000       0.419445        11.4137 
  37   0.0000       0.420483        11.4419 
  38   0.0000       0.420483        11.4419 
  39   0.0000       0.423988        11.5373 
  40   0.0000       0.653220        17.7750 
  41   0.0000       0.672238        18.2925 
  42   0.0000       0.803636        21.8680 
  43   0.0000       0.843363        22.9491 
  44   0.0000       0.844579        22.9822 
  45   0.0000       0.941436        25.6178 
  46   0.0000       0.941436        25.6178 
  47   0.0000       0.994370        27.0582 
  48   0.0000       1.019897        27.7528 
  49   0.0000       1.019897        27.7528 
  50   0.0000       1.108350        30.1597 
  51   0.0000       1.108350        30.1597 
  52   0.0000       1.138886        30.9907 
  53   0.0000       1.138886        30.9907 
  54   0.0000       1.230733        33.4899 
  55   0.0000       1.283212        34.9180 
  56   0.0000       1.290015        35.1031 
  57   0.0000       1.329684        36.1825 
  58   0.0000       1.329684        36.1826 
  59   0.0000       1.435101        39.0511 
  60   0.0000       1.459494        39.7148 
  61   0.0000       1.541159        41.9371 
  62   0.0000       1.589716        43.2584 
  63   0.0000       1.907384        51.9026 
  64   0.0000       1.907384        51.9026 
  65   0.0000       2.360903        64.2434 
  66   0.0000       3.114855        84.7595 
  67   0.0000       3.277773        89.1927 
  68   0.0000       3.277773        89.1927 
  69   0.0000       3.324274        90.4581 
  70   0.0000       3.349927        91.1562 
  71   0.0000       3.349928        91.1562 
  72   0.0000       3.360891        91.4545 
  73   0.0000       3.378940        91.9456 
  74   0.0000       3.425951        93.2249 
  75   0.0000       3.583618        97.5152 
  76   0.0000       3.583618        97.5152 
  77   0.0000       3.731520       101.5398 
  78   0.0000       3.733501       101.5937 
  79   0.0000       3.826814       104.1329 
  80   0.0000       3.826814       104.1329 
  81   0.0000       3.874899       105.4414 
  82   0.0000       4.056675       110.3877 
  83   0.0000       4.158499       113.1585 
  84   0.0000       4.158499       113.1585 
  85   0.0000       4.199397       114.2714 
  86   0.0000       4.199397       114.2714 
  87   0.0000       4.211379       114.5975 
  88   0.0000       4.213884       114.6656 
  89   0.0000       4.320712       117.5726 
  90   0.0000       4.329220       117.8041 
  91   0.0000       4.966058       135.1333 
  92   0.0000       4.966059       135.1333 
  93   0.0000       5.056990       137.6077 
  94   0.0000       5.323291       144.8541 
  95   0.0000       5.371268       146.1596 
  96   0.0000       5.585439       151.9875 
  97   0.0000       5.648505       153.7036 
  98   0.0000       5.648506       153.7036 
  99   0.0000       6.909443       188.0155 
 100   0.0000      10.657893       290.0160 
 101   0.0000      10.661569       290.1160 
 102   0.0000      10.661569       290.1161 
 103   0.0000      10.680487       290.6308 
 104   0.0000      10.743127       292.3354 
 105   0.0000      10.743127       292.3354 
 106   0.0000      10.965784       298.3942 
 107   0.0000      11.693930       318.2080 
 108   0.0000      11.693930       318.2080 
 109   0.0000      11.706394       318.5472 
 110   0.0000      11.709896       318.6425 
 111   0.0000      11.718032       318.8639 
 112   0.0000      11.731886       319.2409 
 113   0.0000      11.931648       324.6767 
 114   0.0000      11.931648       324.6767 
 115   0.0000      12.251334       333.3758 

                    ********************************
                    * MULLIKEN POPULATION ANALYSIS *
                    ********************************

--------------------------------------------
MULLIKEN ATOMIC CHARGES AND SPIN POPULATIONS
--------------------------------------------
   0 Co:    0.086872    2.061269
   1 H :   -0.086872   -0.061269
Sum of atomic charges         :   -0.0000000
Sum of atomic spin populations:    2.0000000

-----------------------------------------------------
MULLIKEN REDUCED ORBITAL CHARGES AND SPIN POPULATIONS
-----------------------------------------------------
CHARGE
  0 Cos       :     6.752955  s :     6.752955
      pz      :     4.134742  p :    12.138638
      px      :     4.001948
      py      :     4.001948
      dz2     :     1.028385  d :     8.018151
      dxz     :     1.994986
      dyz     :     1.994987
      dx2y2   :     1.077012
      dxy     :     1.922781
      f0      :     0.002760  f :     0.003247
      f+1     :     0.000090
      f-1     :     0.000090
      f+2     :     0.000080
      f-2     :     0.000167
      f+3     :     0.000029
      f-3     :     0.000029
      g0      :     0.000108  g :     0.000136
      g+1     :     0.000002
      g-1     :     0.000002
      g+2     :     0.000005
      g-2     :     0.000005
      g+3     :     0.000003
      g-3     :     0.000003
      g+4     :     0.000006
      g-4     :     0.000002
  1 H s       :     1.085125  s :     1.085125
      pz      :    -0.004667  p :     0.000819
      px      :     0.002743
      py      :     0.002743
      dz2     :     0.000583  d :     0.000928
      dxz     :     0.000198
      dyz     :     0.000198
      dx2y2   :    -0.000016
      dxy     :    -0.000034

SPIN
  0 Cos       :     0.248459  s :     0.248459
      pz      :    -0.012502  p :    -0.012791
      px      :    -0.000144
      py      :    -0.000145
      dz2     :     0.823585  d :     1.825722
      dxz     :     0.001074
      dyz     :     0.001075
      dx2y2   :     0.922864
      dxy     :     0.077125
      f0      :    -0.000159  f :    -0.000161
      f+1     :    -0.000013
      f-1     :    -0.000013
      f+2     :     0.000066
      f-2     :    -0.000008
      f+3     :    -0.000018
      f-3     :    -0.000018
      g0      :     0.000040  g :     0.000039
      g+1     :    -0.000003
      g-1     :    -0.000003
      g+2     :     0.000005
      g-2     :    -0.000001
      g+3     :    -0.000001
      g-3     :    -0.000001
      g+4     :     0.000002
      g-4     :     0.000001
  1 H s       :    -0.060417  s :    -0.060417
      pz      :     0.000697  p :    -0.000606
      px      :    -0.000652
      py      :    -0.000652
      dz2     :     0.000294  d :    -0.000246
      dxz     :    -0.000244
      dyz     :    -0.000244
      dx2y2   :    -0.000016
      dxy     :    -0.000035


                     *******************************
                     * LOEWDIN POPULATION ANALYSIS *
                     *******************************

-------------------------------------------
LOEWDIN ATOMIC CHARGES AND SPIN POPULATIONS
-------------------------------------------
   0 Co:    0.616587    1.986852
   1 H :   -0.616587    0.013148

----------------------------------------------------
LOEWDIN REDUCED ORBITAL CHARGES AND SPIN POPULATIONS
----------------------------------------------------
CHARGE
  0 Cos       :     6.492555  s :     6.492555
      pz      :     4.108667  p :    12.036641
      px      :     3.963988
      py      :     3.963987
      dz2     :     1.031546  d :     7.833638
      dxz     :     1.909743
      dyz     :     1.909743
      dx2y2   :     1.071373
      dxy     :     1.911234
      f0      :     0.013985  f :     0.019784
      f+1     :     0.002475
      f-1     :     0.002475
      f+2     :     0.000255
      f-2     :     0.000534
      f+3     :     0.000029
      f-3     :     0.000029
      g0      :     0.000550  g :     0.000794
      g+1     :     0.000106
      g-1     :     0.000106
      g+2     :     0.000011
      g-2     :     0.000008
      g+3     :     0.000003
      g-3     :     0.000003
      g+4     :     0.000006
      g-4     :     0.000002
  1 H s       :     1.049116  s :     1.049116
      pz      :     0.174837  p :     0.285708
      px      :     0.055436
      py      :     0.055436
      dz2     :     0.128736  d :     0.281763
      dxz     :     0.068221
      dyz     :     0.068222
      dx2y2   :     0.005443
      dxy     :     0.011141

SPIN
  0 Cos       :     0.223490  s :     0.223490
      pz      :    -0.024908  p :    -0.026772
      px      :    -0.000931
      py      :    -0.000933
      dz2     :     0.786258  d :     1.791369
      dxz     :     0.004784
      dyz     :     0.004785
      dx2y2   :     0.918206
      dxy     :     0.077335
      f0      :    -0.001351  f :    -0.001304
      f+1     :    -0.000053
      f-1     :    -0.000053
      f+2     :     0.000209
      f-2     :    -0.000021
      f+3     :    -0.000018
      f-3     :    -0.000018
      g0      :     0.000025  g :     0.000069
      g+1     :     0.000013
      g-1     :     0.000013
      g+2     :     0.000011
      g-2     :     0.000007
      g+3     :    -0.000001
      g-3     :    -0.000001
      g+4     :     0.000002
      g-4     :     0.000001
  1 H s       :    -0.008877  s :    -0.008877
      pz      :     0.021941  p :     0.015958
      px      :    -0.002992
      py      :    -0.002991
      dz2     :     0.003419  d :     0.006067
      dxz     :    -0.000803
      dyz     :    -0.000802
      dx2y2   :     0.004492
      dxy     :    -0.000240


                      *****************************
                      * MAYER POPULATION ANALYSIS *
                      *****************************

  NA   - Mulliken gross atomic population
  ZA   - Total nuclear charge
  QA   - Mulliken gross atomic charge
  VA   - Mayer's total valence
  BVA  - Mayer's bonded valence
  FA   - Mayer's free valence

  ATOM       NA         ZA         QA         VA         BVA        FA
  0 Co    26.9131    27.0000     0.0869     2.9867     1.0334     1.9533
  1 H      1.0869     1.0000    -0.0869     1.0413     1.0334     0.0079

  Mayer bond orders larger than 0.100000
B(  0-Co,  1-H ) :   1.0334 

-------
TIMINGS
-------

Total SCF time: 0 days 0 hours 4 min 35 sec 

Total time                  ....     275.047 sec
Sum of individual times     ....     274.662 sec  ( 99.9%)

Fock matrix formation       ....     274.311 sec  ( 99.7%)
  XC integration            ....       0.407 sec  (  0.1% of F)
    Basis function eval.    ....       0.091 sec  ( 22.3% of XC)
    Density eval.           ....       0.045 sec  ( 11.1% of XC)
    XC-Functional eval.     ....       0.022 sec  (  5.3% of XC)
    XC-Potential eval.      ....       0.100 sec  ( 24.5% of XC)
Diagonalization             ....       0.079 sec  (  0.0%)
Density matrix formation    ....       0.012 sec  (  0.0%)
Population analysis         ....       0.006 sec  (  0.0%)
Initial guess               ....       0.092 sec  (  0.0%)
Orbital Transformation      ....       0.000 sec  (  0.0%)
Orbital Orthonormalization  ....       0.000 sec  (  0.0%)
DIIS solution               ....       0.027 sec  (  0.0%)
Grid generation             ....       0.135 sec  (  0.0%)

-------------------------   --------------------
FINAL SINGLE POINT ENERGY     -1383.186188880325
-------------------------   --------------------


                            ***************************************
                            *     ORCA property calculations      *
                            ***************************************

                                    ---------------------
                                    Active property flags
                                    ---------------------
   (+) Dipole Moment


------------------------------------------------------------------------------
                       ORCA ELECTRIC PROPERTIES CALCULATION
------------------------------------------------------------------------------

Dipole Moment Calculation                       ... on
Quadrupole Moment Calculation                   ... off
Polarizability Calculation                      ... off
GBWName                                         ... 37_CoH.gbw
Electron density file                           ... 37_CoH.scfp
The origin for moment calculation is the CENTER OF MASS  = ( 0.000000,  0.000000  0.501200)

-------------
DIPOLE MOMENT
-------------
                                X             Y             Z
Electronic contribution:     -0.00000      -0.00000      -2.83763
Nuclear contribution   :      0.00000       0.00000       1.52052
                        -----------------------------------------
Total Dipole Moment    :     -0.00000      -0.00000      -1.31711
                        -----------------------------------------
Magnitude (a.u.)       :      1.31711
Magnitude (Debye)      :      3.34784



--------------------
Rotational spectrum 
--------------------
 
Rotational constants in cm-1:     0.000000     7.355540     7.355540 
Rotational constants in MHz :     0.000000 220513.537195 220513.537195 

 Dipole components along the rotational axes: 
x,y,z [a.u.] :    -1.317115    -0.000000    -0.000000 
x,y,z [Debye]:    -3.347840    -0.000000    -0.000000 

 

Timings for individual modules:

Sum of individual times         ...      278.957 sec (=   4.649 min)
GTO integral calculation        ...        3.093 sec (=   0.052 min)   1.1 %
SCF iterations                  ...      275.864 sec (=   4.598 min)  98.9 %
                             ****ORCA TERMINATED NORMALLY****
TOTAL RUN TIME: 0 days 0 hours 4 minutes 39 seconds 716 msec
