
                                 *****************
                                 * O   R   C   A *
                                 *****************

           --- An Ab Initio, DFT and Semiempirical electronic structure package ---

                  #######################################################
                  #                        -***-                        #
                  #          Department of theory and spectroscopy      #
                  #               Directorship: Frank Neese             #
                  #        Max Planck Institute fuer Kohlenforschung    #
                  #                Kaiser Wilhelm Platz 1               #
                  #                 D-45470 Muelheim/Ruhr               #
                  #                      Germany                        #
                  #                                                     #
                  #                  All rights reserved                #
                  #                        -***-                        #
                  #######################################################


                         Program Version 4.2.0 -  RELEASE  -


 With contributions from (in alphabetic order):
   Daniel Aravena         : Magnetic Suceptibility
   Michael Atanasov       : Ab Initio Ligand Field Theory (pilot matlab implementation)
   Alexander A. Auer      : GIAO ZORA, VPT2
   Ute Becker             : Parallelization
   Giovanni Bistoni       : ED, misc. LED, open-shell LED, HFLED
   Martin Brehm           : Molecular dynamics
   Dmytro Bykov           : SCF Hessian
   Vijay G. Chilkuri      : MRCI spin determinant printing, contributions to CSF-ICE
   Dipayan Datta          : RHF DLPNO-CCSD density
   Achintya Kumar Dutta   : EOM-CC, STEOM-CC
   Dmitry Ganyushin       : Spin-Orbit,Spin-Spin,Magnetic field MRCI
   Miquel Garcia          : C-PCM Hessian, Gaussian charge scheme
   Yang Guo               : DLPNO-NEVPT2, CIM, IAO-localization
   Andreas Hansen         : Spin unrestricted coupled pair/coupled cluster methods
   Benjamin Helmich-Paris : CASSCF linear response (MC-RPA)
   Lee Huntington         : MR-EOM, pCC
   Robert Izsak           : Overlap fitted RIJCOSX, COSX-SCS-MP3, EOM
   Christian Kollmar      : KDIIS, OOCD, Brueckner-CCSD(T), CCSD density
   Simone Kossmann        : Meta GGA functionals, TD-DFT gradient, OOMP2, MP2 Hessian
   Martin Krupicka        : AUTO-CI
   Lucas Lang             : DCDCAS
   Dagmar Lenk            : GEPOL surface, SMD
   Dimitrios Liakos       : Extrapolation schemes; Compound Job, initial MDCI parallelization
   Dimitrios Manganas     : Further ROCIS development; embedding schemes
   Dimitrios Pantazis     : SARC Basis sets
   Taras Petrenko         : DFT Hessian,TD-DFT gradient, ASA, ECA, R-Raman, ABS, FL, XAS/XES, NRVS
   Peter Pinski           : DLPNO-MP2, DLPNO-MP2 Gradient
   Christoph Reimann      : Effective Core Potentials
   Marius Retegan         : Local ZFS, SOC
   Christoph Riplinger    : Optimizer, TS searches, QM/MM, DLPNO-CCSD(T), (RO)-DLPNO pert. Triples
   Tobias Risthaus        : Range-separated hybrids, TD-DFT gradient, RPA, STAB
   Michael Roemelt        : Original ROCIS implementation
   Masaaki Saitow         : Open-shell DLPNO-CCSD energy and density
   Barbara Sandhoefer     : DKH picture change effects
   Avijit Sen             : IP-ROCIS
   Kantharuban Sivalingam : CASSCF convergence, NEVPT2, FIC-MRCI
   Bernardo de Souza      : ESD, SOC TD-DFT
   Georgi Stoychev        : AutoAux, RI-MP2 NMR
   Willem Van den Heuvel  : Paramagnetic NMR
   Boris Wezisla          : Elementary symmetry handling
   Frank Wennmohs         : Technical directorship


 We gratefully acknowledge several colleagues who have allowed us to
 interface, adapt or use parts of their codes:
   Stefan Grimme, W. Hujo, H. Kruse,             : VdW corrections, initial TS optimization,
                  C. Bannwarth                     DFT functionals, gCP, sTDA/sTD-DF
   Ed Valeev, F. Pavosevic, A. Kumar             : LibInt (2-el integral package), F12 methods
   Garnet Chan, S. Sharma, J. Yang, R. Olivares  : DMRG
   Ulf Ekstrom                                   : XCFun DFT Library
   Mihaly Kallay                                 : mrcc  (arbitrary order and MRCC methods)
   Andreas Klamt, Michael Diedenhofen            : otool_cosmo (COSMO solvation model)
   Jiri Pittner, Ondrej Demel                    : Mk-CCSD
   Frank Weinhold                                : gennbo (NPA and NBO analysis)
   Christopher J. Cramer and Donald G. Truhlar   : smd solvation model
   Lars Goerigk                                  : TD-DFT with DH, B97 family of functionals
   V. Asgeirsson, H. Jonsson                     : NEB implementation
   FAccTs GmbH                                   : IRC, NEB, NEB-TS, Multilevel, MM, QM/MM, CI optimization
   S Lehtola, MJT Oliveira, MAL Marques          : LibXC Library


 Your calculation uses the libint2 library for the computation of 2-el integrals
 For citations please refer to: http://libint.valeyev.net

 Your ORCA version has been built with support for libXC version: 4.2.3
 For citations please refer to: https://tddft.org/programs/libxc/

 This ORCA versions uses:
   CBLAS   interface :  Fast vector & matrix operations
   LAPACKE interface :  Fast linear algebra routines
   SCALAPACK package :  Parallel linear algebra routines


Your calculation utilizes the DFT-NL dispersion correction.
Cite in your paper:
Vydrov, O. A.; Van Voorhis, T. J. Chem. Phys. 2010, 133, 244103
Hujo, W.; Grimme, S. J. Chem. Theory Comput. 2011, 7, 3866 
   

----- Orbital basis set information -----
Your calculation utilizes the basis: aug-cc-pVTZ 
    H, B-Ne : Obtained from the ccRepo (grant-hill.group.shef.ac.uk/ccrepo) Feb. 2017
              R. A. Kendall, T. H. Dunning, Jr., R. J. Harrison, J. Chem. Phys. 96, 6796 (1992)
         He : Obtained from the ccRepo (grant-hill.group.shef.ac.uk/ccrepo) Feb. 2017
              D. E. Woon, T. H. Dunning, Jr., J. Chem. Phys. 100, 2975 (1994)
  Li-Be, Na : Obtained from the ccRepo (grant-hill.group.shef.ac.uk/ccrepo) Feb. 2017
              B. P. Prascher, D. E. Woon, K. A. Peterson, T. H. Dunning, Jr., A. K. Wilson, Theor. Chem. Acc. 128, 69 (2011)
         Mg : Obtained from the Peterson Research Group Website (tyr0.chem.wsu.edu/~kipeters) Feb. 2017
              B. P. Prascher, D. E. Woon, K. A. Peterson, T. H. Dunning, Jr., A. K. Wilson, Theor. Chem. Acc. 128, 69 (2011)
      Al-Ar : Obtained from the ccRepo (grant-hill.group.shef.ac.uk/ccrepo) Feb. 2017
              D. E. Woon, T. H. Dunning, Jr., J. Chem. Phys. 98, 1358 (1993)
      Sc-Zn : Obtained from the ccRepo (grant-hill.group.shef.ac.uk/ccrepo) Feb. 2017
              N. B. Balabanov, K. A. Peterson, J. Chem. Phys. 123, 064107 (2005)
              N. B. Balabanov, K. A. Peterson, J. Chem. Phys. 125, 074110 (2006)
      Ga-Kr : Obtained from the ccRepo (grant-hill.group.shef.ac.uk/ccrepo) Feb. 2017
              A. K. Wilson, D. E. Woon, K. A. Peterson, T. H. Dunning, Jr., J. Chem. Phys. 110, 7667 (1999)
     Ag, Au : Obtained from the Peterson Research Group Website (tyr0.chem.wsu.edu/~kipeters) Feb. 2017
              K. A. Peterson, C. Puzzarini, Theor. Chem. Acc. 114, 283 (2005)

----- AuxJK basis set information -----
Your calculation utilizes the auxiliary basis: def2/JK
   H-Ba, Hf-Rn: F. Weigend, J. Comput. Chem. 29, 167 (2008).

================================================================================
                                        WARNINGS
                       Please study these warnings very carefully!
================================================================================


WARNING: your system is open-shell and RHF/RKS was chosen
  ===> : WILL SWITCH to UHF/UKS


INFO   : the flag for use of LIBINT has been found!

================================================================================
                                       INPUT FILE
================================================================================
NAME = 38_CoF.in
|  1> #
|  2> # 38_CoF wb97x-v/aug-cc-pvtz
|  3> #
|  4> ! wb97x-v aug-cc-pvtz def2/jk grid4 nofinalgrid
|  5> 
|  6> *xyz 0 3
|  7>   Co  0.00000000000000      0.00000000000000      0.12338928235446
|  8>   F   0.00000000000000      0.00000000000000      1.87661071764554
|  9> *
| 10> 
| 11> %pal
| 12> nprocs 24
| 13> end
| 14> 
| 15> 
| 16>                          ****END OF INPUT****
================================================================================

                       ****************************
                       * Single Point Calculation *
                       ****************************

---------------------------------
CARTESIAN COORDINATES (ANGSTROEM)
---------------------------------
  Co     0.000000    0.000000    0.123389
  F      0.000000    0.000000    1.876611

----------------------------
CARTESIAN COORDINATES (A.U.)
----------------------------
  NO LB      ZA    FRAG     MASS         X           Y           Z
   0 Co   27.0000    0    58.930    0.000000    0.000000    0.233172
   1 F     9.0000    0    18.998    0.000000    0.000000    3.546280

--------------------------------
INTERNAL COORDINATES (ANGSTROEM)
--------------------------------
 Co     0   0   0     0.000000000000     0.00000000     0.00000000
 F      1   0   0     1.753221435291     0.00000000     0.00000000

---------------------------
INTERNAL COORDINATES (A.U.)
---------------------------
 Co     0   0   0     0.000000000000     0.00000000     0.00000000
 F      1   0   0     3.313108364820     0.00000000     0.00000000

---------------------
BASIS SET INFORMATION
---------------------
There are 2 groups of distinct atoms

 Group   1 Type Co  : 116s77p23d3f2g contracted to 8s7p5d3f2g pattern {19191919191911/151515151511/77711/111/11}
 Group   2 Type F   : 19s6p3d2f contracted to 5s4p3d2f pattern {88111/3111/111/11}

Atom   0Co   basis set group =>   1
Atom   1F    basis set group =>   2
----------------------------------
AUXILIARY/JK BASIS SET INFORMATION
----------------------------------
There are 2 groups of distinct atoms

 Group   1 Type Co  : 19s14p12d10f7g3h1i contracted to 16s13p11d9f5g3h1i pattern {4111111111111111/2111111111111/21111111111/211111111/31111/111/1}
 Group   2 Type F   : 14s10p6d2f1g contracted to 10s8p4d2f1g pattern {5111111111/31111111/3111/11/1}

Atom   0Co   basis set group =>   1
Atom   1F    basis set group =>   2


           ************************************************************
           *        Program running with 24 parallel MPI-processes    *
           *              working on a common directory               *
           ************************************************************
------------------------------------------------------------------------------
                           ORCA GTO INTEGRAL CALCULATION
------------------------------------------------------------------------------

                         BASIS SET STATISTICS AND STARTUP INFO

 # of primitive gaussian shells          ...  251
 # of primitive gaussian functions       ...  567
 # of contracted shells                  ...   39
 # of contracted basis functions         ...  139
 Highest angular momentum                ...    4
 Maximum contraction depth               ...   19
 Integral package used                   ... LIBINT
 Integral threshhold            Thresh   ...  1.000e-10
 Primitive cut-off              TCut     ...  1.000e-11


------------------------------ INTEGRAL EVALUATION ----------------------------


 * One electron integrals 
 Pre-screening matrix                    ... done
 Shell pair data                         ... done (   0.001 sec)



           ************************************************************
           *        Program running with 24 parallel MPI-processes    *
           *              working on a common directory               *
           ************************************************************
-------------------------------------------------------------------------------
                                 ORCA SCF
-------------------------------------------------------------------------------

------------
SCF SETTINGS
------------
Hamiltonian:
 Density Functional     Method          .... DFT(GTOs)
 Exchange Functional    Exchange        .... WB97X-V
 Correlation Functional Correlation     .... WB97X-V
 Gradients option       PostSCFGGA      .... off
 Hybrid DFT is turned on
   Fraction HF Exchange ScalHFX         ....  0.167000
   Scaling of DF-GGA-X  ScalDFX         ....  0.000000
   Scaling of DF-GGA-C  ScalDFC         ....  1.000000
   Scaling of DF-LDA-C  ScalLDAC        ....  1.000000
   Perturbative correction              ....  0.000000
   Density functional embedding theory  .... OFF
 Long-range corrected/Screened/Range-Separated Hybrid DFT is turned on
   Amount of maximum screened exact exchange              ....  0.833000
   Range separation parameter mu (erf(mu*r12)/r12)        ....  0.300000
   NL short-range parameter             ....  6.000000
   NL long-range parameter              ....  0.010000


General Settings:
 Integral files         IntName         .... 38_CoF
 Hartree-Fock type      HFTyp           .... UHF
 Total Charge           Charge          ....    0
 Multiplicity           Mult            ....    3
 Number of Electrons    NEL             ....   36
 Basis Dimension        Dim             ....  139
 Nuclear Repulsion      ENuc            ....     73.3450202173 Eh

Convergence Acceleration:
 DIIS                   CNVDIIS         .... on
   Start iteration      DIISMaxIt       ....    12
   Startup error        DIISStart       ....  0.200000
   # of expansion vecs  DIISMaxEq       ....     5
   Bias factor          DIISBfac        ....   1.050
   Max. coefficient     DIISMaxC        ....  10.000
 Newton-Raphson         CNVNR           .... off
 SOSCF                  CNVSOSCF        .... off
 Level Shifting         CNVShift        .... on
   Level shift para.    LevelShift      ....    0.2500
   Turn off err/grad.   ShiftErr        ....    0.0010
 Zerner damping         CNVZerner       .... off
 Static damping         CNVDamp         .... on
   Fraction old density DampFac         ....    0.7000
   Max. Damping (<1)    DampMax         ....    0.9800
   Min. Damping (>=0)   DampMin         ....    0.0000
   Turn off err/grad.   DampErr         ....    0.1000
 Fernandez-Rico         CNVRico         .... off

SCF Procedure:
 Maximum # iterations   MaxIter         ....   125
 SCF integral mode      SCFMode         .... Direct
   Integral package                     .... LIBINT
 Reset frequency        DirectResetFreq ....    20
 Integral Threshold     Thresh          ....  1.000e-10 Eh
 Primitive CutOff       TCut            ....  1.000e-11 Eh

Convergence Tolerance:
 Convergence Check Mode ConvCheckMode   .... Total+1el-Energy
 Convergence forced     ConvForced      .... 0
 Energy Change          TolE            ....  1.000e-06 Eh
 1-El. energy change                    ....  1.000e-03 Eh
 DIIS Error             TolErr          ....  1.000e-06


Diagonalization of the overlap matrix:
Smallest eigenvalue                        ... 1.026e-04
Time for diagonalization                   ...    0.021 sec
Threshold for overlap eigenvalues          ... 1.000e-08
Number of eigenvalues below threshold      ... 0
Time for construction of square roots      ...    0.002 sec
Total time needed                          ...    0.023 sec

-------------------
DFT GRID GENERATION
-------------------

General Integration Accuracy     IntAcc      ...  4.670
Radial Grid Type                 RadialGrid  ... Gauss-Chebyshev
Angular Grid (max. acc.)         AngularGrid ... Lebedev-302
Angular grid pruning method      GridPruning ... 3 (G Style)
Weight generation scheme         WeightScheme... Becke
Basis function cutoff            BFCut       ...    1.0000e-10
Integration weight cutoff        WCut        ...    1.0000e-14
Grids for H and He will be reduced by one unit

# of grid points (after initial pruning)     ...  15912 (   0.0 sec)
# of grid points (after weights+screening)   ...  15863 (   0.0 sec)
nearest neighbour list constructed           ...    0.0 sec
Grid point re-assignment to atoms done       ...    0.0 sec
Grid point division into batches done        ...    0.1 sec
Reduced shell lists constructed in    0.1 sec

Total number of grid points                  ...    15863
Total number of batches                      ...      249
Average number of points per batch           ...       63
Average number of grid points per atom       ...     7932
Average number of shells per batch           ...    13.92 (35.68%)
Average number of basis functions per batch  ...    32.25 (23.20%)
Average number of large shells per batch     ...     7.08 (50.90%)
Average number of large basis fcns per batch ...    17.75 (55.04%)
Maximum spatial batch extension              ...  28.57, 31.41, 18.44 au
Average spatial batch extension              ...   0.89,  0.95,  0.67 au

Time for grid setup =    0.137 sec

------------------------------
INITIAL GUESS: MODEL POTENTIAL
------------------------------
Loading Hartree-Fock densities                     ... done
Calculating cut-offs                               ... done
Setting up the integral package                    ... done
Initializing the effective Hamiltonian             ... done
Starting the Coulomb interaction                   ... done (   0.0 sec)
Reading the grid                                   ... done
Mapping shells                                     ... done
Starting the XC term evaluation                    ... done (   0.0 sec)
  promolecular density results
     # of electrons  =     36.000019389
     EX              =    -51.311734933
     EC              =     -2.031819314
     EX+EC           =    -53.343554247
Transforming the Hamiltonian                       ... done (   0.0 sec)
Diagonalizing the Hamiltonian                      ... done (   0.0 sec)
Back transforming the eigenvectors                 ... done (   0.0 sec)
Now organizing SCF variables                       ... done
                      ------------------
                      INITIAL GUESS DONE (   0.2 sec)
                      ------------------
--------------
SCF ITERATIONS
--------------
ITER       Energy         Delta-E        Max-DP      RMS-DP      [F,P]     Damp
               ***  Starting incremental Fock matrix formation  ***
  0  -1474.1365567018   0.000000000000 0.78772760  0.01619928  2.1217055 0.7000
  1  -1478.6514822734  -4.514925571605 0.27100754  0.00632176  0.6184230 0.7000
  2  -1479.7455187052  -1.094036431874 0.19220663  0.00545865  0.6381646 0.7000
  3  -1480.6798327713  -0.934314066054 0.14547450  0.00370261  0.3839850 0.7000
  4  -1481.2439235533  -0.564090781988 0.10686119  0.00255888  0.2097028 0.7000
                               ***Turning on DIIS***
  5  -1481.6325858201  -0.388662266852 0.07525935  0.00183616  0.1612196 0.7000
  6  -1481.9111369405  -0.278551120346 0.05338828  0.00140865  0.1261649 0.7000
  7  -1482.1111115795  -0.199974639008 0.12496115  0.00346130  0.0762640 0.0000
  8  -1482.5991223079  -0.488010728459 0.02168785  0.00025502  0.0170096 0.0000
  9  -1482.6005484023  -0.001426094338 0.02206126  0.00019875  0.0180627 0.0000
 10  -1482.6014592351  -0.000910832838 0.02556756  0.00019357  0.0099590 0.0000
 11  -1482.6023875569  -0.000928321744 0.02497859  0.00018401  0.0071614 0.0000
 12  -1482.6031626768  -0.000775119908 0.02447197  0.00017624  0.0057935 0.0000
 13  -1482.6038847982  -0.000722121404 0.03462074  0.00025471  0.0041907 0.0000
 14  -1482.6048808477  -0.000996049530 0.04073926  0.00030524  0.0033565 0.0000
 15  -1482.6060019798  -0.001121132061 0.01300227  0.00010463  0.0029058 0.0000
 16  -1482.6063274073  -0.000325427533 0.03394535  0.00025521  0.0039751 0.0000
 17  -1482.6071855803  -0.000858173036 0.04450565  0.00034053  0.0016085 0.0000
 18  -1482.6081619636  -0.000976383303 0.03149848  0.00024195  0.0028360 0.0000
 19  -1482.6087363358  -0.000574372154 0.04434365  0.00034476  0.0017865 0.0000
               *** Restarting incremental Fock matrix formation ***
                                   *** Resetting DIIS ***
 20  -1482.6093003196  -0.000563983831 0.00590536  0.00007715  0.0040237 0.0000
 21  -1482.6093496640  -0.000049344340 0.00221706  0.00004370  0.0070821 0.0000
 22  -1482.6094029251  -0.000053261154 0.00247120  0.00002511  0.0024970 0.0000
 23  -1482.6094340942  -0.000031169090 0.00380194  0.00003393  0.0013499 0.0000
 24  -1482.6094699851  -0.000035890862 0.00998976  0.00007986  0.0007420 0.0000
 25  -1482.6095371872  -0.000067202087 0.00460549  0.00003783  0.0012444 0.0000
 26  -1482.6095626112  -0.000025424061 0.01162196  0.00008970  0.0005963 0.0000
 27  -1482.6096029146  -0.000040303406 0.00946213  0.00007384  0.0006865 0.0000
 28  -1482.6096186667  -0.000015752101 0.00682972  0.00005255  0.0002616 0.0000
 29  -1482.6096203070  -0.000001640309 0.00023704  0.00000310  0.0000821 0.0000
                 **** Energy Check signals convergence ****

               *****************************************************
               *                     SUCCESS                       *
               *           SCF CONVERGED AFTER  30 CYCLES          *
               *****************************************************


Setting up the DFT-NL grid :

General Integration Accuracy     IntAcc      ...  4.340
Radial Grid Type                 RadialGrid  ... Gauss-Chebyshev
Angular Grid (max. acc.)         AngularGrid ... Lebedev-110
Angular grid pruning method      GridPruning ... 3 (G Style)
Weight generation scheme         WeightScheme... Becke
Basis function cutoff            BFCut       ...    1.0000e-10
Integration weight cutoff        WCut        ...    1.0000e-14
Grids for H and He will be reduced by one unit

# of grid points (after initial pruning)     ...   4652 (   0.0 sec)
# of grid points (after weights+screening)   ...   4627 (   0.0 sec)
nearest neighbour list constructed           ...    0.0 sec
Grid point re-assignment to atoms done       ...    0.0 sec
Grid point division into batches done        ...    0.0 sec
Reduced shell lists constructed in    0.0 sec

Total number of grid points                  ...     4627
Total number of batches                      ...       73
Average number of points per batch           ...       63
Average number of grid points per atom       ...     2314
Average number of shells per batch           ...    20.80 (53.33%)
Average number of basis functions per batch  ...    59.20 (42.59%)
Average number of large shells per batch     ...    14.40 (69.23%)
Average number of large basis fcns per batch ...    39.20 (66.22%)
Maximum spatial batch extension              ...  19.55, 28.73, 15.95 au
Average spatial batch extension              ...   1.01,  1.33,  0.87 au

Final grid set up in    0.0 sec

-------------------------------------------------------------------------------
                         DFT-NL dispersion correction                          
-------------------------------------------------------------------------------

SC Energy -1482.609620586 
NL    Energy 0.152139030 
SC+NL Energy -1482.457481557 
NL done in    0.0 sec
-------------------------------------------------------------------------------

----------------
TOTAL SCF ENERGY
----------------

Total Energy       :        -1482.45748156 Eh          -40339.71890 eV

Components:
Nuclear Repulsion  :           73.34502022 Eh            1995.81947 eV
Electronic Energy  :        -1555.80250177 Eh          -42335.53837 eV
One Electron Energy:        -2201.49122191 Eh          -59905.62169 eV
Two Electron Energy:          645.68872013 Eh           17570.08332 eV

Virial components:
Potential Energy   :        -2962.88133247 Eh          -80624.09991 eV
Kinetic Energy     :         1480.42385091 Eh           40284.38100 eV
Virial Ratio       :            2.00137368


DFT components:
N(Alpha)           :       19.000016344851 electrons
N(Beta)            :       17.000016085078 electrons
N(Total)           :       36.000032429929 electrons
E(X)               :      -51.512555711188 Eh       
E(C)               :       -2.023482315783 Eh       
NL Energy, E(C,NL) :        0.152139029720 Eh       
E(XC)              :      -53.383898997252 Eh       
DFET-embed. en.    :        0.000000000000 Eh       

---------------
SCF CONVERGENCE
---------------

  Last Energy change         ...   -2.7921e-07  Tolerance :   1.0000e-06
  Last MAX-Density change    ...    4.2197e-04  Tolerance :   1.0000e-05
  Last RMS-Density change    ...    3.2673e-06  Tolerance :   1.0000e-06
  Last DIIS Error            ...    7.3391e-05  Tolerance :   1.0000e-06

             **** THE GBW FILE WAS UPDATED (38_CoF.gbw) ****
             **** DENSITY FILE WAS UPDATED (38_CoF.scfp) ****
             **** ENERGY FILE WAS UPDATED (38_CoF.en.tmp) ****
----------------------
UHF SPIN CONTAMINATION
----------------------

Warning: in a DFT calculation there is little theoretical justification to 
         calculate <S**2> as in Hartree-Fock theory. We will do it anyways
         but you should keep in mind that the values have only limited relevance

Expectation value of <S**2>     :     2.483351
Ideal value S*(S+1) for S=1.0   :     2.000000
Deviation                       :     0.483351

             **** THE GBW FILE WAS UPDATED (38_CoF.gbw) ****
             **** DENSITY FILE WAS UPDATED (38_CoF.scfp) ****
----------------
ORBITAL ENERGIES
----------------
                 SPIN UP ORBITALS
  NO   OCC          E(Eh)            E(eV) 
   0   1.0000    -277.467283     -7550.2686 
   1   1.0000     -32.973604      -897.2574 
   2   1.0000     -28.621224      -778.8231 
   3   1.0000     -28.621224      -778.8231 
   4   1.0000     -28.571393      -777.4671 
   5   1.0000     -24.676791      -671.4896 
   6   1.0000      -3.968109      -107.9777 
   7   1.0000      -2.682715       -73.0004 
   8   1.0000      -2.682715       -73.0004 
   9   1.0000      -2.590596       -70.4937 
  10   1.0000      -1.206244       -32.8236 
  11   1.0000      -0.541384       -14.7318 
  12   1.0000      -0.541384       -14.7318 
  13   1.0000      -0.538931       -14.6650 
  14   1.0000      -0.505445       -13.7539 
  15   1.0000      -0.505445       -13.7539 
  16   1.0000      -0.419446       -11.4137 
  17   1.0000      -0.419446       -11.4137 
  18   1.0000      -0.411493       -11.1973 
  19   0.0000      -0.047052        -1.2803 
  20   0.0000       0.027689         0.7535 
  21   0.0000       0.027689         0.7535 
  22   0.0000       0.033181         0.9029 
  23   0.0000       0.040539         1.1031 
  24   0.0000       0.077609         2.1118 
  25   0.0000       0.077609         2.1118 
  26   0.0000       0.107840         2.9345 
  27   0.0000       0.113429         3.0866 
  28   0.0000       0.113429         3.0866 
  29   0.0000       0.118031         3.2118 
  30   0.0000       0.118031         3.2118 
  31   0.0000       0.138151         3.7593 
  32   0.0000       0.173696         4.7265 
  33   0.0000       0.259262         7.0549 
  34   0.0000       0.259262         7.0549 
  35   0.0000       0.284782         7.7493 
  36   0.0000       0.317330         8.6350 
  37   0.0000       0.317330         8.6350 
  38   0.0000       0.327420         8.9096 
  39   0.0000       0.365545         9.9470 
  40   0.0000       0.365545         9.9470 
  41   0.0000       0.399608        10.8739 
  42   0.0000       0.399608        10.8739 
  43   0.0000       0.445580        12.1248 
  44   0.0000       0.567237        15.4353 
  45   0.0000       0.683049        18.5867 
  46   0.0000       0.853013        23.2117 
  47   0.0000       0.853016        23.2117 
  48   0.0000       0.872770        23.7493 
  49   0.0000       0.872770        23.7493 
  50   0.0000       0.977204        26.5911 
  51   0.0000       1.032438        28.0941 
  52   0.0000       1.032438        28.0941 
  53   0.0000       1.076925        29.3046 
  54   0.0000       1.076925        29.3046 
  55   0.0000       1.109007        30.1776 
  56   0.0000       1.152687        31.3662 
  57   0.0000       1.152687        31.3662 
  58   0.0000       1.216334        33.0981 
  59   0.0000       1.216335        33.0982 
  60   0.0000       1.267056        34.4784 
  61   0.0000       1.267056        34.4784 
  62   0.0000       1.309612        35.6364 
  63   0.0000       1.311377        35.6844 
  64   0.0000       1.311377        35.6844 
  65   0.0000       1.523438        41.4549 
  66   0.0000       1.636007        44.5180 
  67   0.0000       1.714436        46.6522 
  68   0.0000       1.714436        46.6522 
  69   0.0000       2.439224        66.3747 
  70   0.0000       2.705260        73.6139 
  71   0.0000       2.705291        73.6147 
  72   0.0000       2.709302        73.7238 
  73   0.0000       2.709302        73.7238 
  74   0.0000       2.803346        76.2829 
  75   0.0000       2.803346        76.2829 
  76   0.0000       2.918101        79.4056 
  77   0.0000       2.918128        79.4063 
  78   0.0000       2.953743        80.3754 
  79   0.0000       3.151381        85.7534 
  80   0.0000       3.151381        85.7534 
  81   0.0000       3.166980        86.1779 
  82   0.0000       3.166980        86.1779 
  83   0.0000       3.183935        86.6393 
  84   0.0000       3.237791        88.1048 
  85   0.0000       3.237794        88.1049 
  86   0.0000       3.292667        89.5980 
  87   0.0000       3.410411        92.8020 
  88   0.0000       3.410411        92.8020 
  89   0.0000       3.551910        96.6524 
  90   0.0000       3.551910        96.6524 
  91   0.0000       3.826926       104.1360 
  92   0.0000       4.056433       110.3811 
  93   0.0000       4.065888       110.6384 
  94   0.0000       4.065914       110.6391 
  95   0.0000       4.099169       111.5441 
  96   0.0000       4.099169       111.5441 
  97   0.0000       4.292218       116.7972 
  98   0.0000       4.292221       116.7973 
  99   0.0000       4.559888       124.0808 
 100   0.0000       4.682440       127.4157 
 101   0.0000       4.682440       127.4157 
 102   0.0000       5.005540       136.2077 
 103   0.0000       5.005540       136.2077 
 104   0.0000       5.120487       139.3355 
 105   0.0000       5.120488       139.3356 
 106   0.0000       5.442244       148.0910 
 107   0.0000       5.527242       150.4039 
 108   0.0000       5.527242       150.4039 
 109   0.0000       6.612427       179.9333 
 110   0.0000       8.469150       230.4573 
 111   0.0000       8.469150       230.4573 
 112   0.0000       8.563822       233.0334 
 113   0.0000       8.563877       233.0349 
 114   0.0000       8.834485       240.3986 
 115   0.0000       8.889779       241.9032 
 116   0.0000       8.889779       241.9032 
 117   0.0000       8.891488       241.9497 
 118   0.0000       8.892012       241.9640 
 119   0.0000       8.990416       244.6416 
 120   0.0000       8.990416       244.6416 
 121   0.0000       9.217726       250.8271 
 122   0.0000      10.358272       281.8629 
 123   0.0000      10.358272       281.8629 
 124   0.0000      10.454690       284.4866 
 125   0.0000      10.454697       284.4868 
 126   0.0000      10.554603       287.2053 
 127   0.0000      10.554603       287.2053 
 128   0.0000      10.692527       290.9584 
 129   0.0000      11.445748       311.4546 
 130   0.0000      11.445776       311.4554 
 131   0.0000      11.506162       313.0986 
 132   0.0000      11.506162       313.0986 
 133   0.0000      11.598747       315.6179 
 134   0.0000      11.598753       315.6181 
 135   0.0000      11.849749       322.4481 
 136   0.0000      11.849749       322.4481 
 137   0.0000      12.004406       326.6565 
 138   0.0000      14.053417       382.4129 

                 SPIN DOWN ORBITALS
  NO   OCC          E(Eh)            E(eV) 
   0   1.0000    -277.467350     -7550.2704 
   1   1.0000     -32.919784      -895.7929 
   2   1.0000     -28.569880      -777.4260 
   3   1.0000     -28.569880      -777.4260 
   4   1.0000     -28.543945      -776.7202 
   5   1.0000     -24.676106      -671.4710 
   6   1.0000      -3.845975      -104.6543 
   7   1.0000      -2.524135       -68.6852 
   8   1.0000      -2.524135       -68.6852 
   9   1.0000      -2.511371       -68.3379 
  10   1.0000      -1.203859       -32.7587 
  11   1.0000      -0.498665       -13.5694 
  12   1.0000      -0.482650       -13.1336 
  13   1.0000      -0.482650       -13.1336 
  14   1.0000      -0.381998       -10.3947 
  15   1.0000      -0.381998       -10.3947 
  16   1.0000      -0.305337        -8.3086 
  17   0.0000      -0.029812        -0.8112 
  18   0.0000      -0.029812        -0.8112 
  19   0.0000      -0.008519        -0.2318 
  20   0.0000       0.018854         0.5130 
  21   0.0000       0.018854         0.5130 
  22   0.0000       0.031920         0.8686 
  23   0.0000       0.038815         1.0562 
  24   0.0000       0.070264         1.9120 
  25   0.0000       0.070264         1.9120 
  26   0.0000       0.106905         2.9090 
  27   0.0000       0.109001         2.9661 
  28   0.0000       0.109001         2.9661 
  29   0.0000       0.111426         3.0320 
  30   0.0000       0.111426         3.0320 
  31   0.0000       0.136949         3.7266 
  32   0.0000       0.167167         4.5488 
  33   0.0000       0.255624         6.9559 
  34   0.0000       0.255624         6.9559 
  35   0.0000       0.286904         7.8070 
  36   0.0000       0.315933         8.5970 
  37   0.0000       0.315933         8.5970 
  38   0.0000       0.334216         9.0945 
  39   0.0000       0.383267        10.4292 
  40   0.0000       0.383267        10.4292 
  41   0.0000       0.404029        10.9942 
  42   0.0000       0.404029        10.9942 
  43   0.0000       0.447654        12.1813 
  44   0.0000       0.575192        15.6518 
  45   0.0000       0.685179        18.6447 
  46   0.0000       0.853108        23.2142 
  47   0.0000       0.853110        23.2143 
  48   0.0000       0.889615        24.2077 
  49   0.0000       0.889615        24.2077 
  50   0.0000       0.984326        26.7849 
  51   0.0000       1.037447        28.2304 
  52   0.0000       1.037447        28.2304 
  53   0.0000       1.084311        29.5056 
  54   0.0000       1.084311        29.5056 
  55   0.0000       1.119123        30.4529 
  56   0.0000       1.153195        31.3800 
  57   0.0000       1.153195        31.3800 
  58   0.0000       1.215217        33.0677 
  59   0.0000       1.215218        33.0678 
  60   0.0000       1.274540        34.6820 
  61   0.0000       1.274540        34.6820 
  62   0.0000       1.321924        35.9714 
  63   0.0000       1.361683        37.0533 
  64   0.0000       1.361683        37.0533 
  65   0.0000       1.530152        41.6376 
  66   0.0000       1.654975        45.0341 
  67   0.0000       1.722686        46.8767 
  68   0.0000       1.722686        46.8767 
  69   0.0000       2.446575        66.5747 
  70   0.0000       2.706470        73.6468 
  71   0.0000       2.706499        73.6476 
  72   0.0000       2.714040        73.8528 
  73   0.0000       2.714040        73.8528 
  74   0.0000       2.804410        76.3119 
  75   0.0000       2.804410        76.3119 
  76   0.0000       2.920105        79.4601 
  77   0.0000       2.920132        79.4608 
  78   0.0000       2.968255        80.7703 
  79   0.0000       3.173997        86.3688 
  80   0.0000       3.173997        86.3688 
  81   0.0000       3.220347        87.6301 
  82   0.0000       3.252074        88.4934 
  83   0.0000       3.252074        88.4934 
  84   0.0000       3.274172        89.0948 
  85   0.0000       3.274174        89.0948 
  86   0.0000       3.341779        90.9344 
  87   0.0000       3.475470        94.5724 
  88   0.0000       3.475470        94.5724 
  89   0.0000       3.582619        97.4880 
  90   0.0000       3.582619        97.4880 
  91   0.0000       3.874363       105.4268 
  92   0.0000       4.089171       111.2720 
  93   0.0000       4.110662       111.8568 
  94   0.0000       4.110686       111.8575 
  95   0.0000       4.117635       112.0465 
  96   0.0000       4.117635       112.0465 
  97   0.0000       4.309695       117.2728 
  98   0.0000       4.309697       117.2728 
  99   0.0000       4.577423       124.5580 
 100   0.0000       4.705823       128.0519 
 101   0.0000       4.705823       128.0519 
 102   0.0000       5.007186       136.2525 
 103   0.0000       5.007186       136.2525 
 104   0.0000       5.237278       142.5136 
 105   0.0000       5.237279       142.5136 
 106   0.0000       5.479645       149.1087 
 107   0.0000       5.572553       151.6369 
 108   0.0000       5.572553       151.6369 
 109   0.0000       6.663191       181.3146 
 110   0.0000       8.469813       230.4753 
 111   0.0000       8.469813       230.4753 
 112   0.0000       8.565423       233.0770 
 113   0.0000       8.565479       233.0785 
 114   0.0000       8.837678       240.4854 
 115   0.0000       8.892224       241.9697 
 116   0.0000       8.892224       241.9697 
 117   0.0000       8.892612       241.9803 
 118   0.0000       8.893136       241.9945 
 119   0.0000       8.994094       244.7417 
 120   0.0000       8.994094       244.7417 
 121   0.0000       9.227572       251.0950 
 122   0.0000      10.523530       286.3598 
 123   0.0000      10.523530       286.3598 
 124   0.0000      10.535166       286.6764 
 125   0.0000      10.535173       286.6766 
 126   0.0000      10.648237       289.7533 
 127   0.0000      10.648237       289.7533 
 128   0.0000      10.789937       293.6091 
 129   0.0000      11.566742       314.7471 
 130   0.0000      11.566767       314.7477 
 131   0.0000      11.570503       314.8494 
 132   0.0000      11.570503       314.8494 
 133   0.0000      11.659921       317.2826 
 134   0.0000      11.659926       317.2827 
 135   0.0000      11.916491       324.2642 
 136   0.0000      11.916491       324.2642 
 137   0.0000      12.076437       328.6166 
 138   0.0000      14.061141       382.6231 

                    ********************************
                    * MULLIKEN POPULATION ANALYSIS *
                    ********************************

--------------------------------------------
MULLIKEN ATOMIC CHARGES AND SPIN POPULATIONS
--------------------------------------------
   0 Co:    0.626047    1.958384
   1 F :   -0.626047    0.041616
Sum of atomic charges         :   -0.0000000
Sum of atomic spin populations:    2.0000000

-----------------------------------------------------
MULLIKEN REDUCED ORBITAL CHARGES AND SPIN POPULATIONS
-----------------------------------------------------
CHARGE
  0 Cos       :     6.847333  s :     6.847333
      pz      :     4.081663  p :    12.171097
      px      :     4.044717
      py      :     4.044717
      dz2     :     1.345286  d :     7.338030
      dxz     :     1.996481
      dyz     :     1.996481
      dx2y2   :     0.999890
      dxy     :     0.999890
      f0      :     0.006776  f :     0.016336
      f+1     :     0.004754
      f-1     :     0.004754
      f+2     :     0.000026
      f-2     :     0.000026
      f+3     :     0.000000
      f-3     :     0.000000
      g0      :     0.000488  g :     0.001157
      g+1     :     0.000313
      g-1     :     0.000313
      g+2     :     0.000022
      g-2     :     0.000022
      g+3     :     0.000000
      g-3     :     0.000000
      g+4     :     0.000000
      g-4     :     0.000000
  1 F s       :     3.989921  s :     3.989921
      pz      :     1.726473  p :     5.627640
      px      :     1.950584
      py      :     1.950584
      dz2     :     0.001247  d :     0.006844
      dxz     :     0.002761
      dyz     :     0.002761
      dx2y2   :     0.000038
      dxy     :     0.000038
      f0      :     0.000813  f :     0.001642
      f+1     :     0.000391
      f-1     :     0.000391
      f+2     :     0.000023
      f-2     :     0.000023
      f+3     :     0.000000
      f-3     :     0.000000

SPIN
  0 Cos       :    -0.573962  s :    -0.573962
      pz      :    -0.029954  p :    -0.044907
      px      :    -0.007477
      py      :    -0.007477
      dz2     :     0.564531  d :     2.577084
      dxz     :     0.006386
      dyz     :     0.006386
      dx2y2   :     0.999890
      dxy     :     0.999890
      f0      :    -0.000065  f :     0.000041
      f+1     :     0.000027
      f-1     :     0.000027
      f+2     :     0.000026
      f-2     :     0.000026
      f+3     :    -0.000000
      f-3     :    -0.000000
      g0      :     0.000069  g :     0.000129
      g+1     :     0.000008
      g-1     :     0.000008
      g+2     :     0.000022
      g-2     :     0.000022
      g+3     :    -0.000000
      g-3     :    -0.000000
      g+4     :    -0.000000
      g-4     :    -0.000000
  1 F s       :     0.002018  s :     0.002018
      pz      :     0.037477  p :     0.040080
      px      :     0.001301
      py      :     0.001301
      dz2     :    -0.000132  d :    -0.000514
      dxz     :    -0.000229
      dyz     :    -0.000229
      dx2y2   :     0.000038
      dxy     :     0.000038
      f0      :     0.000018  f :     0.000032
      f+1     :    -0.000016
      f-1     :    -0.000016
      f+2     :     0.000023
      f-2     :     0.000023
      f+3     :     0.000000
      f-3     :     0.000000


                     *******************************
                     * LOEWDIN POPULATION ANALYSIS *
                     *******************************

-------------------------------------------
LOEWDIN ATOMIC CHARGES AND SPIN POPULATIONS
-------------------------------------------
   0 Co:    0.502699    2.029884
   1 F :   -0.502699   -0.029884

----------------------------------------------------
LOEWDIN REDUCED ORBITAL CHARGES AND SPIN POPULATIONS
----------------------------------------------------
CHARGE
  0 Cos       :     6.680352  s :     6.680352
      pz      :     4.148001  p :    12.282166
      px      :     4.067082
      py      :     4.067082
      dz2     :     1.423490  d :     7.379122
      dxz     :     1.979602
      dyz     :     1.979602
      dx2y2   :     0.998214
      dxy     :     0.998214
      f0      :     0.062244  f :     0.147970
      f+1     :     0.042789
      f-1     :     0.042789
      f+2     :     0.000074
      f-2     :     0.000074
      f+3     :     0.000000
      f-3     :     0.000000
      g0      :     0.003583  g :     0.007692
      g+1     :     0.002024
      g-1     :     0.002024
      g+2     :     0.000030
      g-2     :     0.000030
      g+3     :     0.000000
      g-3     :     0.000000
      g+4     :     0.000000
      g-4     :     0.000000
  1 F s       :     3.729140  s :     3.729140
      pz      :     1.846425  p :     5.544501
      px      :     1.849038
      py      :     1.849038
      dz2     :     0.086872  d :     0.179995
      dxz     :     0.045433
      dyz     :     0.045433
      dx2y2   :     0.001128
      dxy     :     0.001128
      f0      :     0.019894  f :     0.049063
      f+1     :     0.014031
      f-1     :     0.014031
      f+2     :     0.000554
      f-2     :     0.000554
      f+3     :     0.000000
      f-3     :     0.000000

SPIN
  0 Cos       :    -0.486938  s :    -0.486938
      pz      :    -0.027840  p :    -0.047461
      px      :    -0.009810
      py      :    -0.009810
      dz2     :     0.546607  d :     2.562651
      dxz     :     0.009808
      dyz     :     0.009808
      dx2y2   :     0.998214
      dxy     :     0.998214
      f0      :     0.001301  f :     0.001226
      f+1     :    -0.000111
      f-1     :    -0.000111
      f+2     :     0.000074
      f-2     :     0.000074
      f+3     :    -0.000000
      f-3     :    -0.000000
      g0      :     0.000312  g :     0.000405
      g+1     :     0.000016
      g-1     :     0.000016
      g+2     :     0.000030
      g-2     :     0.000030
      g+3     :    -0.000000
      g-3     :    -0.000000
      g+4     :    -0.000000
      g-4     :    -0.000000
  1 F s       :    -0.020999  s :    -0.020999
      pz      :    -0.018389  p :    -0.015623
      px      :     0.001383
      py      :     0.001383
      dz2     :     0.003097  d :     0.003213
      dxz     :    -0.001070
      dyz     :    -0.001070
      dx2y2   :     0.001128
      dxy     :     0.001128
      f0      :     0.002850  f :     0.003525
      f+1     :    -0.000216
      f-1     :    -0.000216
      f+2     :     0.000554
      f-2     :     0.000554
      f+3     :     0.000000
      f-3     :     0.000000


                      *****************************
                      * MAYER POPULATION ANALYSIS *
                      *****************************

  NA   - Mulliken gross atomic population
  ZA   - Total nuclear charge
  QA   - Mulliken gross atomic charge
  VA   - Mayer's total valence
  BVA  - Mayer's bonded valence
  FA   - Mayer's free valence

  ATOM       NA         ZA         QA         VA         BVA        FA
  0 Co    26.3740    27.0000     0.6260     3.5678     0.6705     2.8973
  1 F      9.6260     9.0000    -0.6260     0.6740     0.6705     0.0035

  Mayer bond orders larger than 0.100000
B(  0-Co,  1-F ) :   0.6705 

-------
TIMINGS
-------

Total SCF time: 0 days 0 hours 7 min 14 sec 

Total time                  ....     434.772 sec
Sum of individual times     ....     434.352 sec  ( 99.9%)

Fock matrix formation       ....     433.878 sec  ( 99.8%)
  XC integration            ....       0.630 sec  (  0.1% of F)
    Basis function eval.    ....       0.142 sec  ( 22.6% of XC)
    Density eval.           ....       0.077 sec  ( 12.2% of XC)
    XC-Functional eval.     ....       0.034 sec  (  5.4% of XC)
    XC-Potential eval.      ....       0.190 sec  ( 30.2% of XC)
Diagonalization             ....       0.148 sec  (  0.0%)
Density matrix formation    ....       0.019 sec  (  0.0%)
Population analysis         ....       0.006 sec  (  0.0%)
Initial guess               ....       0.097 sec  (  0.0%)
Orbital Transformation      ....       0.000 sec  (  0.0%)
Orbital Orthonormalization  ....       0.000 sec  (  0.0%)
DIIS solution               ....       0.051 sec  (  0.0%)
Grid generation             ....       0.152 sec  (  0.0%)

-------------------------   --------------------
FINAL SINGLE POINT ENERGY     -1482.457481556519
-------------------------   --------------------


                            ***************************************
                            *     ORCA property calculations      *
                            ***************************************

                                    ---------------------
                                    Active property flags
                                    ---------------------
   (+) Dipole Moment


------------------------------------------------------------------------------
                       ORCA ELECTRIC PROPERTIES CALCULATION
------------------------------------------------------------------------------

Dipole Moment Calculation                       ... on
Quadrupole Moment Calculation                   ... off
Polarizability Calculation                      ... off
GBWName                                         ... 38_CoF.gbw
Electron density file                           ... 38_CoF.scfp
The origin for moment calculation is the CENTER OF MASS  = ( 0.000000,  0.000000  1.040872)

-------------
DIPOLE MOMENT
-------------
                                X             Y             Z
Electronic contribution:     -0.00000       0.00000      -2.34739
Nuclear contribution   :      0.00000       0.00000       0.74078
                        -----------------------------------------
Total Dipole Moment    :     -0.00000       0.00000      -1.60661
                        -----------------------------------------
Magnitude (a.u.)       :      1.60661
Magnitude (Debye)      :      4.08367



--------------------
Rotational spectrum 
--------------------
 
Rotational constants in cm-1:     0.000000     0.381744     0.381744 
Rotational constants in MHz :     0.000000 11444.406260 11444.406260 

 Dipole components along the rotational axes: 
x,y,z [a.u.] :    -1.606606     0.000000    -0.000000 
x,y,z [Debye]:    -4.083667     0.000000    -0.000000 

 

Timings for individual modules:

Sum of individual times         ...      438.825 sec (=   7.314 min)
GTO integral calculation        ...        3.237 sec (=   0.054 min)   0.7 %
SCF iterations                  ...      435.588 sec (=   7.260 min)  99.3 %
                             ****ORCA TERMINATED NORMALLY****
TOTAL RUN TIME: 0 days 0 hours 7 minutes 19 seconds 554 msec
