
                                 *****************
                                 * O   R   C   A *
                                 *****************

           --- An Ab Initio, DFT and Semiempirical electronic structure package ---

                  #######################################################
                  #                        -***-                        #
                  #          Department of theory and spectroscopy      #
                  #               Directorship: Frank Neese             #
                  #        Max Planck Institute fuer Kohlenforschung    #
                  #                Kaiser Wilhelm Platz 1               #
                  #                 D-45470 Muelheim/Ruhr               #
                  #                      Germany                        #
                  #                                                     #
                  #                  All rights reserved                #
                  #                        -***-                        #
                  #######################################################


                         Program Version 4.2.0 -  RELEASE  -


 With contributions from (in alphabetic order):
   Daniel Aravena         : Magnetic Suceptibility
   Michael Atanasov       : Ab Initio Ligand Field Theory (pilot matlab implementation)
   Alexander A. Auer      : GIAO ZORA, VPT2
   Ute Becker             : Parallelization
   Giovanni Bistoni       : ED, misc. LED, open-shell LED, HFLED
   Martin Brehm           : Molecular dynamics
   Dmytro Bykov           : SCF Hessian
   Vijay G. Chilkuri      : MRCI spin determinant printing, contributions to CSF-ICE
   Dipayan Datta          : RHF DLPNO-CCSD density
   Achintya Kumar Dutta   : EOM-CC, STEOM-CC
   Dmitry Ganyushin       : Spin-Orbit,Spin-Spin,Magnetic field MRCI
   Miquel Garcia          : C-PCM Hessian, Gaussian charge scheme
   Yang Guo               : DLPNO-NEVPT2, CIM, IAO-localization
   Andreas Hansen         : Spin unrestricted coupled pair/coupled cluster methods
   Benjamin Helmich-Paris : CASSCF linear response (MC-RPA)
   Lee Huntington         : MR-EOM, pCC
   Robert Izsak           : Overlap fitted RIJCOSX, COSX-SCS-MP3, EOM
   Christian Kollmar      : KDIIS, OOCD, Brueckner-CCSD(T), CCSD density
   Simone Kossmann        : Meta GGA functionals, TD-DFT gradient, OOMP2, MP2 Hessian
   Martin Krupicka        : AUTO-CI
   Lucas Lang             : DCDCAS
   Dagmar Lenk            : GEPOL surface, SMD
   Dimitrios Liakos       : Extrapolation schemes; Compound Job, initial MDCI parallelization
   Dimitrios Manganas     : Further ROCIS development; embedding schemes
   Dimitrios Pantazis     : SARC Basis sets
   Taras Petrenko         : DFT Hessian,TD-DFT gradient, ASA, ECA, R-Raman, ABS, FL, XAS/XES, NRVS
   Peter Pinski           : DLPNO-MP2, DLPNO-MP2 Gradient
   Christoph Reimann      : Effective Core Potentials
   Marius Retegan         : Local ZFS, SOC
   Christoph Riplinger    : Optimizer, TS searches, QM/MM, DLPNO-CCSD(T), (RO)-DLPNO pert. Triples
   Tobias Risthaus        : Range-separated hybrids, TD-DFT gradient, RPA, STAB
   Michael Roemelt        : Original ROCIS implementation
   Masaaki Saitow         : Open-shell DLPNO-CCSD energy and density
   Barbara Sandhoefer     : DKH picture change effects
   Avijit Sen             : IP-ROCIS
   Kantharuban Sivalingam : CASSCF convergence, NEVPT2, FIC-MRCI
   Bernardo de Souza      : ESD, SOC TD-DFT
   Georgi Stoychev        : AutoAux, RI-MP2 NMR
   Willem Van den Heuvel  : Paramagnetic NMR
   Boris Wezisla          : Elementary symmetry handling
   Frank Wennmohs         : Technical directorship


 We gratefully acknowledge several colleagues who have allowed us to
 interface, adapt or use parts of their codes:
   Stefan Grimme, W. Hujo, H. Kruse,             : VdW corrections, initial TS optimization,
                  C. Bannwarth                     DFT functionals, gCP, sTDA/sTD-DF
   Ed Valeev, F. Pavosevic, A. Kumar             : LibInt (2-el integral package), F12 methods
   Garnet Chan, S. Sharma, J. Yang, R. Olivares  : DMRG
   Ulf Ekstrom                                   : XCFun DFT Library
   Mihaly Kallay                                 : mrcc  (arbitrary order and MRCC methods)
   Andreas Klamt, Michael Diedenhofen            : otool_cosmo (COSMO solvation model)
   Jiri Pittner, Ondrej Demel                    : Mk-CCSD
   Frank Weinhold                                : gennbo (NPA and NBO analysis)
   Christopher J. Cramer and Donald G. Truhlar   : smd solvation model
   Lars Goerigk                                  : TD-DFT with DH, B97 family of functionals
   V. Asgeirsson, H. Jonsson                     : NEB implementation
   FAccTs GmbH                                   : IRC, NEB, NEB-TS, Multilevel, MM, QM/MM, CI optimization
   S Lehtola, MJT Oliveira, MAL Marques          : LibXC Library


 Your calculation uses the libint2 library for the computation of 2-el integrals
 For citations please refer to: http://libint.valeyev.net

 Your ORCA version has been built with support for libXC version: 4.2.3
 For citations please refer to: https://tddft.org/programs/libxc/

 This ORCA versions uses:
   CBLAS   interface :  Fast vector & matrix operations
   LAPACKE interface :  Fast linear algebra routines
   SCALAPACK package :  Parallel linear algebra routines


Your calculation utilizes the DFT-NL dispersion correction.
Cite in your paper:
Vydrov, O. A.; Van Voorhis, T. J. Chem. Phys. 2010, 133, 244103
Hujo, W.; Grimme, S. J. Chem. Theory Comput. 2011, 7, 3866 
   

----- Orbital basis set information -----
Your calculation utilizes the basis: aug-cc-pVTZ 
    H, B-Ne : Obtained from the ccRepo (grant-hill.group.shef.ac.uk/ccrepo) Feb. 2017
              R. A. Kendall, T. H. Dunning, Jr., R. J. Harrison, J. Chem. Phys. 96, 6796 (1992)
         He : Obtained from the ccRepo (grant-hill.group.shef.ac.uk/ccrepo) Feb. 2017
              D. E. Woon, T. H. Dunning, Jr., J. Chem. Phys. 100, 2975 (1994)
  Li-Be, Na : Obtained from the ccRepo (grant-hill.group.shef.ac.uk/ccrepo) Feb. 2017
              B. P. Prascher, D. E. Woon, K. A. Peterson, T. H. Dunning, Jr., A. K. Wilson, Theor. Chem. Acc. 128, 69 (2011)
         Mg : Obtained from the Peterson Research Group Website (tyr0.chem.wsu.edu/~kipeters) Feb. 2017
              B. P. Prascher, D. E. Woon, K. A. Peterson, T. H. Dunning, Jr., A. K. Wilson, Theor. Chem. Acc. 128, 69 (2011)
      Al-Ar : Obtained from the ccRepo (grant-hill.group.shef.ac.uk/ccrepo) Feb. 2017
              D. E. Woon, T. H. Dunning, Jr., J. Chem. Phys. 98, 1358 (1993)
      Sc-Zn : Obtained from the ccRepo (grant-hill.group.shef.ac.uk/ccrepo) Feb. 2017
              N. B. Balabanov, K. A. Peterson, J. Chem. Phys. 123, 064107 (2005)
              N. B. Balabanov, K. A. Peterson, J. Chem. Phys. 125, 074110 (2006)
      Ga-Kr : Obtained from the ccRepo (grant-hill.group.shef.ac.uk/ccrepo) Feb. 2017
              A. K. Wilson, D. E. Woon, K. A. Peterson, T. H. Dunning, Jr., J. Chem. Phys. 110, 7667 (1999)
     Ag, Au : Obtained from the Peterson Research Group Website (tyr0.chem.wsu.edu/~kipeters) Feb. 2017
              K. A. Peterson, C. Puzzarini, Theor. Chem. Acc. 114, 283 (2005)

----- AuxJK basis set information -----
Your calculation utilizes the auxiliary basis: def2/JK
   H-Ba, Hf-Rn: F. Weigend, J. Comput. Chem. 29, 167 (2008).

================================================================================
                                        WARNINGS
                       Please study these warnings very carefully!
================================================================================


WARNING: your system is open-shell and RHF/RKS was chosen
  ===> : WILL SWITCH to UHF/UKS


INFO   : the flag for use of LIBINT has been found!

================================================================================
                                       INPUT FILE
================================================================================
NAME = 39_CoCl.in
|  1> #
|  2> # 39_CoCl wb97x-v/aug-cc-pvtz
|  3> #
|  4> ! wb97x-v aug-cc-pvtz def2/jk grid4 nofinalgrid
|  5> 
|  6> *xyz 0 3
|  7>   Co  0.00000000000000      0.00000000000000     -0.04491550120186
|  8>   Cl  0.00000000000000      0.00000000000000      2.04491550120186
|  9> *
| 10> 
| 11> %pal
| 12> nprocs 24
| 13> end
| 14> 
| 15> 
| 16>                          ****END OF INPUT****
================================================================================

                       ****************************
                       * Single Point Calculation *
                       ****************************

---------------------------------
CARTESIAN COORDINATES (ANGSTROEM)
---------------------------------
  Co     0.000000    0.000000   -0.044916
  Cl     0.000000    0.000000    2.044916

----------------------------
CARTESIAN COORDINATES (A.U.)
----------------------------
  NO LB      ZA    FRAG     MASS         X           Y           Z
   0 Co   27.0000    0    58.930    0.000000    0.000000   -0.084878
   1 Cl   17.0000    0    35.453    0.000000    0.000000    3.864330

--------------------------------
INTERNAL COORDINATES (ANGSTROEM)
--------------------------------
 Co     0   0   0     0.000000000000     0.00000000     0.00000000
 Cl     1   0   0     2.089831002404     0.00000000     0.00000000

---------------------------
INTERNAL COORDINATES (A.U.)
---------------------------
 Co     0   0   0     0.000000000000     0.00000000     0.00000000
 Cl     1   0   0     3.949208260721     0.00000000     0.00000000

---------------------
BASIS SET INFORMATION
---------------------
There are 2 groups of distinct atoms

 Group   1 Type Co  : 116s77p23d3f2g contracted to 8s7p5d3f2g pattern {19191919191911/151515151511/77711/111/11}
 Group   2 Type Cl  : 42s17p3d2f contracted to 6s5p3d2f pattern {131313111/77111/111/11}

Atom   0Co   basis set group =>   1
Atom   1Cl   basis set group =>   2
----------------------------------
AUXILIARY/JK BASIS SET INFORMATION
----------------------------------
There are 2 groups of distinct atoms

 Group   1 Type Co  : 19s14p12d10f7g3h1i contracted to 16s13p11d9f5g3h1i pattern {4111111111111111/2111111111111/21111111111/211111111/31111/111/1}
 Group   2 Type Cl  : 16s12p10d4f1g contracted to 13s11p9d4f1g pattern {4111111111111/21111111111/211111111/1111/1}

Atom   0Co   basis set group =>   1
Atom   1Cl   basis set group =>   2


           ************************************************************
           *        Program running with 24 parallel MPI-processes    *
           *              working on a common directory               *
           ************************************************************
------------------------------------------------------------------------------
                           ORCA GTO INTEGRAL CALCULATION
------------------------------------------------------------------------------

                         BASIS SET STATISTICS AND STARTUP INFO

 # of primitive gaussian shells          ...  285
 # of primitive gaussian functions       ...  623
 # of contracted shells                  ...   41
 # of contracted basis functions         ...  143
 Highest angular momentum                ...    4
 Maximum contraction depth               ...   19
 Integral package used                   ... LIBINT
 Integral threshhold            Thresh   ...  1.000e-10
 Primitive cut-off              TCut     ...  1.000e-11


------------------------------ INTEGRAL EVALUATION ----------------------------


 * One electron integrals 
 Pre-screening matrix                    ... done
 Shell pair data                         ... done (   0.001 sec)



           ************************************************************
           *        Program running with 24 parallel MPI-processes    *
           *              working on a common directory               *
           ************************************************************
-------------------------------------------------------------------------------
                                 ORCA SCF
-------------------------------------------------------------------------------

------------
SCF SETTINGS
------------
Hamiltonian:
 Density Functional     Method          .... DFT(GTOs)
 Exchange Functional    Exchange        .... WB97X-V
 Correlation Functional Correlation     .... WB97X-V
 Gradients option       PostSCFGGA      .... off
 Hybrid DFT is turned on
   Fraction HF Exchange ScalHFX         ....  0.167000
   Scaling of DF-GGA-X  ScalDFX         ....  0.000000
   Scaling of DF-GGA-C  ScalDFC         ....  1.000000
   Scaling of DF-LDA-C  ScalLDAC        ....  1.000000
   Perturbative correction              ....  0.000000
   Density functional embedding theory  .... OFF
 Long-range corrected/Screened/Range-Separated Hybrid DFT is turned on
   Amount of maximum screened exact exchange              ....  0.833000
   Range separation parameter mu (erf(mu*r12)/r12)        ....  0.300000
   NL short-range parameter             ....  6.000000
   NL long-range parameter              ....  0.010000


General Settings:
 Integral files         IntName         .... 39_CoCl
 Hartree-Fock type      HFTyp           .... UHF
 Total Charge           Charge          ....    0
 Multiplicity           Mult            ....    3
 Number of Electrons    NEL             ....   44
 Basis Dimension        Dim             ....  143
 Nuclear Repulsion      ENuc            ....    116.2258279882 Eh

Convergence Acceleration:
 DIIS                   CNVDIIS         .... on
   Start iteration      DIISMaxIt       ....    12
   Startup error        DIISStart       ....  0.200000
   # of expansion vecs  DIISMaxEq       ....     5
   Bias factor          DIISBfac        ....   1.050
   Max. coefficient     DIISMaxC        ....  10.000
 Newton-Raphson         CNVNR           .... off
 SOSCF                  CNVSOSCF        .... off
 Level Shifting         CNVShift        .... on
   Level shift para.    LevelShift      ....    0.2500
   Turn off err/grad.   ShiftErr        ....    0.0010
 Zerner damping         CNVZerner       .... off
 Static damping         CNVDamp         .... on
   Fraction old density DampFac         ....    0.7000
   Max. Damping (<1)    DampMax         ....    0.9800
   Min. Damping (>=0)   DampMin         ....    0.0000
   Turn off err/grad.   DampErr         ....    0.1000
 Fernandez-Rico         CNVRico         .... off

SCF Procedure:
 Maximum # iterations   MaxIter         ....   125
 SCF integral mode      SCFMode         .... Direct
   Integral package                     .... LIBINT
 Reset frequency        DirectResetFreq ....    20
 Integral Threshold     Thresh          ....  1.000e-10 Eh
 Primitive CutOff       TCut            ....  1.000e-11 Eh

Convergence Tolerance:
 Convergence Check Mode ConvCheckMode   .... Total+1el-Energy
 Convergence forced     ConvForced      .... 0
 Energy Change          TolE            ....  1.000e-06 Eh
 1-El. energy change                    ....  1.000e-03 Eh
 DIIS Error             TolErr          ....  1.000e-06


Diagonalization of the overlap matrix:
Smallest eigenvalue                        ... 1.371e-04
Time for diagonalization                   ...    0.021 sec
Threshold for overlap eigenvalues          ... 1.000e-08
Number of eigenvalues below threshold      ... 0
Time for construction of square roots      ...    0.002 sec
Total time needed                          ...    0.023 sec

-------------------
DFT GRID GENERATION
-------------------

General Integration Accuracy     IntAcc      ...  4.670
Radial Grid Type                 RadialGrid  ... Gauss-Chebyshev
Angular Grid (max. acc.)         AngularGrid ... Lebedev-302
Angular grid pruning method      GridPruning ... 3 (G Style)
Weight generation scheme         WeightScheme... Becke
Basis function cutoff            BFCut       ...    1.0000e-10
Integration weight cutoff        WCut        ...    1.0000e-14
Grids for H and He will be reduced by one unit

# of grid points (after initial pruning)     ...  16378 (   0.0 sec)
# of grid points (after weights+screening)   ...  16349 (   0.0 sec)
nearest neighbour list constructed           ...    0.0 sec
Grid point re-assignment to atoms done       ...    0.0 sec
Grid point division into batches done        ...    0.1 sec
Reduced shell lists constructed in    0.1 sec

Total number of grid points                  ...    16349
Total number of batches                      ...      257
Average number of points per batch           ...       63
Average number of grid points per atom       ...     8174
Average number of shells per batch           ...    13.00 (31.71%)
Average number of basis functions per batch  ...    30.17 (21.10%)
Average number of large shells per batch     ...     6.83 (52.56%)
Average number of large basis fcns per batch ...    17.83 (59.12%)
Maximum spatial batch extension              ...  24.49, 24.19, 17.58 au
Average spatial batch extension              ...   0.85,  0.84,  0.65 au

Time for grid setup =    0.152 sec

------------------------------
INITIAL GUESS: MODEL POTENTIAL
------------------------------
Loading Hartree-Fock densities                     ... done
Calculating cut-offs                               ... done
Setting up the integral package                    ... done
Initializing the effective Hamiltonian             ... done
Starting the Coulomb interaction                   ... done (   0.0 sec)
Reading the grid                                   ... done
Mapping shells                                     ... done
Starting the XC term evaluation                    ... done (   0.0 sec)
  promolecular density results
     # of electrons  =     44.000019281
     EX              =    -64.711471046
     EC              =     -2.514191136
     EX+EC           =    -67.225662182
Transforming the Hamiltonian                       ... done (   0.0 sec)
Diagonalizing the Hamiltonian                      ... done (   0.0 sec)
Back transforming the eigenvectors                 ... done (   0.0 sec)
Now organizing SCF variables                       ... done
                      ------------------
                      INITIAL GUESS DONE (   0.3 sec)
                      ------------------
--------------
SCF ITERATIONS
--------------
ITER       Energy         Delta-E        Max-DP      RMS-DP      [F,P]     Damp
               ***  Starting incremental Fock matrix formation  ***
  0  -1837.7871952100   0.000000000000 0.44947637  0.01114159  2.2489084 0.7000
  1  -1840.5505745569  -2.763379346893 0.20628704  0.00436812  0.5686826 0.7000
  2  -1840.9915706480  -0.440996091033 0.13830705  0.00374874  0.5636264 0.7000
  3  -1841.6285379045  -0.636967256550 0.09604265  0.00236703  0.2472347 0.7000
                               ***Turning on DIIS***
  4  -1842.0099742879  -0.381436383442 0.06697860  0.00165279  0.1210578 0.7000
  5  -1842.2821384128  -0.272164124875 0.15802673  0.00422255  0.0909416 0.0000
  6  -1842.9599444422  -0.677806029380 0.06748757  0.00113184  0.0551449 0.0000
  7  -1842.9679478100  -0.008003367778 0.03462961  0.00068595  0.0666786 0.0000
  8  -1842.9720178562  -0.004070046243 0.00881948  0.00022548  0.0140611 0.0000
  9  -1842.9728195178  -0.000801661559 0.01034627  0.00013605  0.0042545 0.0000
 10  -1842.9733209087  -0.000501390894 0.01003349  0.00011078  0.0032798 0.0000
 11  -1842.9736870465  -0.000366137785 0.01130916  0.00012252  0.0020972 0.0000
 12  -1842.9740545793  -0.000367532819 0.01099269  0.00011088  0.0013996 0.0000
 13  -1842.9743502442  -0.000295664889 0.01509841  0.00014493  0.0008564 0.0000
 14  -1842.9746820215  -0.000331777373 0.00350533  0.00003178  0.0009557 0.0000
 15  -1842.9747459276  -0.000063906029 0.00690367  0.00005599  0.0003090 0.0000
 16  -1842.9748550446  -0.000109117074 0.00042006  0.00000364  0.0014803 0.0000
 17  -1842.9748481531   0.000006891542 0.00015816  0.00000140  0.0015659 0.0000
 18  -1842.9748458032   0.000002349917 0.00298392  0.00002577  0.0015407 0.0000
 19  -1842.9748972360  -0.000051432819 0.00030350  0.00000398  0.0013291 0.0000
               *** Restarting incremental Fock matrix formation ***
                                   *** Resetting DIIS ***
 20  -1842.9748957189   0.000001517127 0.00453735  0.00004240  0.0016324 0.0000
 21  -1842.9749736907  -0.000077971804 0.00391351  0.00003308  0.0015670 0.0000
 22  -1842.9750274579  -0.000053767250 0.00670897  0.00005284  0.0008013 0.0000
 23  -1842.9751123575  -0.000084899560 0.00366518  0.00002965  0.0018063 0.0000
 24  -1842.9750610518   0.000051305710 0.00159672  0.00001324  0.0023751 0.0000
 25  -1842.9750402779   0.000020773841 0.00299616  0.00002496  0.0022259 0.0000
 26  -1842.9750839438  -0.000043665815 0.00045572  0.00000476  0.0016230 0.0000
 27  -1842.9750892026  -0.000005258889 0.00936805  0.00007545  0.0018541 0.0000
 28  -1842.9752099917  -0.000120789032 0.00606068  0.00004868  0.0008219 0.0000
 29  -1842.9752713618  -0.000061370126 0.00250316  0.00001962  0.0018222 0.0000
 30  -1842.9752427216   0.000028640251 0.00026454  0.00000384  0.0021869 0.0000
 31  -1842.9752464628  -0.000003741233 0.00215884  0.00001707  0.0018814 0.0000
 32  -1842.9752711027  -0.000024639894 0.00186943  0.00001461  0.0015407 0.0000
 33  -1842.9752908457  -0.000019742991 0.00795143  0.00006187  0.0015036 0.0000
 34  -1842.9753710544  -0.000080208731 0.00641990  0.00004988  0.0007307 0.0000
 35  -1842.9754229728  -0.000051918428 0.00061650  0.00000475  0.0016973 0.0000
 36  -1842.9754284516  -0.000005478763 0.00067687  0.00000516  0.0015687 0.0000
 37  -1842.9754340923  -0.000005640712 0.00038470  0.00000297  0.0015230 0.0000
 38  -1842.9754370986  -0.000003006251 0.00032638  0.00000268  0.0015500 0.0000
 39  -1842.9754340979   0.000003000672 0.00428501  0.00003574  0.0016673 0.0000
               *** Restarting incremental Fock matrix formation ***
                                   *** Resetting DIIS ***
 40  -1842.9754711384  -0.000037040489 0.00375210  0.00003214  0.0011478 0.0000
 41  -1842.9754922325  -0.000021094164 0.00179174  0.00001705  0.0024001 0.0000
 42  -1842.9755074922  -0.000015259680 0.00168568  0.00001284  0.0012331 0.0000
 43  -1842.9755191122  -0.000011620018 0.00207741  0.00001552  0.0010299 0.0000
 44  -1842.9755325441  -0.000013431847 0.00657466  0.00004843  0.0008857 0.0000
 45  -1842.9755695552  -0.000037011165 0.00677287  0.00005092  0.0011648 0.0000
 46  -1842.9756040499  -0.000034494630 0.00426809  0.00003143  0.0006580 0.0000
 47  -1842.9756201817  -0.000016131810 0.01355699  0.00010015  0.0010689 0.0000
 48  -1842.9756598610  -0.000039679308 0.00119758  0.00001490  0.0015643 0.0000
 49  -1842.9756629365  -0.000003075498 0.01734164  0.00012431  0.0002713 0.0000
 50  -1842.9756799215  -0.000016985047 0.00682142  0.00004911  0.0003680 0.0000
 51  -1842.9756764686   0.000003452930 0.00018409  0.00000211  0.0001156 0.0000
 52  -1842.9756765719  -0.000000103266 0.00101470  0.00000736  0.0001916 0.0000
 53  -1842.9756775379  -0.000000966007 0.00069037  0.00000501  0.0001703 0.0000
 54  -1842.9756781001  -0.000000562222 0.00201217  0.00001451  0.0001452 0.0000
 55  -1842.9756793658  -0.000001265706 0.00340098  0.00002483  0.0000818 0.0000
 56  -1842.9756802987  -0.000000932888 0.00046173  0.00000334  0.0000158 0.0000
 57  -1842.9756802701   0.000000028594 0.00035714  0.00000261  0.0000185 0.0000
                 **** Energy Check signals convergence ****

               *****************************************************
               *                     SUCCESS                       *
               *           SCF CONVERGED AFTER  58 CYCLES          *
               *****************************************************


Setting up the DFT-NL grid :

General Integration Accuracy     IntAcc      ...  4.340
Radial Grid Type                 RadialGrid  ... Gauss-Chebyshev
Angular Grid (max. acc.)         AngularGrid ... Lebedev-110
Angular grid pruning method      GridPruning ... 3 (G Style)
Weight generation scheme         WeightScheme... Becke
Basis function cutoff            BFCut       ...    1.0000e-10
Integration weight cutoff        WCut        ...    1.0000e-14
Grids for H and He will be reduced by one unit

# of grid points (after initial pruning)     ...   4756 (   0.0 sec)
# of grid points (after weights+screening)   ...   4731 (   0.0 sec)
nearest neighbour list constructed           ...    0.0 sec
Grid point re-assignment to atoms done       ...    0.0 sec
Grid point division into batches done        ...    0.0 sec
Reduced shell lists constructed in    0.0 sec

Total number of grid points                  ...     4731
Total number of batches                      ...       75
Average number of points per batch           ...       63
Average number of grid points per atom       ...     2366
Average number of shells per batch           ...    22.00 (53.66%)
Average number of basis functions per batch  ...    66.80 (46.71%)
Average number of large shells per batch     ...    15.20 (69.09%)
Average number of large basis fcns per batch ...    39.20 (58.68%)
Maximum spatial batch extension              ...  18.98, 28.73, 16.15 au
Average spatial batch extension              ...   0.95,  1.29,  0.86 au

Final grid set up in    0.0 sec

-------------------------------------------------------------------------------
                         DFT-NL dispersion correction                          
-------------------------------------------------------------------------------

SC Energy -1842.975680297 
NL    Energy 0.184511288 
SC+NL Energy -1842.791169009 
NL done in    0.0 sec
-------------------------------------------------------------------------------

----------------
TOTAL SCF ENERGY
----------------

Total Energy       :        -1842.79116901 Eh          -50144.89703 eV

Components:
Nuclear Repulsion  :          116.22582799 Eh            3162.66557 eV
Electronic Energy  :        -1959.01699700 Eh          -53307.56259 eV
One Electron Energy:        -2783.84397627 Eh          -75752.24576 eV
Two Electron Energy:          824.82697927 Eh           22444.68317 eV

Virial components:
Potential Energy   :        -3682.76482272 Eh         -100213.12556 eV
Kinetic Energy     :         1839.97365371 Eh           50068.22854 eV
Virial Ratio       :            2.00153128


DFT components:
N(Alpha)           :       23.000002576114 electrons
N(Beta)            :       21.000003280960 electrons
N(Total)           :       44.000005857074 electrons
E(X)               :      -64.851821383123 Eh       
E(C)               :       -2.510715997806 Eh       
NL Energy, E(C,NL) :        0.184511287908 Eh       
E(XC)              :      -67.178026093021 Eh       
DFET-embed. en.    :        0.000000000000 Eh       

---------------
SCF CONVERGENCE
---------------

  Last Energy change         ...   -2.7105e-08  Tolerance :   1.0000e-06
  Last MAX-Density change    ...    2.1526e-04  Tolerance :   1.0000e-05
  Last RMS-Density change    ...    1.5779e-06  Tolerance :   1.0000e-06
  Last DIIS Error            ...    8.2083e-06  Tolerance :   1.0000e-06

             **** THE GBW FILE WAS UPDATED (39_CoCl.gbw) ****
             **** DENSITY FILE WAS UPDATED (39_CoCl.scfp) ****
             **** ENERGY FILE WAS UPDATED (39_CoCl.en.tmp) ****
----------------------
UHF SPIN CONTAMINATION
----------------------

Warning: in a DFT calculation there is little theoretical justification to 
         calculate <S**2> as in Hartree-Fock theory. We will do it anyways
         but you should keep in mind that the values have only limited relevance

Expectation value of <S**2>     :     2.221657
Ideal value S*(S+1) for S=1.0   :     2.000000
Deviation                       :     0.221657

             **** THE GBW FILE WAS UPDATED (39_CoCl.gbw) ****
             **** DENSITY FILE WAS UPDATED (39_CoCl.scfp) ****
----------------
ORBITAL ENERGIES
----------------
                 SPIN UP ORBITALS
  NO   OCC          E(Eh)            E(eV) 
   0   1.0000    -277.442349     -7549.5901 
   1   1.0000    -101.500410     -2761.9666 
   2   1.0000     -32.941326      -896.3790 
   3   1.0000     -28.591843      -778.0236 
   4   1.0000     -28.591843      -778.0236 
   5   1.0000     -28.536350      -776.5136 
   6   1.0000      -9.515923      -258.9414 
   7   1.0000      -7.268381      -197.7827 
   8   1.0000      -7.264605      -197.6800 
   9   1.0000      -7.264605      -197.6800 
  10   1.0000      -3.934592      -107.0657 
  11   1.0000      -2.653349       -72.2013 
  12   1.0000      -2.653349       -72.2013 
  13   1.0000      -2.549880       -69.3858 
  14   1.0000      -0.891596       -24.2616 
  15   1.0000      -0.516142       -14.0449 
  16   1.0000      -0.516141       -14.0449 
  17   1.0000      -0.480892       -13.0857 
  18   1.0000      -0.461147       -12.5484 
  19   1.0000      -0.461147       -12.5484 
  20   1.0000      -0.384713       -10.4686 
  21   1.0000      -0.375908       -10.2290 
  22   1.0000      -0.375908       -10.2290 
  23   0.0000      -0.045980        -1.2512 
  24   0.0000       0.025019         0.6808 
  25   0.0000       0.025019         0.6808 
  26   0.0000       0.030319         0.8250 
  27   0.0000       0.038141         1.0379 
  28   0.0000       0.071516         1.9460 
  29   0.0000       0.071516         1.9460 
  30   0.0000       0.104965         2.8562 
  31   0.0000       0.107739         2.9317 
  32   0.0000       0.107739         2.9317 
  33   0.0000       0.118647         3.2285 
  34   0.0000       0.125466         3.4141 
  35   0.0000       0.125466         3.4141 
  36   0.0000       0.163937         4.4609 
  37   0.0000       0.169006         4.5989 
  38   0.0000       0.169006         4.5989 
  39   0.0000       0.179530         4.8852 
  40   0.0000       0.254591         6.9278 
  41   0.0000       0.254591         6.9278 
  42   0.0000       0.313836         8.5399 
  43   0.0000       0.325125         8.8471 
  44   0.0000       0.337025         9.1709 
  45   0.0000       0.337025         9.1709 
  46   0.0000       0.379624        10.3301 
  47   0.0000       0.379624        10.3301 
  48   0.0000       0.393188        10.6992 
  49   0.0000       0.393188        10.6992 
  50   0.0000       0.440364        11.9829 
  51   0.0000       0.480119        13.0647 
  52   0.0000       0.480119        13.0647 
  53   0.0000       0.534365        14.5408 
  54   0.0000       0.629145        17.1199 
  55   0.0000       0.677086        18.4245 
  56   0.0000       0.677086        18.4245 
  57   0.0000       0.826624        22.4936 
  58   0.0000       0.860019        23.4023 
  59   0.0000       0.860019        23.4023 
  60   0.0000       0.870975        23.7004 
  61   0.0000       0.870975        23.7004 
  62   0.0000       0.910345        24.7717 
  63   0.0000       0.922842        25.1118 
  64   0.0000       0.922842        25.1118 
  65   0.0000       1.020022        27.7562 
  66   0.0000       1.020023        27.7562 
  67   0.0000       1.042526        28.3686 
  68   0.0000       1.042526        28.3686 
  69   0.0000       1.060921        28.8691 
  70   0.0000       1.175531        31.9878 
  71   0.0000       1.175531        31.9878 
  72   0.0000       1.221315        33.2337 
  73   0.0000       1.221315        33.2337 
  74   0.0000       1.261244        34.3202 
  75   0.0000       1.300740        35.3949 
  76   0.0000       1.300749        35.3952 
  77   0.0000       1.309544        35.6345 
  78   0.0000       1.320926        35.9442 
  79   0.0000       1.320926        35.9442 
  80   0.0000       1.408716        38.3331 
  81   0.0000       1.408719        38.3332 
  82   0.0000       1.607928        43.7539 
  83   0.0000       1.790605        48.7248 
  84   0.0000       1.790605        48.7248 
  85   0.0000       2.106223        57.3133 
  86   0.0000       2.357372        64.1473 
  87   0.0000       2.357424        64.1488 
  88   0.0000       2.475831        67.3708 
  89   0.0000       2.475831        67.3708 
  90   0.0000       2.536264        69.0153 
  91   0.0000       2.553676        69.4891 
  92   0.0000       2.553676        69.4891 
  93   0.0000       2.878591        78.3304 
  94   0.0000       2.878591        78.3304 
  95   0.0000       2.919405        79.4410 
  96   0.0000       2.919410        79.4412 
  97   0.0000       2.956589        80.4529 
  98   0.0000       2.957734        80.4840 
  99   0.0000       2.957734        80.4840 
 100   0.0000       3.048580        82.9561 
 101   0.0000       3.183807        86.6358 
 102   0.0000       3.183807        86.6358 
 103   0.0000       3.276925        89.1697 
 104   0.0000       3.276926        89.1697 
 105   0.0000       3.311757        90.1175 
 106   0.0000       3.382523        92.0431 
 107   0.0000       3.382523        92.0431 
 108   0.0000       3.442691        93.6804 
 109   0.0000       3.442692        93.6804 
 110   0.0000       3.567408        97.0741 
 111   0.0000       3.898052       106.0714 
 112   0.0000       4.077472       110.9537 
 113   0.0000       4.077487       110.9541 
 114   0.0000       4.100812       111.5888 
 115   0.0000       4.100812       111.5888 
 116   0.0000       4.153522       113.0231 
 117   0.0000       4.153538       113.0235 
 118   0.0000       4.337312       118.0242 
 119   0.0000       4.337312       118.0242 
 120   0.0000       4.492915       122.2584 
 121   0.0000       5.138468       139.8248 
 122   0.0000       5.138470       139.8249 
 123   0.0000       5.420730       147.5056 
 124   0.0000       5.420730       147.5056 
 125   0.0000       6.080032       165.4461 
 126   0.0000       6.580051       179.0523 
 127   0.0000      10.387095       282.6472 
 128   0.0000      10.387095       282.6472 
 129   0.0000      10.493490       285.5424 
 130   0.0000      10.493599       285.5453 
 131   0.0000      10.576459       287.8001 
 132   0.0000      10.576459       287.8001 
 133   0.0000      10.623429       289.0782 
 134   0.0000      11.470728       312.1344 
 135   0.0000      11.470865       312.1381 
 136   0.0000      11.527455       313.6780 
 137   0.0000      11.527455       313.6780 
 138   0.0000      11.573331       314.9263 
 139   0.0000      11.573382       314.9277 
 140   0.0000      11.666063       317.4497 
 141   0.0000      11.666063       317.4497 
 142   0.0000      11.789970       320.8214 

                 SPIN DOWN ORBITALS
  NO   OCC          E(Eh)            E(eV) 
   0   1.0000    -277.442169     -7549.5852 
   1   1.0000    -101.500460     -2761.9679 
   2   1.0000     -32.892848      -895.0599 
   3   1.0000     -28.543686      -776.7132 
   4   1.0000     -28.543686      -776.7132 
   5   1.0000     -28.515565      -775.9480 
   6   1.0000      -9.515976      -258.9429 
   7   1.0000      -7.268553      -197.7874 
   8   1.0000      -7.264630      -197.6806 
   9   1.0000      -7.264630      -197.6806 
  10   1.0000      -3.823927      -104.0544 
  11   1.0000      -2.503490       -68.1234 
  12   1.0000      -2.503490       -68.1234 
  13   1.0000      -2.491742       -67.8038 
  14   1.0000      -0.891306       -24.2537 
  15   1.0000      -0.446632       -12.1535 
  16   1.0000      -0.428565       -11.6619 
  17   1.0000      -0.428565       -11.6619 
  18   1.0000      -0.353887        -9.6298 
  19   1.0000      -0.353887        -9.6298 
  20   1.0000      -0.312525        -8.5042 
  21   0.0000      -0.023578        -0.6416 
  22   0.0000      -0.014801        -0.4027 
  23   0.0000      -0.014800        -0.4027 
  24   0.0000       0.020750         0.5646 
  25   0.0000       0.020750         0.5646 
  26   0.0000       0.029848         0.8122 
  27   0.0000       0.036810         1.0016 
  28   0.0000       0.069374         1.8878 
  29   0.0000       0.069374         1.8878 
  30   0.0000       0.103689         2.8215 
  31   0.0000       0.108039         2.9399 
  32   0.0000       0.108039         2.9399 
  33   0.0000       0.120233         3.2717 
  34   0.0000       0.121834         3.3153 
  35   0.0000       0.121834         3.3153 
  36   0.0000       0.162350         4.4178 
  37   0.0000       0.168341         4.5808 
  38   0.0000       0.168341         4.5808 
  39   0.0000       0.180043         4.8992 
  40   0.0000       0.255710         6.9582 
  41   0.0000       0.255710         6.9582 
  42   0.0000       0.319128         8.6839 
  43   0.0000       0.326075         8.8730 
  44   0.0000       0.345703         9.4071 
  45   0.0000       0.345703         9.4071 
  46   0.0000       0.385434        10.4882 
  47   0.0000       0.385434        10.4882 
  48   0.0000       0.404807        11.0154 
  49   0.0000       0.404808        11.0154 
  50   0.0000       0.446401        12.1472 
  51   0.0000       0.481234        13.0950 
  52   0.0000       0.481234        13.0950 
  53   0.0000       0.535814        14.5802 
  54   0.0000       0.639616        17.4048 
  55   0.0000       0.677946        18.4478 
  56   0.0000       0.677946        18.4478 
  57   0.0000       0.831474        22.6255 
  58   0.0000       0.865566        23.5532 
  59   0.0000       0.865566        23.5532 
  60   0.0000       0.871328        23.7101 
  61   0.0000       0.871329        23.7101 
  62   0.0000       0.910547        24.7772 
  63   0.0000       0.937105        25.4999 
  64   0.0000       0.937105        25.4999 
  65   0.0000       1.021907        27.8075 
  66   0.0000       1.021908        27.8075 
  67   0.0000       1.049289        28.5526 
  68   0.0000       1.049289        28.5526 
  69   0.0000       1.072047        29.1719 
  70   0.0000       1.179013        32.0826 
  71   0.0000       1.179013        32.0826 
  72   0.0000       1.228567        33.4310 
  73   0.0000       1.228567        33.4310 
  74   0.0000       1.262696        34.3597 
  75   0.0000       1.323301        36.0089 
  76   0.0000       1.328960        36.1628 
  77   0.0000       1.328960        36.1628 
  78   0.0000       1.334914        36.3249 
  79   0.0000       1.334918        36.3250 
  80   0.0000       1.427485        38.8438 
  81   0.0000       1.427485        38.8439 
  82   0.0000       1.616429        43.9853 
  83   0.0000       1.798296        48.9341 
  84   0.0000       1.798296        48.9341 
  85   0.0000       2.114233        57.5312 
  86   0.0000       2.357598        64.1535 
  87   0.0000       2.357651        64.1549 
  88   0.0000       2.476325        67.3842 
  89   0.0000       2.476325        67.3842 
  90   0.0000       2.537342        69.0446 
  91   0.0000       2.555574        69.5407 
  92   0.0000       2.555574        69.5407 
  93   0.0000       2.879265        78.3488 
  94   0.0000       2.879265        78.3488 
  95   0.0000       2.919861        79.4535 
  96   0.0000       2.919866        79.4536 
  97   0.0000       2.958113        80.4943 
  98   0.0000       2.958113        80.4943 
  99   0.0000       2.961083        80.5752 
 100   0.0000       3.065827        83.4254 
 101   0.0000       3.265129        88.8487 
 102   0.0000       3.265129        88.8487 
 103   0.0000       3.313638        90.1687 
 104   0.0000       3.313643        90.1688 
 105   0.0000       3.360173        91.4350 
 106   0.0000       3.427075        93.2555 
 107   0.0000       3.427075        93.2555 
 108   0.0000       3.503024        95.3221 
 109   0.0000       3.503025        95.3222 
 110   0.0000       3.601363        97.9981 
 111   0.0000       3.935467       107.0895 
 112   0.0000       4.121735       112.1581 
 113   0.0000       4.121750       112.1585 
 114   0.0000       4.122732       112.1852 
 115   0.0000       4.122732       112.1852 
 116   0.0000       4.173584       113.5690 
 117   0.0000       4.173596       113.5693 
 118   0.0000       4.358684       118.6058 
 119   0.0000       4.358684       118.6058 
 120   0.0000       4.530740       123.2877 
 121   0.0000       5.249009       142.8328 
 122   0.0000       5.249010       142.8328 
 123   0.0000       5.465242       148.7168 
 124   0.0000       5.465242       148.7168 
 125   0.0000       6.089178       165.6949 
 126   0.0000       6.622381       180.2042 
 127   0.0000      10.544116       286.9200 
 128   0.0000      10.544116       286.9200 
 129   0.0000      10.571409       287.6627 
 130   0.0000      10.571514       287.6655 
 131   0.0000      10.655354       289.9469 
 132   0.0000      10.655354       289.9469 
 133   0.0000      10.706071       291.3270 
 134   0.0000      11.584371       315.2268 
 135   0.0000      11.584502       315.2303 
 136   0.0000      11.590782       315.4012 
 137   0.0000      11.590782       315.4012 
 138   0.0000      11.628608       316.4305 
 139   0.0000      11.628657       316.4318 
 140   0.0000      11.722107       318.9748 
 141   0.0000      11.722107       318.9748 
 142   0.0000      11.848876       322.4243 

                    ********************************
                    * MULLIKEN POPULATION ANALYSIS *
                    ********************************

--------------------------------------------
MULLIKEN ATOMIC CHARGES AND SPIN POPULATIONS
--------------------------------------------
   0 Co:    0.508239    2.003518
   1 Cl:   -0.508239   -0.003518
Sum of atomic charges         :   -0.0000000
Sum of atomic spin populations:    2.0000000

-----------------------------------------------------
MULLIKEN REDUCED ORBITAL CHARGES AND SPIN POPULATIONS
-----------------------------------------------------
CHARGE
  0 Cos       :     6.687316  s :     6.687316
      pz      :     4.097726  p :    12.208984
      px      :     4.055629
      py      :     4.055629
      dz2     :     1.595854  d :     7.583560
      dxz     :     1.994147
      dyz     :     1.994147
      dx2y2   :     0.999705
      dxy     :     0.999705
      f0      :     0.003788  f :     0.011575
      f+1     :     0.003871
      f-1     :     0.003871
      f+2     :     0.000022
      f-2     :     0.000022
      f+3     :     0.000000
      f-3     :     0.000000
      g0      :     0.000098  g :     0.000326
      g+1     :     0.000094
      g-1     :     0.000094
      g+2     :     0.000020
      g-2     :     0.000020
      g+3     :     0.000000
      g-3     :     0.000000
      g+4     :     0.000000
      g-4     :     0.000000
  1 Cls       :     5.972316  s :     5.972316
      pz      :     3.636887  p :    11.510228
      px      :     3.936670
      py      :     3.936670
      dz2     :     0.006351  d :     0.023519
      dxz     :     0.008448
      dyz     :     0.008448
      dx2y2   :     0.000136
      dxy     :     0.000136
      f0      :    -0.000335  f :     0.002177
      f+1     :     0.001139
      f-1     :     0.001139
      f+2     :     0.000116
      f-2     :     0.000116
      f+3     :     0.000000
      f-3     :     0.000000

SPIN
  0 Cos       :    -0.301200  s :    -0.301200
      pz      :    -0.017438  p :    -0.025425
      px      :    -0.003993
      py      :    -0.003993
      dz2     :     0.320504  d :     2.330253
      dxz     :     0.005169
      dyz     :     0.005169
      dx2y2   :     0.999705
      dxy     :     0.999705
      f0      :    -0.000302  f :    -0.000191
      f+1     :     0.000033
      f-1     :     0.000033
      f+2     :     0.000022
      f-2     :     0.000022
      f+3     :    -0.000000
      f-3     :    -0.000000
      g0      :     0.000020  g :     0.000081
      g+1     :     0.000011
      g-1     :     0.000011
      g+2     :     0.000020
      g-2     :     0.000020
      g+3     :     0.000000
      g-3     :     0.000000
      g+4     :     0.000000
      g-4     :     0.000000
  1 Cls       :    -0.010066  s :    -0.010066
      pz      :     0.009532  p :     0.009018
      px      :    -0.000257
      py      :    -0.000257
      dz2     :    -0.000827  d :    -0.002074
      dxz     :    -0.000760
      dyz     :    -0.000760
      dx2y2   :     0.000136
      dxy     :     0.000136
      f0      :    -0.000221  f :    -0.000396
      f+1     :    -0.000204
      f-1     :    -0.000204
      f+2     :     0.000116
      f-2     :     0.000116
      f+3     :    -0.000000
      f-3     :    -0.000000


                     *******************************
                     * LOEWDIN POPULATION ANALYSIS *
                     *******************************

-------------------------------------------
LOEWDIN ATOMIC CHARGES AND SPIN POPULATIONS
-------------------------------------------
   0 Co:    0.127409    2.039199
   1 Cl:   -0.127409   -0.039199

----------------------------------------------------
LOEWDIN REDUCED ORBITAL CHARGES AND SPIN POPULATIONS
----------------------------------------------------
CHARGE
  0 Cos       :     6.601189  s :     6.601189
      pz      :     4.229768  p :    12.423531
      px      :     4.096882
      py      :     4.096882
      dz2     :     1.707364  d :     7.742699
      dxz     :     2.020178
      dyz     :     2.020178
      dx2y2   :     0.997489
      dxy     :     0.997489
      f0      :     0.040409  f :     0.102725
      f+1     :     0.031092
      f-1     :     0.031092
      f+2     :     0.000066
      f-2     :     0.000066
      f+3     :     0.000000
      f-3     :     0.000000
      g0      :     0.001096  g :     0.002447
      g+1     :     0.000652
      g-1     :     0.000652
      g+2     :     0.000024
      g-2     :     0.000024
      g+3     :     0.000000
      g-3     :     0.000000
      g+4     :     0.000000
      g-4     :     0.000000
  1 Cls       :     5.613657  s :     5.613657
      pz      :     3.656254  p :    11.217156
      px      :     3.780451
      py      :     3.780451
      dz2     :     0.102787  d :     0.183454
      dxz     :     0.039386
      dyz     :     0.039386
      dx2y2   :     0.000948
      dxy     :     0.000948
      f0      :     0.047477  f :     0.113141
      f+1     :     0.031359
      f-1     :     0.031359
      f+2     :     0.001473
      f-2     :     0.001473
      f+3     :     0.000000
      f-3     :     0.000000

SPIN
  0 Cos       :    -0.264974  s :    -0.264974
      pz      :    -0.006221  p :    -0.017925
      px      :    -0.005852
      py      :    -0.005852
      dz2     :     0.309498  d :     2.321819
      dxz     :     0.008671
      dyz     :     0.008671
      dx2y2   :     0.997489
      dxy     :     0.997489
      f0      :     0.000024  f :     0.000132
      f+1     :    -0.000012
      f-1     :    -0.000012
      f+2     :     0.000066
      f-2     :     0.000066
      f+3     :    -0.000000
      f-3     :    -0.000000
      g0      :     0.000058  g :     0.000147
      g+1     :     0.000021
      g-1     :     0.000021
      g+2     :     0.000024
      g-2     :     0.000024
      g+3     :     0.000000
      g-3     :     0.000000
      g+4     :     0.000000
      g-4     :     0.000000
  1 Cls       :    -0.014594  s :    -0.014594
      pz      :    -0.025045  p :    -0.025293
      px      :    -0.000124
      py      :    -0.000124
      dz2     :    -0.000561  d :    -0.002564
      dxz     :    -0.001949
      dyz     :    -0.001949
      dx2y2   :     0.000948
      dxy     :     0.000948
      f0      :     0.001816  f :     0.003252
      f+1     :    -0.000755
      f-1     :    -0.000755
      f+2     :     0.001473
      f-2     :     0.001473
      f+3     :    -0.000000
      f-3     :    -0.000000


                      *****************************
                      * MAYER POPULATION ANALYSIS *
                      *****************************

  NA   - Mulliken gross atomic population
  ZA   - Total nuclear charge
  QA   - Mulliken gross atomic charge
  VA   - Mayer's total valence
  BVA  - Mayer's bonded valence
  FA   - Mayer's free valence

  ATOM       NA         ZA         QA         VA         BVA        FA
  0 Co    26.4918    27.0000     0.5082     3.3984     1.0095     2.3889
  1 Cl    17.5082    17.0000    -0.5082     1.0118     1.0095     0.0023

  Mayer bond orders larger than 0.100000
B(  0-Co,  1-Cl) :   1.0095 

-------
TIMINGS
-------

Total SCF time: 0 days 0 hours 15 min 34 sec 

Total time                  ....     934.089 sec
Sum of individual times     ....     933.641 sec  (100.0%)

Fock matrix formation       ....     932.907 sec  ( 99.9%)
  XC integration            ....       1.336 sec  (  0.1% of F)
    Basis function eval.    ....       0.292 sec  ( 21.9% of XC)
    Density eval.           ....       0.162 sec  ( 12.1% of XC)
    XC-Functional eval.     ....       0.068 sec  (  5.1% of XC)
    XC-Potential eval.      ....       0.359 sec  ( 26.9% of XC)
Diagonalization             ....       0.310 sec  (  0.0%)
Density matrix formation    ....       0.038 sec  (  0.0%)
Population analysis         ....       0.006 sec  (  0.0%)
Initial guess               ....       0.102 sec  (  0.0%)
Orbital Transformation      ....       0.000 sec  (  0.0%)
Orbital Orthonormalization  ....       0.000 sec  (  0.0%)
DIIS solution               ....       0.109 sec  (  0.0%)
Grid generation             ....       0.167 sec  (  0.0%)

-------------------------   --------------------
FINAL SINGLE POINT ENERGY     -1842.791169009304
-------------------------   --------------------


                            ***************************************
                            *     ORCA property calculations      *
                            ***************************************

                                    ---------------------
                                    Active property flags
                                    ---------------------
   (+) Dipole Moment


------------------------------------------------------------------------------
                       ORCA ELECTRIC PROPERTIES CALCULATION
------------------------------------------------------------------------------

Dipole Moment Calculation                       ... on
Quadrupole Moment Calculation                   ... off
Polarizability Calculation                      ... off
GBWName                                         ... 39_CoCl.gbw
Electron density file                           ... 39_CoCl.scfp
The origin for moment calculation is the CENTER OF MASS  = ( 0.000000,  0.000000  1.398559)

-------------
DIPOLE MOMENT
-------------
                                X             Y             Z
Electronic contribution:     -0.00000      -0.00000      -3.76972
Nuclear contribution   :      0.00000       0.00000       1.86529
                        -----------------------------------------
Total Dipole Moment    :     -0.00000      -0.00000      -1.90443
                        -----------------------------------------
Magnitude (a.u.)       :      1.90443
Magnitude (Debye)      :      4.84068



--------------------
Rotational spectrum 
--------------------
 
Rotational constants in cm-1:     0.000000     0.174373     0.174373 
Rotational constants in MHz :     0.000000  5227.567081  5227.567081 

 Dipole components along the rotational axes: 
x,y,z [a.u.] :    -1.904433    -0.000000    -0.000000 
x,y,z [Debye]:    -4.840684    -0.000000    -0.000000 

 

Timings for individual modules:

Sum of individual times         ...      938.434 sec (=  15.641 min)
GTO integral calculation        ...        3.581 sec (=   0.060 min)   0.4 %
SCF iterations                  ...      934.853 sec (=  15.581 min)  99.6 %
                             ****ORCA TERMINATED NORMALLY****
TOTAL RUN TIME: 0 days 0 hours 15 minutes 39 seconds 207 msec
