
                                 *****************
                                 * O   R   C   A *
                                 *****************

           --- An Ab Initio, DFT and Semiempirical electronic structure package ---

                  #######################################################
                  #                        -***-                        #
                  #          Department of theory and spectroscopy      #
                  #               Directorship: Frank Neese             #
                  #        Max Planck Institute fuer Kohlenforschung    #
                  #                Kaiser Wilhelm Platz 1               #
                  #                 D-45470 Muelheim/Ruhr               #
                  #                      Germany                        #
                  #                                                     #
                  #                  All rights reserved                #
                  #                        -***-                        #
                  #######################################################


                         Program Version 4.2.0 -  RELEASE  -


 With contributions from (in alphabetic order):
   Daniel Aravena         : Magnetic Suceptibility
   Michael Atanasov       : Ab Initio Ligand Field Theory (pilot matlab implementation)
   Alexander A. Auer      : GIAO ZORA, VPT2
   Ute Becker             : Parallelization
   Giovanni Bistoni       : ED, misc. LED, open-shell LED, HFLED
   Martin Brehm           : Molecular dynamics
   Dmytro Bykov           : SCF Hessian
   Vijay G. Chilkuri      : MRCI spin determinant printing, contributions to CSF-ICE
   Dipayan Datta          : RHF DLPNO-CCSD density
   Achintya Kumar Dutta   : EOM-CC, STEOM-CC
   Dmitry Ganyushin       : Spin-Orbit,Spin-Spin,Magnetic field MRCI
   Miquel Garcia          : C-PCM Hessian, Gaussian charge scheme
   Yang Guo               : DLPNO-NEVPT2, CIM, IAO-localization
   Andreas Hansen         : Spin unrestricted coupled pair/coupled cluster methods
   Benjamin Helmich-Paris : CASSCF linear response (MC-RPA)
   Lee Huntington         : MR-EOM, pCC
   Robert Izsak           : Overlap fitted RIJCOSX, COSX-SCS-MP3, EOM
   Christian Kollmar      : KDIIS, OOCD, Brueckner-CCSD(T), CCSD density
   Simone Kossmann        : Meta GGA functionals, TD-DFT gradient, OOMP2, MP2 Hessian
   Martin Krupicka        : AUTO-CI
   Lucas Lang             : DCDCAS
   Dagmar Lenk            : GEPOL surface, SMD
   Dimitrios Liakos       : Extrapolation schemes; Compound Job, initial MDCI parallelization
   Dimitrios Manganas     : Further ROCIS development; embedding schemes
   Dimitrios Pantazis     : SARC Basis sets
   Taras Petrenko         : DFT Hessian,TD-DFT gradient, ASA, ECA, R-Raman, ABS, FL, XAS/XES, NRVS
   Peter Pinski           : DLPNO-MP2, DLPNO-MP2 Gradient
   Christoph Reimann      : Effective Core Potentials
   Marius Retegan         : Local ZFS, SOC
   Christoph Riplinger    : Optimizer, TS searches, QM/MM, DLPNO-CCSD(T), (RO)-DLPNO pert. Triples
   Tobias Risthaus        : Range-separated hybrids, TD-DFT gradient, RPA, STAB
   Michael Roemelt        : Original ROCIS implementation
   Masaaki Saitow         : Open-shell DLPNO-CCSD energy and density
   Barbara Sandhoefer     : DKH picture change effects
   Avijit Sen             : IP-ROCIS
   Kantharuban Sivalingam : CASSCF convergence, NEVPT2, FIC-MRCI
   Bernardo de Souza      : ESD, SOC TD-DFT
   Georgi Stoychev        : AutoAux, RI-MP2 NMR
   Willem Van den Heuvel  : Paramagnetic NMR
   Boris Wezisla          : Elementary symmetry handling
   Frank Wennmohs         : Technical directorship


 We gratefully acknowledge several colleagues who have allowed us to
 interface, adapt or use parts of their codes:
   Stefan Grimme, W. Hujo, H. Kruse,             : VdW corrections, initial TS optimization,
                  C. Bannwarth                     DFT functionals, gCP, sTDA/sTD-DF
   Ed Valeev, F. Pavosevic, A. Kumar             : LibInt (2-el integral package), F12 methods
   Garnet Chan, S. Sharma, J. Yang, R. Olivares  : DMRG
   Ulf Ekstrom                                   : XCFun DFT Library
   Mihaly Kallay                                 : mrcc  (arbitrary order and MRCC methods)
   Andreas Klamt, Michael Diedenhofen            : otool_cosmo (COSMO solvation model)
   Jiri Pittner, Ondrej Demel                    : Mk-CCSD
   Frank Weinhold                                : gennbo (NPA and NBO analysis)
   Christopher J. Cramer and Donald G. Truhlar   : smd solvation model
   Lars Goerigk                                  : TD-DFT with DH, B97 family of functionals
   V. Asgeirsson, H. Jonsson                     : NEB implementation
   FAccTs GmbH                                   : IRC, NEB, NEB-TS, Multilevel, MM, QM/MM, CI optimization
   S Lehtola, MJT Oliveira, MAL Marques          : LibXC Library


 Your calculation uses the libint2 library for the computation of 2-el integrals
 For citations please refer to: http://libint.valeyev.net

 Your ORCA version has been built with support for libXC version: 4.2.3
 For citations please refer to: https://tddft.org/programs/libxc/

 This ORCA versions uses:
   CBLAS   interface :  Fast vector & matrix operations
   LAPACKE interface :  Fast linear algebra routines
   SCALAPACK package :  Parallel linear algebra routines


Your calculation utilizes the DFT-NL dispersion correction.
Cite in your paper:
Vydrov, O. A.; Van Voorhis, T. J. Chem. Phys. 2010, 133, 244103
Hujo, W.; Grimme, S. J. Chem. Theory Comput. 2011, 7, 3866 
   

----- Orbital basis set information -----
Your calculation utilizes the basis: aug-cc-pVTZ 
    H, B-Ne : Obtained from the ccRepo (grant-hill.group.shef.ac.uk/ccrepo) Feb. 2017
              R. A. Kendall, T. H. Dunning, Jr., R. J. Harrison, J. Chem. Phys. 96, 6796 (1992)
         He : Obtained from the ccRepo (grant-hill.group.shef.ac.uk/ccrepo) Feb. 2017
              D. E. Woon, T. H. Dunning, Jr., J. Chem. Phys. 100, 2975 (1994)
  Li-Be, Na : Obtained from the ccRepo (grant-hill.group.shef.ac.uk/ccrepo) Feb. 2017
              B. P. Prascher, D. E. Woon, K. A. Peterson, T. H. Dunning, Jr., A. K. Wilson, Theor. Chem. Acc. 128, 69 (2011)
         Mg : Obtained from the Peterson Research Group Website (tyr0.chem.wsu.edu/~kipeters) Feb. 2017
              B. P. Prascher, D. E. Woon, K. A. Peterson, T. H. Dunning, Jr., A. K. Wilson, Theor. Chem. Acc. 128, 69 (2011)
      Al-Ar : Obtained from the ccRepo (grant-hill.group.shef.ac.uk/ccrepo) Feb. 2017
              D. E. Woon, T. H. Dunning, Jr., J. Chem. Phys. 98, 1358 (1993)
      Sc-Zn : Obtained from the ccRepo (grant-hill.group.shef.ac.uk/ccrepo) Feb. 2017
              N. B. Balabanov, K. A. Peterson, J. Chem. Phys. 123, 064107 (2005)
              N. B. Balabanov, K. A. Peterson, J. Chem. Phys. 125, 074110 (2006)
      Ga-Kr : Obtained from the ccRepo (grant-hill.group.shef.ac.uk/ccrepo) Feb. 2017
              A. K. Wilson, D. E. Woon, K. A. Peterson, T. H. Dunning, Jr., J. Chem. Phys. 110, 7667 (1999)
     Ag, Au : Obtained from the Peterson Research Group Website (tyr0.chem.wsu.edu/~kipeters) Feb. 2017
              K. A. Peterson, C. Puzzarini, Theor. Chem. Acc. 114, 283 (2005)

----- AuxJK basis set information -----
Your calculation utilizes the auxiliary basis: def2/JK
   H-Ba, Hf-Rn: F. Weigend, J. Comput. Chem. 29, 167 (2008).

================================================================================
                                        WARNINGS
                       Please study these warnings very carefully!
================================================================================


WARNING: your system is open-shell and RHF/RKS was chosen
  ===> : WILL SWITCH to UHF/UKS


INFO   : the flag for use of LIBINT has been found!

================================================================================
                                       INPUT FILE
================================================================================
NAME = 41_CoO.in
|  1> #
|  2> # 41_CoO wb97x-v/aug-cc-pvtz
|  3> #
|  4> ! wb97x-v aug-cc-pvtz def2/jk grid4 nofinalgrid
|  5> 
|  6> *xyz 0 4
|  7>   Co  0.00000000000000      0.00000000000000      0.18722579130779
|  8>   O   0.00000000000000      0.00000000000000      1.81277420869221
|  9> *
| 10> 
| 11> %pal
| 12> nprocs 24
| 13> end
| 14> 
| 15> 
| 16>                          ****END OF INPUT****
================================================================================

                       ****************************
                       * Single Point Calculation *
                       ****************************

---------------------------------
CARTESIAN COORDINATES (ANGSTROEM)
---------------------------------
  Co     0.000000    0.000000    0.187226
  O      0.000000    0.000000    1.812774

----------------------------
CARTESIAN COORDINATES (A.U.)
----------------------------
  NO LB      ZA    FRAG     MASS         X           Y           Z
   0 Co   27.0000    0    58.930    0.000000    0.000000    0.353805
   1 O     8.0000    0    15.999    0.000000    0.000000    3.425647

--------------------------------
INTERNAL COORDINATES (ANGSTROEM)
--------------------------------
 Co     0   0   0     0.000000000000     0.00000000     0.00000000
 O      1   0   0     1.625548417384     0.00000000     0.00000000

---------------------------
INTERNAL COORDINATES (A.U.)
---------------------------
 Co     0   0   0     0.000000000000     0.00000000     0.00000000
 O      1   0   0     3.071841326286     0.00000000     0.00000000

---------------------
BASIS SET INFORMATION
---------------------
There are 2 groups of distinct atoms

 Group   1 Type Co  : 116s77p23d3f2g contracted to 8s7p5d3f2g pattern {19191919191911/151515151511/77711/111/11}
 Group   2 Type O   : 19s6p3d2f contracted to 5s4p3d2f pattern {88111/3111/111/11}

Atom   0Co   basis set group =>   1
Atom   1O    basis set group =>   2
----------------------------------
AUXILIARY/JK BASIS SET INFORMATION
----------------------------------
There are 2 groups of distinct atoms

 Group   1 Type Co  : 19s14p12d10f7g3h1i contracted to 16s13p11d9f5g3h1i pattern {4111111111111111/2111111111111/21111111111/211111111/31111/111/1}
 Group   2 Type O   : 14s10p6d2f1g contracted to 10s8p4d2f1g pattern {5111111111/31111111/3111/11/1}

Atom   0Co   basis set group =>   1
Atom   1O    basis set group =>   2


           ************************************************************
           *        Program running with 24 parallel MPI-processes    *
           *              working on a common directory               *
           ************************************************************
------------------------------------------------------------------------------
                           ORCA GTO INTEGRAL CALCULATION
------------------------------------------------------------------------------

                         BASIS SET STATISTICS AND STARTUP INFO

 # of primitive gaussian shells          ...  251
 # of primitive gaussian functions       ...  567
 # of contracted shells                  ...   39
 # of contracted basis functions         ...  139
 Highest angular momentum                ...    4
 Maximum contraction depth               ...   19
 Integral package used                   ... LIBINT
 Integral threshhold            Thresh   ...  1.000e-10
 Primitive cut-off              TCut     ...  1.000e-11


------------------------------ INTEGRAL EVALUATION ----------------------------


 * One electron integrals 
 Pre-screening matrix                    ... done
 Shell pair data                         ... done (   0.001 sec)



           ************************************************************
           *        Program running with 24 parallel MPI-processes    *
           *              working on a common directory               *
           ************************************************************
-------------------------------------------------------------------------------
                                 ORCA SCF
-------------------------------------------------------------------------------

------------
SCF SETTINGS
------------
Hamiltonian:
 Density Functional     Method          .... DFT(GTOs)
 Exchange Functional    Exchange        .... WB97X-V
 Correlation Functional Correlation     .... WB97X-V
 Gradients option       PostSCFGGA      .... off
 Hybrid DFT is turned on
   Fraction HF Exchange ScalHFX         ....  0.167000
   Scaling of DF-GGA-X  ScalDFX         ....  0.000000
   Scaling of DF-GGA-C  ScalDFC         ....  1.000000
   Scaling of DF-LDA-C  ScalLDAC        ....  1.000000
   Perturbative correction              ....  0.000000
   Density functional embedding theory  .... OFF
 Long-range corrected/Screened/Range-Separated Hybrid DFT is turned on
   Amount of maximum screened exact exchange              ....  0.833000
   Range separation parameter mu (erf(mu*r12)/r12)        ....  0.300000
   NL short-range parameter             ....  6.000000
   NL long-range parameter              ....  0.010000


General Settings:
 Integral files         IntName         .... 41_CoO
 Hartree-Fock type      HFTyp           .... UHF
 Total Charge           Charge          ....    0
 Multiplicity           Mult            ....    4
 Number of Electrons    NEL             ....   35
 Basis Dimension        Dim             ....  139
 Nuclear Repulsion      ENuc            ....     70.3161319407 Eh

Convergence Acceleration:
 DIIS                   CNVDIIS         .... on
   Start iteration      DIISMaxIt       ....    12
   Startup error        DIISStart       ....  0.200000
   # of expansion vecs  DIISMaxEq       ....     5
   Bias factor          DIISBfac        ....   1.050
   Max. coefficient     DIISMaxC        ....  10.000
 Newton-Raphson         CNVNR           .... off
 SOSCF                  CNVSOSCF        .... off
 Level Shifting         CNVShift        .... on
   Level shift para.    LevelShift      ....    0.2500
   Turn off err/grad.   ShiftErr        ....    0.0010
 Zerner damping         CNVZerner       .... off
 Static damping         CNVDamp         .... on
   Fraction old density DampFac         ....    0.7000
   Max. Damping (<1)    DampMax         ....    0.9800
   Min. Damping (>=0)   DampMin         ....    0.0000
   Turn off err/grad.   DampErr         ....    0.1000
 Fernandez-Rico         CNVRico         .... off

SCF Procedure:
 Maximum # iterations   MaxIter         ....   125
 SCF integral mode      SCFMode         .... Direct
   Integral package                     .... LIBINT
 Reset frequency        DirectResetFreq ....    20
 Integral Threshold     Thresh          ....  1.000e-10 Eh
 Primitive CutOff       TCut            ....  1.000e-11 Eh

Convergence Tolerance:
 Convergence Check Mode ConvCheckMode   .... Total+1el-Energy
 Convergence forced     ConvForced      .... 0
 Energy Change          TolE            ....  1.000e-06 Eh
 1-El. energy change                    ....  1.000e-03 Eh
 DIIS Error             TolErr          ....  1.000e-06


Diagonalization of the overlap matrix:
Smallest eigenvalue                        ... 8.975e-05
Time for diagonalization                   ...    0.005 sec
Threshold for overlap eigenvalues          ... 1.000e-08
Number of eigenvalues below threshold      ... 0
Time for construction of square roots      ...    0.003 sec
Total time needed                          ...    0.008 sec

-------------------
DFT GRID GENERATION
-------------------

General Integration Accuracy     IntAcc      ...  4.670
Radial Grid Type                 RadialGrid  ... Gauss-Chebyshev
Angular Grid (max. acc.)         AngularGrid ... Lebedev-302
Angular grid pruning method      GridPruning ... 3 (G Style)
Weight generation scheme         WeightScheme... Becke
Basis function cutoff            BFCut       ...    1.0000e-10
Integration weight cutoff        WCut        ...    1.0000e-14
Grids for H and He will be reduced by one unit

# of grid points (after initial pruning)     ...  15852 (   0.0 sec)
# of grid points (after weights+screening)   ...  15810 (   0.0 sec)
nearest neighbour list constructed           ...    0.0 sec
Grid point re-assignment to atoms done       ...    0.0 sec
Grid point division into batches done        ...    0.1 sec
Reduced shell lists constructed in    0.1 sec

Total number of grid points                  ...    15810
Total number of batches                      ...      248
Average number of points per batch           ...       63
Average number of grid points per atom       ...     7905
Average number of shells per batch           ...    14.17 (36.32%)
Average number of basis functions per batch  ...    33.33 (23.98%)
Average number of large shells per batch     ...     6.42 (45.29%)
Average number of large basis fcns per batch ...    16.42 (49.25%)
Maximum spatial batch extension              ...  28.57, 31.41, 18.20 au
Average spatial batch extension              ...   0.89,  0.95,  0.67 au

Time for grid setup =    0.159 sec

------------------------------
INITIAL GUESS: MODEL POTENTIAL
------------------------------
Loading Hartree-Fock densities                     ... done
Calculating cut-offs                               ... done
Setting up the integral package                    ... done
Initializing the effective Hamiltonian             ... done
Starting the Coulomb interaction                   ... done (   0.0 sec)
Reading the grid                                   ... done
Mapping shells                                     ... done
Starting the XC term evaluation                    ... done (   0.0 sec)
  promolecular density results
     # of electrons  =     35.000025209
     EX              =    -49.912969878
     EC              =     -1.970773812
     EX+EC           =    -51.883743690
Transforming the Hamiltonian                       ... done (   0.0 sec)
Diagonalizing the Hamiltonian                      ... done (   0.0 sec)
Back transforming the eigenvectors                 ... done (   0.0 sec)
Now organizing SCF variables                       ... done
                      ------------------
                      INITIAL GUESS DONE (   0.3 sec)
                      ------------------
--------------
SCF ITERATIONS
--------------
ITER       Energy         Delta-E        Max-DP      RMS-DP      [F,P]     Damp
               ***  Starting incremental Fock matrix formation  ***
  0  -1450.8871092840   0.000000000000 0.80617376  0.01594419  1.9209018 0.7000
  1  -1454.6454404611  -3.758331177047 0.25601966  0.00562981  0.5209325 0.7000
  2  -1455.4301541967  -0.784713735633 0.18677227  0.00512937  0.6045069 0.7000
  3  -1456.2254805538  -0.795326357129 0.15006426  0.00339554  0.3253798 0.7000
                               ***Turning on DIIS***
  4  -1456.7071692242  -0.481688670402 0.10821104  0.00229902  0.1743449 0.7000
  5  -1457.0603441715  -0.353174947310 0.08318625  0.00175359  0.1235665 0.7000
  6  -1457.3147103291  -0.254366157582 0.19539982  0.00428591  0.0783794 0.0000
  7  -1457.9370691242  -0.622358795123 0.01746748  0.00031837  0.0201588 0.0000
  8  -1457.9374454260  -0.000376301753 0.01003293  0.00020213  0.0381560 0.0000
  9  -1457.9390441707  -0.001598744731 0.00960111  0.00012606  0.0089371 0.0000
 10  -1457.9395278694  -0.000483698628 0.01002224  0.00010731  0.0075934 0.0000
 11  -1457.9398218267  -0.000293957359 0.00921136  0.00009187  0.0048091 0.0000
 12  -1457.9400002938  -0.000178467107 0.00487381  0.00005236  0.0029231 0.0000
 13  -1457.9400655019  -0.000065208065 0.00463143  0.00004676  0.0020352 0.0000
 14  -1457.9401021650  -0.000036663146 0.00362154  0.00004199  0.0009532 0.0000
 15  -1457.9401206569  -0.000018491876 0.00101293  0.00001388  0.0002981 0.0000
 16  -1457.9401238900  -0.000003233084 0.00068325  0.00000921  0.0002445 0.0000
 17  -1457.9401253576  -0.000001467583 0.00059030  0.00000743  0.0003609 0.0000
 18  -1457.9401262377  -0.000000880167 0.00056404  0.00000581  0.0001023 0.0000
                 **** Energy Check signals convergence ****

               *****************************************************
               *                     SUCCESS                       *
               *           SCF CONVERGED AFTER  19 CYCLES          *
               *****************************************************


Setting up the DFT-NL grid :

General Integration Accuracy     IntAcc      ...  4.340
Radial Grid Type                 RadialGrid  ... Gauss-Chebyshev
Angular Grid (max. acc.)         AngularGrid ... Lebedev-110
Angular grid pruning method      GridPruning ... 3 (G Style)
Weight generation scheme         WeightScheme... Becke
Basis function cutoff            BFCut       ...    1.0000e-10
Integration weight cutoff        WCut        ...    1.0000e-14
Grids for H and He will be reduced by one unit

# of grid points (after initial pruning)     ...   4628 (   0.0 sec)
# of grid points (after weights+screening)   ...   4601 (   0.0 sec)
nearest neighbour list constructed           ...    0.0 sec
Grid point re-assignment to atoms done       ...    0.0 sec
Grid point division into batches done        ...    0.0 sec
Reduced shell lists constructed in    0.0 sec

Total number of grid points                  ...     4601
Total number of batches                      ...       73
Average number of points per batch           ...       63
Average number of grid points per atom       ...     2300
Average number of shells per batch           ...    21.20 (54.36%)
Average number of basis functions per batch  ...    62.00 (44.60%)
Average number of large shells per batch     ...    15.20 (71.70%)
Average number of large basis fcns per batch ...    42.40 (68.39%)
Maximum spatial batch extension              ...  19.55, 28.73, 15.77 au
Average spatial batch extension              ...   0.97,  1.33,  0.86 au

Final grid set up in    0.0 sec

-------------------------------------------------------------------------------
                         DFT-NL dispersion correction                          
-------------------------------------------------------------------------------

SC Energy -1457.940126634 
NL    Energy 0.147181461 
SC+NL Energy -1457.792945173 
NL done in    0.0 sec
-------------------------------------------------------------------------------

----------------
TOTAL SCF ENERGY
----------------

Total Energy       :        -1457.79294517 Eh          -39668.56275 eV

Components:
Nuclear Repulsion  :           70.31613194 Eh            1913.39923 eV
Electronic Energy  :        -1528.10907711 Eh          -41581.96197 eV
One Electron Energy:        -2160.93909557 Eh          -58802.14223 eV
Two Electron Energy:          632.83001846 Eh           17220.18026 eV

Virial components:
Potential Energy   :        -2913.45718400 Eh          -79279.20045 eV
Kinetic Energy     :         1455.66423882 Eh           39610.63770 eV
Virial Ratio       :            2.00146236


DFT components:
N(Alpha)           :       19.000003576001 electrons
N(Beta)            :       16.000004710536 electrons
N(Total)           :       35.000008286536 electrons
E(X)               :      -50.143078341665 Eh       
E(C)               :       -1.973682296823 Eh       
NL Energy, E(C,NL) :        0.147181461094 Eh       
E(XC)              :      -51.969579177393 Eh       
DFET-embed. en.    :        0.000000000000 Eh       

---------------
SCF CONVERGENCE
---------------

  Last Energy change         ...   -3.9649e-07  Tolerance :   1.0000e-06
  Last MAX-Density change    ...    3.2704e-04  Tolerance :   1.0000e-05
  Last RMS-Density change    ...    2.6871e-06  Tolerance :   1.0000e-06
  Last DIIS Error            ...    9.4148e-05  Tolerance :   1.0000e-06

             **** THE GBW FILE WAS UPDATED (41_CoO.gbw) ****
             **** DENSITY FILE WAS UPDATED (41_CoO.scfp) ****
             **** ENERGY FILE WAS UPDATED (41_CoO.en.tmp) ****
----------------------
UHF SPIN CONTAMINATION
----------------------

Warning: in a DFT calculation there is little theoretical justification to 
         calculate <S**2> as in Hartree-Fock theory. We will do it anyways
         but you should keep in mind that the values have only limited relevance

Expectation value of <S**2>     :     3.762847
Ideal value S*(S+1) for S=1.5   :     3.750000
Deviation                       :     0.012847

             **** THE GBW FILE WAS UPDATED (41_CoO.gbw) ****
             **** DENSITY FILE WAS UPDATED (41_CoO.scfp) ****
----------------
ORBITAL ENERGIES
----------------
                 SPIN UP ORBITALS
  NO   OCC          E(Eh)            E(eV) 
   0   1.0000    -277.410278     -7548.7174 
   1   1.0000     -32.906640      -895.4352 
   2   1.0000     -28.572184      -777.4886 
   3   1.0000     -28.523834      -776.1730 
   4   1.0000     -28.521453      -776.1082 
   5   1.0000     -19.177655      -521.8505 
   6   1.0000      -3.894164      -105.9656 
   7   1.0000      -2.647239       -72.0350 
   8   1.0000      -2.546777       -69.3013 
   9   1.0000      -2.541787       -69.1655 
  10   1.0000      -0.998109       -27.1599 
  11   1.0000      -0.498508       -13.5651 
  12   1.0000      -0.491427       -13.3724 
  13   1.0000      -0.489842       -13.3293 
  14   1.0000      -0.391017       -10.6401 
  15   1.0000      -0.390851       -10.6356 
  16   1.0000      -0.353039        -9.6067 
  17   1.0000      -0.351450        -9.5634 
  18   1.0000      -0.349735        -9.5168 
  19   0.0000      -0.042930        -1.1682 
  20   0.0000       0.024050         0.6544 
  21   0.0000       0.024414         0.6643 
  22   0.0000       0.026478         0.7205 
  23   0.0000       0.039835         1.0840 
  24   0.0000       0.081576         2.2198 
  25   0.0000       0.082189         2.2365 
  26   0.0000       0.101211         2.7541 
  27   0.0000       0.110062         2.9949 
  28   0.0000       0.110063         2.9950 
  29   0.0000       0.114078         3.1042 
  30   0.0000       0.114574         3.1177 
  31   0.0000       0.140895         3.8339 
  32   0.0000       0.166203         4.5226 
  33   0.0000       0.262336         7.1385 
  34   0.0000       0.268210         7.2984 
  35   0.0000       0.269423         7.3314 
  36   0.0000       0.278297         7.5728 
  37   0.0000       0.278749         7.5851 
  38   0.0000       0.337093         9.1728 
  39   0.0000       0.388720        10.5776 
  40   0.0000       0.388728        10.5778 
  41   0.0000       0.402546        10.9538 
  42   0.0000       0.403403        10.9772 
  43   0.0000       0.421710        11.4753 
  44   0.0000       0.602938        16.4068 
  45   0.0000       0.696523        18.9534 
  46   0.0000       0.696548        18.9540 
  47   0.0000       0.699462        19.0333 
  48   0.0000       0.812560        22.1109 
  49   0.0000       0.813572        22.1384 
  50   0.0000       0.836372        22.7588 
  51   0.0000       0.945661        25.7327 
  52   0.0000       0.947790        25.7907 
  53   0.0000       1.060348        28.8535 
  54   0.0000       1.061765        28.8921 
  55   0.0000       1.086557        29.5667 
  56   0.0000       1.106364        30.1057 
  57   0.0000       1.106364        30.1057 
  58   0.0000       1.217506        33.1300 
  59   0.0000       1.217540        33.1309 
  60   0.0000       1.220959        33.2240 
  61   0.0000       1.230610        33.4866 
  62   0.0000       1.232044        33.5256 
  63   0.0000       1.326841        36.1052 
  64   0.0000       1.368960        37.2513 
  65   0.0000       1.368989        37.2521 
  66   0.0000       1.624272        44.1987 
  67   0.0000       1.625807        44.2404 
  68   0.0000       1.829310        49.7781 
  69   0.0000       1.996797        54.3356 
  70   0.0000       2.017668        54.9035 
  71   0.0000       2.017668        54.9035 
  72   0.0000       2.070627        56.3446 
  73   0.0000       2.070636        56.3449 
  74   0.0000       2.240557        60.9687 
  75   0.0000       2.241743        61.0009 
  76   0.0000       2.279451        62.0270 
  77   0.0000       2.279456        62.0271 
  78   0.0000       2.427018        66.0425 
  79   0.0000       2.752207        74.8914 
  80   0.0000       2.753868        74.9366 
  81   0.0000       3.027639        82.3862 
  82   0.0000       3.272598        89.0519 
  83   0.0000       3.272600        89.0520 
  84   0.0000       3.278605        89.2154 
  85   0.0000       3.290012        89.5258 
  86   0.0000       3.290044        89.5266 
  87   0.0000       3.471371        94.4608 
  88   0.0000       3.473097        94.5078 
  89   0.0000       3.497581        95.1740 
  90   0.0000       3.502340        95.3035 
  91   0.0000       3.590704        97.7080 
  92   0.0000       3.946537       107.3907 
  93   0.0000       3.948016       107.4310 
  94   0.0000       3.967713       107.9670 
  95   0.0000       4.144362       112.7738 
  96   0.0000       4.144371       112.7741 
  97   0.0000       4.155886       113.0874 
  98   0.0000       4.155886       113.0874 
  99   0.0000       4.243480       115.4710 
 100   0.0000       4.370302       118.9220 
 101   0.0000       4.370306       118.9221 
 102   0.0000       4.674726       127.2058 
 103   0.0000       4.676247       127.2472 
 104   0.0000       5.263403       143.2245 
 105   0.0000       5.263613       143.2302 
 106   0.0000       5.273210       143.4913 
 107   0.0000       5.678202       154.5117 
 108   0.0000       5.680517       154.5747 
 109   0.0000       6.217359       169.1829 
 110   0.0000       6.217359       169.1829 
 111   0.0000       6.321174       172.0079 
 112   0.0000       6.321181       172.0081 
 113   0.0000       6.480312       176.3383 
 114   0.0000       6.575930       178.9401 
 115   0.0000       6.577113       178.9723 
 116   0.0000       6.697548       182.2495 
 117   0.0000       6.697639       182.2520 
 118   0.0000       7.036770       191.4802 
 119   0.0000       7.065335       192.2575 
 120   0.0000       7.066762       192.2964 
 121   0.0000       7.360322       200.2845 
 122   0.0000      10.515311       286.1362 
 123   0.0000      10.515435       286.1395 
 124   0.0000      10.556385       287.2538 
 125   0.0000      10.556397       287.2542 
 126   0.0000      10.594551       288.2924 
 127   0.0000      10.596299       288.3399 
 128   0.0000      10.804215       293.9976 
 129   0.0000      10.941458       297.7322 
 130   0.0000      11.590827       315.4024 
 131   0.0000      11.590828       315.4025 
 132   0.0000      11.624480       316.3182 
 133   0.0000      11.624501       316.3187 
 134   0.0000      11.673076       317.6405 
 135   0.0000      11.673160       317.6428 
 136   0.0000      11.936410       324.8062 
 137   0.0000      11.938603       324.8659 
 138   0.0000      12.298297       334.6537 

                 SPIN DOWN ORBITALS
  NO   OCC          E(Eh)            E(eV) 
   0   1.0000    -277.408985     -7548.6822 
   1   1.0000     -32.860918      -894.1910 
   2   1.0000     -28.520469      -776.0814 
   3   1.0000     -28.493628      -775.3510 
   4   1.0000     -28.492787      -775.3282 
   5   1.0000     -19.163760      -521.4724 
   6   1.0000      -3.792283      -103.1933 
   7   1.0000      -2.484950       -67.6189 
   8   1.0000      -2.463458       -67.0341 
   9   1.0000      -2.461706       -66.9864 
  10   1.0000      -0.954383       -25.9701 
  11   1.0000      -0.410808       -11.1787 
  12   1.0000      -0.367119        -9.9898 
  13   1.0000      -0.366728        -9.9792 
  14   1.0000      -0.336487        -9.1563 
  15   1.0000      -0.336053        -9.1445 
  16   0.0000      -0.046683        -1.2703 
  17   0.0000       0.010542         0.2869 
  18   0.0000       0.012397         0.3373 
  19   0.0000       0.012778         0.3477 
  20   0.0000       0.034496         0.9387 
  21   0.0000       0.040885         1.1125 
  22   0.0000       0.042381         1.1533 
  23   0.0000       0.043512         1.1840 
  24   0.0000       0.097000         2.6395 
  25   0.0000       0.097374         2.6497 
  26   0.0000       0.112524         3.0619 
  27   0.0000       0.113559         3.0901 
  28   0.0000       0.113644         3.0924 
  29   0.0000       0.122930         3.3451 
  30   0.0000       0.122975         3.3463 
  31   0.0000       0.145135         3.9493 
  32   0.0000       0.176265         4.7964 
  33   0.0000       0.267408         7.2765 
  34   0.0000       0.277407         7.5486 
  35   0.0000       0.277665         7.5556 
  36   0.0000       0.288547         7.8518 
  37   0.0000       0.288682         7.8554 
  38   0.0000       0.353756         9.6262 
  39   0.0000       0.392670        10.6851 
  40   0.0000       0.392737        10.6869 
  41   0.0000       0.413694        11.2572 
  42   0.0000       0.414384        11.2760 
  43   0.0000       0.427055        11.6208 
  44   0.0000       0.614431        16.7195 
  45   0.0000       0.699456        19.0332 
  46   0.0000       0.699461        19.0333 
  47   0.0000       0.714284        19.4366 
  48   0.0000       0.823352        22.4045 
  49   0.0000       0.823941        22.4206 
  50   0.0000       0.844114        22.9695 
  51   0.0000       0.964840        26.2546 
  52   0.0000       0.965475        26.2719 
  53   0.0000       1.081917        29.4405 
  54   0.0000       1.082355        29.4524 
  55   0.0000       1.105280        30.0762 
  56   0.0000       1.114220        30.3195 
  57   0.0000       1.114226        30.3196 
  58   0.0000       1.229050        33.4442 
  59   0.0000       1.229060        33.4444 
  60   0.0000       1.233818        33.5739 
  61   0.0000       1.256222        34.1835 
  62   0.0000       1.257689        34.2235 
  63   0.0000       1.349163        36.7126 
  64   0.0000       1.393324        37.9143 
  65   0.0000       1.393422        37.9169 
  66   0.0000       1.650482        44.9119 
  67   0.0000       1.652038        44.9542 
  68   0.0000       1.854347        50.4594 
  69   0.0000       2.016316        54.8667 
  70   0.0000       2.025361        55.1129 
  71   0.0000       2.025362        55.1129 
  72   0.0000       2.093088        56.9558 
  73   0.0000       2.093100        56.9562 
  74   0.0000       2.257576        61.4318 
  75   0.0000       2.258059        61.4449 
  76   0.0000       2.288147        62.2637 
  77   0.0000       2.288153        62.2638 
  78   0.0000       2.448222        66.6195 
  79   0.0000       2.770606        75.3920 
  80   0.0000       2.771545        75.4176 
  81   0.0000       3.060013        83.2672 
  82   0.0000       3.303010        89.8795 
  83   0.0000       3.303011        89.8795 
  84   0.0000       3.331639        90.6585 
  85   0.0000       3.343480        90.9807 
  86   0.0000       3.343566        90.9831 
  87   0.0000       3.522792        95.8600 
  88   0.0000       3.525166        95.9247 
  89   0.0000       3.538840        96.2967 
  90   0.0000       3.540486        96.3415 
  91   0.0000       3.636420        98.9520 
  92   0.0000       3.987005       108.4919 
  93   0.0000       3.987006       108.4920 
  94   0.0000       4.016799       109.3027 
  95   0.0000       4.172456       113.5383 
  96   0.0000       4.172466       113.5386 
  97   0.0000       4.189861       114.0119 
  98   0.0000       4.189862       114.0119 
  99   0.0000       4.277043       116.3842 
 100   0.0000       4.403924       119.8369 
 101   0.0000       4.403978       119.8383 
 102   0.0000       4.718164       128.3878 
 103   0.0000       4.719828       128.4330 
 104   0.0000       5.306283       144.3913 
 105   0.0000       5.306453       144.3959 
 106   0.0000       5.320149       144.7686 
 107   0.0000       5.753199       156.5525 
 108   0.0000       5.756210       156.6344 
 109   0.0000       6.249731       170.0638 
 110   0.0000       6.249731       170.0638 
 111   0.0000       6.345810       172.6783 
 112   0.0000       6.345817       172.6784 
 113   0.0000       6.522237       177.4791 
 114   0.0000       6.599646       179.5855 
 115   0.0000       6.600064       179.5969 
 116   0.0000       6.748715       183.6419 
 117   0.0000       6.748810       183.6444 
 118   0.0000       7.086087       192.8222 
 119   0.0000       7.103732       193.3024 
 120   0.0000       7.103872       193.3062 
 121   0.0000       7.391837       201.1421 
 122   0.0000      10.602830       288.5177 
 123   0.0000      10.602831       288.5177 
 124   0.0000      10.621022       289.0127 
 125   0.0000      10.621118       289.0153 
 126   0.0000      10.709181       291.4116 
 127   0.0000      10.712479       291.5014 
 128   0.0000      10.864900       295.6490 
 129   0.0000      11.024292       299.9862 
 130   0.0000      11.655870       317.1724 
 131   0.0000      11.655870       317.1724 
 132   0.0000      11.657433       317.2149 
 133   0.0000      11.657451       317.2154 
 134   0.0000      11.749018       319.7070 
 135   0.0000      11.749076       319.7086 
 136   0.0000      12.014156       326.9218 
 137   0.0000      12.016944       326.9977 
 138   0.0000      12.370495       336.6183 

                    ********************************
                    * MULLIKEN POPULATION ANALYSIS *
                    ********************************

--------------------------------------------
MULLIKEN ATOMIC CHARGES AND SPIN POPULATIONS
--------------------------------------------
   0 Co:    0.677181    2.311965
   1 O :   -0.677181    0.688035
Sum of atomic charges         :   -0.0000000
Sum of atomic spin populations:    3.0000000

-----------------------------------------------------
MULLIKEN REDUCED ORBITAL CHARGES AND SPIN POPULATIONS
-----------------------------------------------------
CHARGE
  0 Cos       :     6.356660  s :     6.356660
      pz      :     4.041083  p :    12.187922
      px      :     4.073027
      py      :     4.073813
      dz2     :     1.192505  d :     7.754617
      dxz     :     1.294965
      dyz     :     1.273910
      dx2y2   :     1.994927
      dxy     :     1.998310
      f0      :     0.006963  f :     0.021900
      f+1     :     0.007091
      f-1     :     0.007231
      f+2     :     0.000307
      f-2     :     0.000307
      f+3     :     0.000000
      f-3     :     0.000000
      g0      :     0.000602  g :     0.001720
      g+1     :     0.000534
      g-1     :     0.000536
      g+2     :     0.000024
      g-2     :     0.000024
      g+3     :     0.000000
      g-3     :     0.000000
      g+4     :     0.000000
      g-4     :     0.000000
  1 O s       :     3.956236  s :     3.956236
      pz      :     1.442136  p :     4.691170
      px      :     1.614353
      py      :     1.634681
      dz2     :     0.006215  d :     0.024798
      dxz     :     0.008830
      dyz     :     0.008650
      dx2y2   :     0.000551
      dxy     :     0.000551
      f0      :     0.001452  f :     0.004977
      f+1     :     0.001200
      f-1     :     0.001179
      f+2     :     0.000573
      f-2     :     0.000574
      f+3     :     0.000000
      f-3     :     0.000000

SPIN
  0 Cos       :     0.255554  s :     0.255554
      pz      :     0.003211  p :     0.057393
      px      :     0.027572
      py      :     0.026610
      dz2     :     0.602238  d :     1.993587
      dxz     :     0.683396
      dyz     :     0.704145
      dx2y2   :     0.003581
      dxy     :     0.000228
      f0      :     0.000795  f :     0.005633
      f+1     :     0.002403
      f-1     :     0.002328
      f+2     :     0.000054
      f-2     :     0.000053
      f+3     :     0.000000
      f-3     :     0.000000
      g0      :    -0.000116  g :    -0.000202
      g+1     :    -0.000060
      g-1     :    -0.000055
      g+2     :     0.000014
      g-2     :     0.000014
      g+3     :     0.000000
      g-3     :     0.000000
      g+4     :     0.000000
      g-4     :     0.000000
  1 O s       :    -0.001749  s :    -0.001749
      pz      :     0.135337  p :     0.696183
      px      :     0.290403
      py      :     0.270444
      dz2     :     0.000669  d :    -0.005770
      dxz     :    -0.003309
      dyz     :    -0.003107
      dx2y2   :    -0.000011
      dxy     :    -0.000012
      f0      :     0.000244  f :    -0.000629
      f+1     :    -0.000405
      f-1     :    -0.000364
      f+2     :    -0.000052
      f-2     :    -0.000053
      f+3     :     0.000000
      f-3     :     0.000000


                     *******************************
                     * LOEWDIN POPULATION ANALYSIS *
                     *******************************

-------------------------------------------
LOEWDIN ATOMIC CHARGES AND SPIN POPULATIONS
-------------------------------------------
   0 Co:    0.579461    2.337949
   1 O :   -0.579461    0.662051

----------------------------------------------------
LOEWDIN REDUCED ORBITAL CHARGES AND SPIN POPULATIONS
----------------------------------------------------
CHARGE
  0 Cos       :     6.144435  s :     6.144435
      pz      :     4.136879  p :    12.279149
      px      :     4.070277
      py      :     4.071993
      dz2     :     1.297553  d :     7.822437
      dxz     :     1.294581
      dyz     :     1.275937
      dx2y2   :     1.975508
      dxy     :     1.978858
      f0      :     0.066958  f :     0.164294
      f+1     :     0.046959
      f-1     :     0.047728
      f+2     :     0.001323
      f-2     :     0.001325
      f+3     :     0.000000
      f-3     :     0.000000
      g0      :     0.004991  g :     0.010225
      g+1     :     0.002560
      g-1     :     0.002595
      g+2     :     0.000039
      g-2     :     0.000039
      g+3     :     0.000000
      g-3     :     0.000000
      g+4     :     0.000000
      g-4     :     0.000000
  1 O s       :     3.553958  s :     3.553958
      pz      :     1.583753  p :     4.590213
      px      :     1.494703
      py      :     1.511757
      dz2     :     0.143831  d :     0.272551
      dxz     :     0.054880
      dyz     :     0.054277
      dx2y2   :     0.009774
      dxy     :     0.009790
      f0      :     0.071493  f :     0.162739
      f+1     :     0.036040
      f-1     :     0.035712
      f+2     :     0.009738
      f-2     :     0.009755
      f+3     :     0.000000
      f-3     :     0.000000

SPIN
  0 Cos       :     0.231958  s :     0.231958
      pz      :     0.006391  p :     0.124410
      px      :     0.059858
      py      :     0.058161
      dz2     :     0.594360  d :     1.941587
      dxz     :     0.661241
      dyz     :     0.679958
      dx2y2   :     0.004677
      dxy     :     0.001351
      f0      :     0.003143  f :     0.037788
      f+1     :     0.017620
      f-1     :     0.016901
      f+2     :     0.000062
      f-2     :     0.000061
      f+3     :     0.000000
      f-3     :     0.000000
      g0      :     0.000348  g :     0.002206
      g+1     :     0.000941
      g-1     :     0.000901
      g+2     :     0.000008
      g-2     :     0.000007
      g+3     :     0.000000
      g-3     :     0.000000
      g+4     :     0.000000
      g-4     :     0.000000
  1 O s       :     0.016414  s :     0.016414
      pz      :     0.133709  p :     0.590061
      px      :     0.236766
      py      :     0.219587
      dz2     :     0.004893  d :     0.026240
      dxz     :     0.011177
      dyz     :     0.011784
      dx2y2   :    -0.000801
      dxy     :    -0.000813
      f0      :     0.004967  f :     0.029335
      f+1     :     0.012397
      f-1     :     0.012707
      f+2     :    -0.000361
      f-2     :    -0.000376
      f+3     :     0.000000
      f-3     :     0.000000


                      *****************************
                      * MAYER POPULATION ANALYSIS *
                      *****************************

  NA   - Mulliken gross atomic population
  ZA   - Total nuclear charge
  QA   - Mulliken gross atomic charge
  VA   - Mayer's total valence
  BVA  - Mayer's bonded valence
  FA   - Mayer's free valence

  ATOM       NA         ZA         QA         VA         BVA        FA
  0 Co    26.3228    27.0000     0.6772     3.8354     1.9487     1.8868
  1 O      8.6772     8.0000    -0.6772     2.1322     1.9487     0.1835

  Mayer bond orders larger than 0.100000
B(  0-Co,  1-O ) :   1.9487 

-------
TIMINGS
-------

Total SCF time: 0 days 0 hours 4 min 37 sec 

Total time                  ....     277.554 sec
Sum of individual times     ....     277.121 sec  ( 99.8%)

Fock matrix formation       ....     276.688 sec  ( 99.7%)
  XC integration            ....       0.456 sec  (  0.2% of F)
    Basis function eval.    ....       0.098 sec  ( 21.5% of XC)
    Density eval.           ....       0.054 sec  ( 11.8% of XC)
    XC-Functional eval.     ....       0.023 sec  (  5.0% of XC)
    XC-Potential eval.      ....       0.127 sec  ( 28.0% of XC)
Diagonalization             ....       0.098 sec  (  0.0%)
Density matrix formation    ....       0.014 sec  (  0.0%)
Population analysis         ....       0.007 sec  (  0.0%)
Initial guess               ....       0.107 sec  (  0.0%)
Orbital Transformation      ....       0.000 sec  (  0.0%)
Orbital Orthonormalization  ....       0.000 sec  (  0.0%)
DIIS solution               ....       0.033 sec  (  0.0%)
Grid generation             ....       0.174 sec  (  0.1%)

-------------------------   --------------------
FINAL SINGLE POINT ENERGY     -1457.792945173135
-------------------------   --------------------


                            ***************************************
                            *     ORCA property calculations      *
                            ***************************************

                                    ---------------------
                                    Active property flags
                                    ---------------------
   (+) Dipole Moment


------------------------------------------------------------------------------
                       ORCA ELECTRIC PROPERTIES CALCULATION
------------------------------------------------------------------------------

Dipole Moment Calculation                       ... on
Quadrupole Moment Calculation                   ... off
Polarizability Calculation                      ... off
GBWName                                         ... 41_CoO.gbw
Electron density file                           ... 41_CoO.scfp
The origin for moment calculation is the CENTER OF MASS  = ( 0.000000,  0.000000  1.009712)

-------------
DIPOLE MOMENT
-------------
                                X             Y             Z
Electronic contribution:     -0.00000      -0.00000      -3.98322
Nuclear contribution   :      0.00000       0.00000       1.61802
                        -----------------------------------------
Total Dipole Moment    :     -0.00000      -0.00000      -2.36520
                        -----------------------------------------
Magnitude (a.u.)       :      2.36520
Magnitude (Debye)      :      6.01187



--------------------
Rotational spectrum 
--------------------
 
Rotational constants in cm-1:     0.000000     0.507011     0.507011 
Rotational constants in MHz :     0.000000 15199.819890 15199.819890 

 Dipole components along the rotational axes: 
x,y,z [a.u.] :    -2.365202    -0.000000    -0.000000 
x,y,z [Debye]:    -6.011866    -0.000000    -0.000000 

 

Timings for individual modules:

Sum of individual times         ...      281.486 sec (=   4.691 min)
GTO integral calculation        ...        3.211 sec (=   0.054 min)   1.1 %
SCF iterations                  ...      278.275 sec (=   4.638 min)  98.9 %
                             ****ORCA TERMINATED NORMALLY****
TOTAL RUN TIME: 0 days 0 hours 4 minutes 42 seconds 225 msec
