
                                 *****************
                                 * O   R   C   A *
                                 *****************

           --- An Ab Initio, DFT and Semiempirical electronic structure package ---

                  #######################################################
                  #                        -***-                        #
                  #          Department of theory and spectroscopy      #
                  #               Directorship: Frank Neese             #
                  #        Max Planck Institute fuer Kohlenforschung    #
                  #                Kaiser Wilhelm Platz 1               #
                  #                 D-45470 Muelheim/Ruhr               #
                  #                      Germany                        #
                  #                                                     #
                  #                  All rights reserved                #
                  #                        -***-                        #
                  #######################################################


                         Program Version 4.2.0 -  RELEASE  -


 With contributions from (in alphabetic order):
   Daniel Aravena         : Magnetic Suceptibility
   Michael Atanasov       : Ab Initio Ligand Field Theory (pilot matlab implementation)
   Alexander A. Auer      : GIAO ZORA, VPT2
   Ute Becker             : Parallelization
   Giovanni Bistoni       : ED, misc. LED, open-shell LED, HFLED
   Martin Brehm           : Molecular dynamics
   Dmytro Bykov           : SCF Hessian
   Vijay G. Chilkuri      : MRCI spin determinant printing, contributions to CSF-ICE
   Dipayan Datta          : RHF DLPNO-CCSD density
   Achintya Kumar Dutta   : EOM-CC, STEOM-CC
   Dmitry Ganyushin       : Spin-Orbit,Spin-Spin,Magnetic field MRCI
   Miquel Garcia          : C-PCM Hessian, Gaussian charge scheme
   Yang Guo               : DLPNO-NEVPT2, CIM, IAO-localization
   Andreas Hansen         : Spin unrestricted coupled pair/coupled cluster methods
   Benjamin Helmich-Paris : CASSCF linear response (MC-RPA)
   Lee Huntington         : MR-EOM, pCC
   Robert Izsak           : Overlap fitted RIJCOSX, COSX-SCS-MP3, EOM
   Christian Kollmar      : KDIIS, OOCD, Brueckner-CCSD(T), CCSD density
   Simone Kossmann        : Meta GGA functionals, TD-DFT gradient, OOMP2, MP2 Hessian
   Martin Krupicka        : AUTO-CI
   Lucas Lang             : DCDCAS
   Dagmar Lenk            : GEPOL surface, SMD
   Dimitrios Liakos       : Extrapolation schemes; Compound Job, initial MDCI parallelization
   Dimitrios Manganas     : Further ROCIS development; embedding schemes
   Dimitrios Pantazis     : SARC Basis sets
   Taras Petrenko         : DFT Hessian,TD-DFT gradient, ASA, ECA, R-Raman, ABS, FL, XAS/XES, NRVS
   Peter Pinski           : DLPNO-MP2, DLPNO-MP2 Gradient
   Christoph Reimann      : Effective Core Potentials
   Marius Retegan         : Local ZFS, SOC
   Christoph Riplinger    : Optimizer, TS searches, QM/MM, DLPNO-CCSD(T), (RO)-DLPNO pert. Triples
   Tobias Risthaus        : Range-separated hybrids, TD-DFT gradient, RPA, STAB
   Michael Roemelt        : Original ROCIS implementation
   Masaaki Saitow         : Open-shell DLPNO-CCSD energy and density
   Barbara Sandhoefer     : DKH picture change effects
   Avijit Sen             : IP-ROCIS
   Kantharuban Sivalingam : CASSCF convergence, NEVPT2, FIC-MRCI
   Bernardo de Souza      : ESD, SOC TD-DFT
   Georgi Stoychev        : AutoAux, RI-MP2 NMR
   Willem Van den Heuvel  : Paramagnetic NMR
   Boris Wezisla          : Elementary symmetry handling
   Frank Wennmohs         : Technical directorship


 We gratefully acknowledge several colleagues who have allowed us to
 interface, adapt or use parts of their codes:
   Stefan Grimme, W. Hujo, H. Kruse,             : VdW corrections, initial TS optimization,
                  C. Bannwarth                     DFT functionals, gCP, sTDA/sTD-DF
   Ed Valeev, F. Pavosevic, A. Kumar             : LibInt (2-el integral package), F12 methods
   Garnet Chan, S. Sharma, J. Yang, R. Olivares  : DMRG
   Ulf Ekstrom                                   : XCFun DFT Library
   Mihaly Kallay                                 : mrcc  (arbitrary order and MRCC methods)
   Andreas Klamt, Michael Diedenhofen            : otool_cosmo (COSMO solvation model)
   Jiri Pittner, Ondrej Demel                    : Mk-CCSD
   Frank Weinhold                                : gennbo (NPA and NBO analysis)
   Christopher J. Cramer and Donald G. Truhlar   : smd solvation model
   Lars Goerigk                                  : TD-DFT with DH, B97 family of functionals
   V. Asgeirsson, H. Jonsson                     : NEB implementation
   FAccTs GmbH                                   : IRC, NEB, NEB-TS, Multilevel, MM, QM/MM, CI optimization
   S Lehtola, MJT Oliveira, MAL Marques          : LibXC Library


 Your calculation uses the libint2 library for the computation of 2-el integrals
 For citations please refer to: http://libint.valeyev.net

 Your ORCA version has been built with support for libXC version: 4.2.3
 For citations please refer to: https://tddft.org/programs/libxc/

 This ORCA versions uses:
   CBLAS   interface :  Fast vector & matrix operations
   LAPACKE interface :  Fast linear algebra routines
   SCALAPACK package :  Parallel linear algebra routines


Your calculation utilizes the DFT-NL dispersion correction.
Cite in your paper:
Vydrov, O. A.; Van Voorhis, T. J. Chem. Phys. 2010, 133, 244103
Hujo, W.; Grimme, S. J. Chem. Theory Comput. 2011, 7, 3866 
   

----- Orbital basis set information -----
Your calculation utilizes the basis: aug-cc-pVTZ 
    H, B-Ne : Obtained from the ccRepo (grant-hill.group.shef.ac.uk/ccrepo) Feb. 2017
              R. A. Kendall, T. H. Dunning, Jr., R. J. Harrison, J. Chem. Phys. 96, 6796 (1992)
         He : Obtained from the ccRepo (grant-hill.group.shef.ac.uk/ccrepo) Feb. 2017
              D. E. Woon, T. H. Dunning, Jr., J. Chem. Phys. 100, 2975 (1994)
  Li-Be, Na : Obtained from the ccRepo (grant-hill.group.shef.ac.uk/ccrepo) Feb. 2017
              B. P. Prascher, D. E. Woon, K. A. Peterson, T. H. Dunning, Jr., A. K. Wilson, Theor. Chem. Acc. 128, 69 (2011)
         Mg : Obtained from the Peterson Research Group Website (tyr0.chem.wsu.edu/~kipeters) Feb. 2017
              B. P. Prascher, D. E. Woon, K. A. Peterson, T. H. Dunning, Jr., A. K. Wilson, Theor. Chem. Acc. 128, 69 (2011)
      Al-Ar : Obtained from the ccRepo (grant-hill.group.shef.ac.uk/ccrepo) Feb. 2017
              D. E. Woon, T. H. Dunning, Jr., J. Chem. Phys. 98, 1358 (1993)
      Sc-Zn : Obtained from the ccRepo (grant-hill.group.shef.ac.uk/ccrepo) Feb. 2017
              N. B. Balabanov, K. A. Peterson, J. Chem. Phys. 123, 064107 (2005)
              N. B. Balabanov, K. A. Peterson, J. Chem. Phys. 125, 074110 (2006)
      Ga-Kr : Obtained from the ccRepo (grant-hill.group.shef.ac.uk/ccrepo) Feb. 2017
              A. K. Wilson, D. E. Woon, K. A. Peterson, T. H. Dunning, Jr., J. Chem. Phys. 110, 7667 (1999)
     Ag, Au : Obtained from the Peterson Research Group Website (tyr0.chem.wsu.edu/~kipeters) Feb. 2017
              K. A. Peterson, C. Puzzarini, Theor. Chem. Acc. 114, 283 (2005)

----- AuxJK basis set information -----
Your calculation utilizes the auxiliary basis: def2/JK
   H-Ba, Hf-Rn: F. Weigend, J. Comput. Chem. 29, 167 (2008).

================================================================================
                                        WARNINGS
                       Please study these warnings very carefully!
================================================================================


WARNING: your system is open-shell and RHF/RKS was chosen
  ===> : WILL SWITCH to UHF/UKS


INFO   : the flag for use of LIBINT has been found!

================================================================================
                                       INPUT FILE
================================================================================
NAME = 43_NiH.in
|  1> #
|  2> # 43_NiH wb97x-v/aug-cc-pvtz
|  3> #
|  4> ! wb97x-v aug-cc-pvtz def2/jk grid4 nofinalgrid
|  5> 
|  6> *xyz 0 2
|  7>   Ni  0.00000000000000      0.00000000000000      0.25339129346416
|  8>   H   0.00000000000000      0.00000000000000      1.74660870653584
|  9> *
| 10> 
| 11> %pal
| 12> nprocs 24
| 13> end
| 14> 
| 15> 
| 16>                          ****END OF INPUT****
================================================================================

                       ****************************
                       * Single Point Calculation *
                       ****************************

---------------------------------
CARTESIAN COORDINATES (ANGSTROEM)
---------------------------------
  Ni     0.000000    0.000000    0.253391
  H      0.000000    0.000000    1.746609

----------------------------
CARTESIAN COORDINATES (A.U.)
----------------------------
  NO LB      ZA    FRAG     MASS         X           Y           Z
   0 Ni   28.0000    0    58.700    0.000000    0.000000    0.478840
   1 H     1.0000    0     1.008    0.000000    0.000000    3.300612

--------------------------------
INTERNAL COORDINATES (ANGSTROEM)
--------------------------------
 Ni     0   0   0     0.000000000000     0.00000000     0.00000000
 H      1   0   0     1.493217413072     0.00000000     0.00000000

---------------------------
INTERNAL COORDINATES (A.U.)
---------------------------
 Ni     0   0   0     0.000000000000     0.00000000     0.00000000
 H      1   0   0     2.821771969108     0.00000000     0.00000000

---------------------
BASIS SET INFORMATION
---------------------
There are 2 groups of distinct atoms

 Group   1 Type Ni  : 116s77p23d3f2g contracted to 8s7p5d3f2g pattern {19191919191911/151515151511/77711/111/11}
 Group   2 Type H   : 6s3p2d contracted to 4s3p2d pattern {3111/111/11}

Atom   0Ni   basis set group =>   1
Atom   1H    basis set group =>   2
----------------------------------
AUXILIARY/JK BASIS SET INFORMATION
----------------------------------
There are 2 groups of distinct atoms

 Group   1 Type Ni  : 19s14p12d10f7g3h1i contracted to 16s13p11d9f5g3h1i pattern {4111111111111111/2111111111111/21111111111/211111111/31111/111/1}
 Group   2 Type H   : 4s2p2d contracted to 2s2p2d pattern {31/11/11}

Atom   0Ni   basis set group =>   1
Atom   1H    basis set group =>   2


           ************************************************************
           *        Program running with 24 parallel MPI-processes    *
           *              working on a common directory               *
           ************************************************************
------------------------------------------------------------------------------
                           ORCA GTO INTEGRAL CALCULATION
------------------------------------------------------------------------------

                         BASIS SET STATISTICS AND STARTUP INFO

 # of primitive gaussian shells          ...  232
 # of primitive gaussian functions       ...  526
 # of contracted shells                  ...   34
 # of contracted basis functions         ...  116
 Highest angular momentum                ...    4
 Maximum contraction depth               ...   19
 Integral package used                   ... LIBINT
 Integral threshhold            Thresh   ...  1.000e-10
 Primitive cut-off              TCut     ...  1.000e-11


------------------------------ INTEGRAL EVALUATION ----------------------------


 * One electron integrals 
 Pre-screening matrix                    ... done
 Shell pair data                         ... done (   0.001 sec)



           ************************************************************
           *        Program running with 24 parallel MPI-processes    *
           *              working on a common directory               *
           ************************************************************
-------------------------------------------------------------------------------
                                 ORCA SCF
-------------------------------------------------------------------------------

------------
SCF SETTINGS
------------
Hamiltonian:
 Density Functional     Method          .... DFT(GTOs)
 Exchange Functional    Exchange        .... WB97X-V
 Correlation Functional Correlation     .... WB97X-V
 Gradients option       PostSCFGGA      .... off
 Hybrid DFT is turned on
   Fraction HF Exchange ScalHFX         ....  0.167000
   Scaling of DF-GGA-X  ScalDFX         ....  0.000000
   Scaling of DF-GGA-C  ScalDFC         ....  1.000000
   Scaling of DF-LDA-C  ScalLDAC        ....  1.000000
   Perturbative correction              ....  0.000000
   Density functional embedding theory  .... OFF
 Long-range corrected/Screened/Range-Separated Hybrid DFT is turned on
   Amount of maximum screened exact exchange              ....  0.833000
   Range separation parameter mu (erf(mu*r12)/r12)        ....  0.300000
   NL short-range parameter             ....  6.000000
   NL long-range parameter              ....  0.010000


General Settings:
 Integral files         IntName         .... 43_NiH
 Hartree-Fock type      HFTyp           .... UHF
 Total Charge           Charge          ....    0
 Multiplicity           Mult            ....    2
 Number of Electrons    NEL             ....   29
 Basis Dimension        Dim             ....  116
 Nuclear Repulsion      ENuc            ....      9.9228429180 Eh

Convergence Acceleration:
 DIIS                   CNVDIIS         .... on
   Start iteration      DIISMaxIt       ....    12
   Startup error        DIISStart       ....  0.200000
   # of expansion vecs  DIISMaxEq       ....     5
   Bias factor          DIISBfac        ....   1.050
   Max. coefficient     DIISMaxC        ....  10.000
 Newton-Raphson         CNVNR           .... off
 SOSCF                  CNVSOSCF        .... off
 Level Shifting         CNVShift        .... on
   Level shift para.    LevelShift      ....    0.2500
   Turn off err/grad.   ShiftErr        ....    0.0010
 Zerner damping         CNVZerner       .... off
 Static damping         CNVDamp         .... on
   Fraction old density DampFac         ....    0.7000
   Max. Damping (<1)    DampMax         ....    0.9800
   Min. Damping (>=0)   DampMin         ....    0.0000
   Turn off err/grad.   DampErr         ....    0.1000
 Fernandez-Rico         CNVRico         .... off

SCF Procedure:
 Maximum # iterations   MaxIter         ....   125
 SCF integral mode      SCFMode         .... Direct
   Integral package                     .... LIBINT
 Reset frequency        DirectResetFreq ....    20
 Integral Threshold     Thresh          ....  1.000e-10 Eh
 Primitive CutOff       TCut            ....  1.000e-11 Eh

Convergence Tolerance:
 Convergence Check Mode ConvCheckMode   .... Total+1el-Energy
 Convergence forced     ConvForced      .... 0
 Energy Change          TolE            ....  1.000e-06 Eh
 1-El. energy change                    ....  1.000e-03 Eh
 DIIS Error             TolErr          ....  1.000e-06


Diagonalization of the overlap matrix:
Smallest eigenvalue                        ... 1.316e-04
Time for diagonalization                   ...    0.004 sec
Threshold for overlap eigenvalues          ... 1.000e-08
Number of eigenvalues below threshold      ... 0
Time for construction of square roots      ...    0.002 sec
Total time needed                          ...    0.006 sec

-------------------
DFT GRID GENERATION
-------------------

General Integration Accuracy     IntAcc      ...  4.670
Radial Grid Type                 RadialGrid  ... Gauss-Chebyshev
Angular Grid (max. acc.)         AngularGrid ... Lebedev-302
Angular grid pruning method      GridPruning ... 3 (G Style)
Weight generation scheme         WeightScheme... Becke
Basis function cutoff            BFCut       ...    1.0000e-10
Integration weight cutoff        WCut        ...    1.0000e-14
Grids for H and He will be reduced by one unit

# of grid points (after initial pruning)     ...  13058 (   0.0 sec)
# of grid points (after weights+screening)   ...  13021 (   0.0 sec)
nearest neighbour list constructed           ...    0.0 sec
Grid point re-assignment to atoms done       ...    0.0 sec
Grid point division into batches done        ...    0.1 sec
Reduced shell lists constructed in    0.1 sec

Total number of grid points                  ...    13021
Total number of batches                      ...      205
Average number of points per batch           ...       63
Average number of grid points per atom       ...     6510
Average number of shells per batch           ...    15.20 (44.71%)
Average number of basis functions per batch  ...    33.60 (28.97%)
Average number of large shells per batch     ...     8.90 (58.55%)
Average number of large basis fcns per batch ...    19.90 (59.23%)
Maximum spatial batch extension              ...  28.79, 26.18, 17.31 au
Average spatial batch extension              ...   0.91,  0.87,  0.66 au

Time for grid setup =    0.123 sec

------------------------------
INITIAL GUESS: MODEL POTENTIAL
------------------------------
Loading Hartree-Fock densities                     ... done
Calculating cut-offs                               ... done
Setting up the integral package                    ... done
Initializing the effective Hamiltonian             ... done
Starting the Coulomb interaction                   ... done (   0.0 sec)
Reading the grid                                   ... done
Mapping shells                                     ... done
Starting the XC term evaluation                    ... done (   0.0 sec)
  promolecular density results
     # of electrons  =     28.999547690
     EX              =    -47.351567742
     EC              =     -1.728778827
     EX+EC           =    -49.080346569
Transforming the Hamiltonian                       ... done (   0.0 sec)
Diagonalizing the Hamiltonian                      ... done (   0.0 sec)
Back transforming the eigenvectors                 ... done (   0.0 sec)
Now organizing SCF variables                       ... done
                      ------------------
                      INITIAL GUESS DONE (   0.2 sec)
                      ------------------
--------------
SCF ITERATIONS
--------------
ITER       Energy         Delta-E        Max-DP      RMS-DP      [F,P]     Damp
               ***  Starting incremental Fock matrix formation  ***
  0  -1507.0833664860   0.000000000000 0.24760988  0.00433173  1.3688751 0.7000
  1  -1508.0129683157  -0.929601829708 0.20146094  0.00211216  0.2566722 0.7000
  2  -1508.1863055816  -0.173337265867 0.15689748  0.00162663  0.3463573 0.7000
  3  -1508.3515185377  -0.165212956164 0.10734520  0.00108549  0.2430413 0.7000
                               ***Turning on DIIS***
  4  -1508.4839213475  -0.132402809805 0.07332451  0.00074081  0.1205989 0.7000
  5  -1508.5819025155  -0.097981167964 0.17020540  0.00192921  0.0659480 0.0000
  6  -1508.8394452984  -0.257542782894 0.05498160  0.00053643  0.0488334 0.0000
  7  -1508.8483549558  -0.008909657374 0.03225685  0.00033530  0.0397855 0.0000
  8  -1508.8543601966  -0.006005240878 0.06892589  0.00061108  0.0362974 0.0000
  9  -1508.8628624937  -0.008502297033 0.05637229  0.00051342  0.0282979 0.0000
 10  -1508.8680019465  -0.005139452818 0.03968012  0.00040459  0.0193012 0.0000
 11  -1508.8705540553  -0.002552108757 0.01802578  0.00020991  0.0111347 0.0000
 12  -1508.8713785113  -0.000824456043 0.01074439  0.00014529  0.0064079 0.0000
 13  -1508.8717111034  -0.000332592062 0.00511737  0.00007114  0.0031235 0.0000
 14  -1508.8718120162  -0.000100912838 0.00437260  0.00005628  0.0017851 0.0000
 15  -1508.8718598683  -0.000047852064 0.00221308  0.00003104  0.0010600 0.0000
 16  -1508.8718773909  -0.000017522627 0.00274404  0.00004099  0.0005790 0.0000
 17  -1508.8718904619  -0.000013071025 0.00099399  0.00001186  0.0002037 0.0000
 18  -1508.8718924904  -0.000002028526 0.00049213  0.00000535  0.0001032 0.0000
 19  -1508.8718928976  -0.000000407190 0.00020193  0.00000229  0.0000457 0.0000
               *** Restarting incremental Fock matrix formation ***
                                   *** Resetting DIIS ***
 20  -1508.8718929674  -0.000000069773 0.00005211  0.00000063  0.0000135 0.0000
                 **** Energy Check signals convergence ****

               *****************************************************
               *                     SUCCESS                       *
               *           SCF CONVERGED AFTER  21 CYCLES          *
               *****************************************************


Setting up the DFT-NL grid :

General Integration Accuracy     IntAcc      ...  4.340
Radial Grid Type                 RadialGrid  ... Gauss-Chebyshev
Angular Grid (max. acc.)         AngularGrid ... Lebedev-110
Angular grid pruning method      GridPruning ... 3 (G Style)
Weight generation scheme         WeightScheme... Becke
Basis function cutoff            BFCut       ...    1.0000e-10
Integration weight cutoff        WCut        ...    1.0000e-14
Grids for H and He will be reduced by one unit

# of grid points (after initial pruning)     ...   3706 (   0.0 sec)
# of grid points (after weights+screening)   ...   3681 (   0.0 sec)
nearest neighbour list constructed           ...    0.0 sec
Grid point re-assignment to atoms done       ...    0.0 sec
Grid point division into batches done        ...    0.0 sec
Reduced shell lists constructed in    0.0 sec

Total number of grid points                  ...     3681
Total number of batches                      ...       58
Average number of points per batch           ...       63
Average number of grid points per atom       ...     1840
Average number of shells per batch           ...    20.25 (59.56%)
Average number of basis functions per batch  ...    56.25 (48.49%)
Average number of large shells per batch     ...    15.00 (74.07%)
Average number of large basis fcns per batch ...    42.00 (74.67%)
Maximum spatial batch extension              ...  34.10, 26.34, 18.34 au
Average spatial batch extension              ...   1.21,  1.23,  0.81 au

Final grid set up in    0.0 sec

-------------------------------------------------------------------------------
                         DFT-NL dispersion correction                          
-------------------------------------------------------------------------------

SC Energy -1508.871892978 
NL    Energy 0.123218996 
SC+NL Energy -1508.748673982 
NL done in    0.0 sec
-------------------------------------------------------------------------------

----------------
TOTAL SCF ENERGY
----------------

Total Energy       :        -1508.74867398 Eh          -41055.13862 eV

Components:
Nuclear Repulsion  :            9.92284292 Eh             270.01428 eV
Electronic Energy  :        -1518.67151690 Eh          -41325.15291 eV
One Electron Energy:        -2118.42568145 Eh          -57645.29342 eV
Two Electron Energy:          599.75416455 Eh           16320.14052 eV

Virial components:
Potential Energy   :        -3015.72083227 Eh          -82061.93579 eV
Kinetic Energy     :         1506.97215829 Eh           41006.79717 eV
Virial Ratio       :            2.00117886


DFT components:
N(Alpha)           :       15.000004768793 electrons
N(Beta)            :       14.000004898516 electrons
N(Total)           :       29.000009667309 electrons
E(X)               :      -47.532545477074 Eh       
E(C)               :       -1.738852387342 Eh       
NL Energy, E(C,NL) :        0.123218996062 Eh       
E(XC)              :      -49.148178868354 Eh       
DFET-embed. en.    :        0.000000000000 Eh       

---------------
SCF CONVERGENCE
---------------

  Last Energy change         ...   -1.0933e-08  Tolerance :   1.0000e-06
  Last MAX-Density change    ...    1.3931e-05  Tolerance :   1.0000e-05
  Last RMS-Density change    ...    1.6850e-07  Tolerance :   1.0000e-06
  Last DIIS Error            ...    2.7658e-05  Tolerance :   1.0000e-06

             **** THE GBW FILE WAS UPDATED (43_NiH.gbw) ****
             **** DENSITY FILE WAS UPDATED (43_NiH.scfp) ****
             **** ENERGY FILE WAS UPDATED (43_NiH.en.tmp) ****
----------------------
UHF SPIN CONTAMINATION
----------------------

Warning: in a DFT calculation there is little theoretical justification to 
         calculate <S**2> as in Hartree-Fock theory. We will do it anyways
         but you should keep in mind that the values have only limited relevance

Expectation value of <S**2>     :     0.756671
Ideal value S*(S+1) for S=0.5   :     0.750000
Deviation                       :     0.006671

             **** THE GBW FILE WAS UPDATED (43_NiH.gbw) ****
             **** DENSITY FILE WAS UPDATED (43_NiH.scfp) ****
----------------
ORBITAL ENERGIES
----------------
                 SPIN UP ORBITALS
  NO   OCC          E(Eh)            E(eV) 
   0   1.0000    -299.640269     -8153.6263 
   1   1.0000     -35.746819      -972.7204 
   2   1.0000     -31.183956      -848.5586 
   3   1.0000     -31.152130      -847.6926 
   4   1.0000     -31.152130      -847.6926 
   5   1.0000      -4.079126      -110.9987 
   6   1.0000      -2.713065       -73.8263 
   7   1.0000      -2.649134       -72.0866 
   8   1.0000      -2.649134       -72.0866 
   9   1.0000      -0.430027       -11.7016 
  10   1.0000      -0.357521        -9.7286 
  11   1.0000      -0.357521        -9.7286 
  12   1.0000      -0.331422        -9.0185 
  13   1.0000      -0.331422        -9.0185 
  14   1.0000      -0.325687        -8.8624 
  15   0.0000      -0.009216        -0.2508 
  16   0.0000       0.025131         0.6839 
  17   0.0000       0.025131         0.6839 
  18   0.0000       0.031984         0.8703 
  19   0.0000       0.041297         1.1238 
  20   0.0000       0.084628         2.3028 
  21   0.0000       0.084628         2.3028 
  22   0.0000       0.097529         2.6539 
  23   0.0000       0.123695         3.3659 
  24   0.0000       0.123695         3.3659 
  25   0.0000       0.125274         3.4089 
  26   0.0000       0.127330         3.4648 
  27   0.0000       0.127330         3.4648 
  28   0.0000       0.194147         5.2830 
  29   0.0000       0.244086         6.6419 
  30   0.0000       0.283634         7.7181 
  31   0.0000       0.283634         7.7181 
  32   0.0000       0.319774         8.7015 
  33   0.0000       0.358163         9.7461 
  34   0.0000       0.358163         9.7461 
  35   0.0000       0.433838        11.8053 
  36   0.0000       0.455920        12.4062 
  37   0.0000       0.455920        12.4062 
  38   0.0000       0.464078        12.6282 
  39   0.0000       0.464078        12.6282 
  40   0.0000       0.665988        18.1224 
  41   0.0000       0.710998        19.3472 
  42   0.0000       0.827509        22.5177 
  43   0.0000       0.856064        23.2947 
  44   0.0000       0.856064        23.2947 
  45   0.0000       0.991585        26.9824 
  46   0.0000       0.991585        26.9824 
  47   0.0000       1.026732        27.9388 
  48   0.0000       1.048663        28.5356 
  49   0.0000       1.048663        28.5356 
  50   0.0000       1.151694        31.3392 
  51   0.0000       1.151694        31.3392 
  52   0.0000       1.308700        35.6115 
  53   0.0000       1.395063        37.9616 
  54   0.0000       1.395063        37.9616 
  55   0.0000       1.520444        41.3734 
  56   0.0000       1.520445        41.3734 
  57   0.0000       1.534721        41.7619 
  58   0.0000       1.534721        41.7619 
  59   0.0000       1.563843        42.5543 
  60   0.0000       1.580444        43.0061 
  61   0.0000       1.580447        43.0062 
  62   0.0000       1.748544        47.5803 
  63   0.0000       2.035345        55.3845 
  64   0.0000       2.035345        55.3845 
  65   0.0000       2.454048        66.7781 
  66   0.0000       3.120138        84.9033 
  67   0.0000       3.701415       100.7206 
  68   0.0000       3.755565       102.1941 
  69   0.0000       3.755565       102.1941 
  70   0.0000       3.771342       102.6234 
  71   0.0000       3.771362       102.6240 
  72   0.0000       3.903184       106.2110 
  73   0.0000       4.010427       109.1293 
  74   0.0000       4.010427       109.1293 
  75   0.0000       4.069023       110.7237 
  76   0.0000       4.069040       110.7242 
  77   0.0000       4.081956       111.0757 
  78   0.0000       4.081956       111.0757 
  79   0.0000       4.172529       113.5403 
  80   0.0000       4.172529       113.5403 
  81   0.0000       4.243414       115.4692 
  82   0.0000       4.243414       115.4692 
  83   0.0000       4.380721       119.2055 
  84   0.0000       4.442573       120.8886 
  85   0.0000       5.196514       141.4043 
  86   0.0000       5.196514       141.4043 
  87   0.0000       5.197052       141.4190 
  88   0.0000       5.197076       141.4196 
  89   0.0000       5.228415       142.2724 
  90   0.0000       5.239441       142.5724 
  91   0.0000       5.239442       142.5725 
  92   0.0000       5.612601       152.7266 
  93   0.0000       5.612601       152.7266 
  94   0.0000       5.818702       158.3349 
  95   0.0000       5.818706       158.3350 
  96   0.0000       5.921007       161.1188 
  97   0.0000       6.115096       166.4002 
  98   0.0000       6.115096       166.4002 
  99   0.0000       7.535182       205.0427 
 100   0.0000      12.609284       343.1161 
 101   0.0000      12.609284       343.1161 
 102   0.0000      12.625016       343.5442 
 103   0.0000      12.625033       343.5446 
 104   0.0000      12.653854       344.3289 
 105   0.0000      12.653854       344.3289 
 106   0.0000      12.738928       346.6439 
 107   0.0000      14.155408       385.1882 
 108   0.0000      14.155410       385.1883 
 109   0.0000      14.162193       385.3729 
 110   0.0000      14.162193       385.3729 
 111   0.0000      14.167574       385.5193 
 112   0.0000      14.167577       385.5194 
 113   0.0000      14.300180       389.1277 
 114   0.0000      14.300180       389.1277 
 115   0.0000      14.595293       397.1581 

                 SPIN DOWN ORBITALS
  NO   OCC          E(Eh)            E(eV) 
   0   1.0000    -299.639819     -8153.6140 
   1   1.0000     -35.728197      -972.2137 
   2   1.0000     -31.159738      -847.8996 
   3   1.0000     -31.141975      -847.4162 
   4   1.0000     -31.141975      -847.4162 
   5   1.0000      -4.037960      -109.8785 
   6   1.0000      -2.633846       -71.6706 
   7   1.0000      -2.622717       -71.3678 
   8   1.0000      -2.622717       -71.3678 
   9   1.0000      -0.384768       -10.4701 
  10   1.0000      -0.339725        -9.2444 
  11   1.0000      -0.339725        -9.2444 
  12   1.0000      -0.307730        -8.3738 
  13   1.0000      -0.307730        -8.3738 
  14   0.0000      -0.014607        -0.3975 
  15   0.0000       0.027785         0.7561 
  16   0.0000       0.027785         0.7561 
  17   0.0000       0.029560         0.8044 
  18   0.0000       0.039119         1.0645 
  19   0.0000       0.059782         1.6268 
  20   0.0000       0.088906         2.4193 
  21   0.0000       0.088906         2.4193 
  22   0.0000       0.099430         2.7056 
  23   0.0000       0.125464         3.4140 
  24   0.0000       0.125464         3.4140 
  25   0.0000       0.129520         3.5244 
  26   0.0000       0.129520         3.5244 
  27   0.0000       0.141449         3.8490 
  28   0.0000       0.198138         5.3916 
  29   0.0000       0.246894         6.7183 
  30   0.0000       0.289222         7.8701 
  31   0.0000       0.289222         7.8701 
  32   0.0000       0.322719         8.7816 
  33   0.0000       0.358342         9.7510 
  34   0.0000       0.358342         9.7510 
  35   0.0000       0.447616        12.1803 
  36   0.0000       0.456361        12.4182 
  37   0.0000       0.456361        12.4182 
  38   0.0000       0.465138        12.6570 
  39   0.0000       0.465138        12.6570 
  40   0.0000       0.670831        18.2542 
  41   0.0000       0.710034        19.3210 
  42   0.0000       0.832393        22.6506 
  43   0.0000       0.855151        23.2698 
  44   0.0000       0.855152        23.2699 
  45   0.0000       0.994811        27.0702 
  46   0.0000       0.994811        27.0702 
  47   0.0000       1.026571        27.9344 
  48   0.0000       1.046470        28.4759 
  49   0.0000       1.046470        28.4759 
  50   0.0000       1.157580        31.4994 
  51   0.0000       1.157580        31.4994 
  52   0.0000       1.325077        36.0572 
  53   0.0000       1.405382        38.2424 
  54   0.0000       1.405382        38.2424 
  55   0.0000       1.523969        41.4693 
  56   0.0000       1.523970        41.4693 
  57   0.0000       1.542265        41.9672 
  58   0.0000       1.542265        41.9672 
  59   0.0000       1.581994        43.0482 
  60   0.0000       1.593078        43.3499 
  61   0.0000       1.593081        43.3499 
  62   0.0000       1.755784        47.7773 
  63   0.0000       2.040164        55.5157 
  64   0.0000       2.040164        55.5157 
  65   0.0000       2.465463        67.0886 
  66   0.0000       3.119908        84.8970 
  67   0.0000       3.724537       101.3498 
  68   0.0000       3.758795       102.2820 
  69   0.0000       3.758795       102.2820 
  70   0.0000       3.766143       102.4820 
  71   0.0000       3.766160       102.4824 
  72   0.0000       3.923889       106.7745 
  73   0.0000       4.029716       109.6541 
  74   0.0000       4.029716       109.6541 
  75   0.0000       4.073199       110.8374 
  76   0.0000       4.073218       110.8379 
  77   0.0000       4.094887       111.4275 
  78   0.0000       4.094887       111.4275 
  79   0.0000       4.169581       113.4601 
  80   0.0000       4.169581       113.4601 
  81   0.0000       4.265564       116.0719 
  82   0.0000       4.265564       116.0719 
  83   0.0000       4.401478       119.7703 
  84   0.0000       4.474118       121.7469 
  85   0.0000       5.201644       141.5439 
  86   0.0000       5.201644       141.5439 
  87   0.0000       5.219866       142.0398 
  88   0.0000       5.219891       142.0405 
  89   0.0000       5.235093       142.4541 
  90   0.0000       5.249353       142.8422 
  91   0.0000       5.249354       142.8422 
  92   0.0000       5.633116       153.2849 
  93   0.0000       5.633116       153.2849 
  94   0.0000       5.838228       158.8663 
  95   0.0000       5.838231       158.8663 
  96   0.0000       5.979483       162.7100 
  97   0.0000       6.126394       166.7077 
  98   0.0000       6.126394       166.7077 
  99   0.0000       7.572671       206.0628 
 100   0.0000      12.632136       343.7379 
 101   0.0000      12.632136       343.7379 
 102   0.0000      12.635836       343.8386 
 103   0.0000      12.635852       343.8390 
 104   0.0000      12.711223       345.8900 
 105   0.0000      12.711223       345.8900 
 106   0.0000      12.825267       348.9932 
 107   0.0000      14.167599       385.5200 
 108   0.0000      14.167599       385.5200 
 109   0.0000      14.177885       385.7999 
 110   0.0000      14.177887       385.7999 
 111   0.0000      14.188923       386.1002 
 112   0.0000      14.188925       386.1003 
 113   0.0000      14.345817       390.3695 
 114   0.0000      14.345817       390.3695 
 115   0.0000      14.657514       398.8512 

                    ********************************
                    * MULLIKEN POPULATION ANALYSIS *
                    ********************************

--------------------------------------------
MULLIKEN ATOMIC CHARGES AND SPIN POPULATIONS
--------------------------------------------
   0 Ni:    0.086984    1.013722
   1 H :   -0.086984   -0.013722
Sum of atomic charges         :    0.0000000
Sum of atomic spin populations:    1.0000000

-----------------------------------------------------
MULLIKEN REDUCED ORBITAL CHARGES AND SPIN POPULATIONS
-----------------------------------------------------
CHARGE
  0 Nis       :     6.700193  s :     6.700193
      pz      :     4.134075  p :    12.136566
      px      :     4.001246
      py      :     4.001246
      dz2     :     1.081565  d :     9.073237
      dxz     :     1.995857
      dyz     :     1.995857
      dx2y2   :     1.999979
      dxy     :     1.999979
      f0      :     0.002421  f :     0.002868
      f+1     :     0.000084
      f-1     :     0.000084
      f+2     :     0.000139
      f-2     :     0.000139
      f+3     :     0.000000
      f-3     :     0.000000
      g0      :     0.000102  g :     0.000152
      g+1     :     0.000018
      g-1     :     0.000018
      g+2     :     0.000007
      g-2     :     0.000007
      g+3     :     0.000000
      g-3     :     0.000000
      g+4     :     0.000000
      g-4     :     0.000000
  1 H s       :     1.083060  s :     1.083060
      pz      :    -0.002229  p :     0.002905
      px      :     0.002567
      py      :     0.002567
      dz2     :     0.000812  d :     0.001019
      dxz     :     0.000229
      dyz     :     0.000229
      dx2y2   :    -0.000125
      dxy     :    -0.000125

SPIN
  0 Nis       :     0.198670  s :     0.198670
      pz      :    -0.005116  p :    -0.005348
      px      :    -0.000116
      py      :    -0.000116
      dz2     :     0.819787  d :     0.820524
      dxz     :     0.000334
      dyz     :     0.000334
      dx2y2   :     0.000034
      dxy     :     0.000034
      f0      :    -0.000133  f :    -0.000167
      f+1     :    -0.000008
      f-1     :    -0.000008
      f+2     :    -0.000009
      f-2     :    -0.000009
      f+3     :     0.000000
      f-3     :     0.000000
      g0      :     0.000042  g :     0.000044
      g+1     :     0.000007
      g-1     :     0.000007
      g+2     :    -0.000006
      g-2     :    -0.000006
      g+3     :    -0.000000
      g-3     :    -0.000000
      g+4     :     0.000000
      g-4     :     0.000000
  1 H s       :    -0.015015  s :    -0.015015
      pz      :     0.001188  p :     0.000815
      px      :    -0.000187
      py      :    -0.000187
      dz2     :     0.000577  d :     0.000478
      dxz     :    -0.000030
      dyz     :    -0.000030
      dx2y2   :    -0.000019
      dxy     :    -0.000019


                     *******************************
                     * LOEWDIN POPULATION ANALYSIS *
                     *******************************

-------------------------------------------
LOEWDIN ATOMIC CHARGES AND SPIN POPULATIONS
-------------------------------------------
   0 Ni:    0.561286    0.973669
   1 H :   -0.561286    0.026331

----------------------------------------------------
LOEWDIN REDUCED ORBITAL CHARGES AND SPIN POPULATIONS
----------------------------------------------------
CHARGE
  0 Nis       :     6.458961  s :     6.458961
      pz      :     4.118448  p :    12.050398
      px      :     3.965975
      py      :     3.965975
      dz2     :     1.087140  d :     8.913628
      dxz     :     1.924253
      dyz     :     1.924253
      dx2y2   :     1.988990
      dxy     :     1.988991
      f0      :     0.010725  f :     0.015357
      f+1     :     0.001920
      f-1     :     0.001920
      f+2     :     0.000396
      f-2     :     0.000396
      f+3     :     0.000000
      f-3     :     0.000000
      g0      :     0.000279  g :     0.000372
      g+1     :     0.000042
      g-1     :     0.000042
      g+2     :     0.000005
      g-2     :     0.000005
      g+3     :     0.000000
      g-3     :     0.000000
      g+4     :     0.000000
      g-4     :     0.000000
  1 H s       :     1.037609  s :     1.037609
      pz      :     0.163188  p :     0.256447
      px      :     0.046630
      py      :     0.046630
      dz2     :     0.123651  d :     0.267230
      dxz     :     0.061181
      dyz     :     0.061181
      dx2y2   :     0.010609
      dxy     :     0.010609

SPIN
  0 Nis       :     0.190990  s :     0.190990
      pz      :    -0.008025  p :    -0.009127
      px      :    -0.000551
      py      :    -0.000551
      dz2     :     0.787973  d :     0.792127
      dxz     :     0.001730
      dyz     :     0.001730
      dx2y2   :     0.000347
      dxy     :     0.000347
      f0      :    -0.000327  f :    -0.000375
      f+1     :    -0.000003
      f-1     :    -0.000003
      f+2     :    -0.000021
      f-2     :    -0.000021
      f+3     :     0.000000
      f-3     :     0.000000
      g0      :     0.000049  g :     0.000054
      g+1     :     0.000005
      g-1     :     0.000005
      g+2     :    -0.000003
      g-2     :    -0.000003
      g+3     :    -0.000000
      g-3     :    -0.000000
      g+4     :     0.000000
      g-4     :     0.000000
  1 H s       :     0.007074  s :     0.007074
      pz      :     0.018231  p :     0.016295
      px      :    -0.000968
      py      :    -0.000968
      dz2     :     0.004035  d :     0.002962
      dxz     :    -0.000213
      dyz     :    -0.000213
      dx2y2   :    -0.000323
      dxy     :    -0.000323


                      *****************************
                      * MAYER POPULATION ANALYSIS *
                      *****************************

  NA   - Mulliken gross atomic population
  ZA   - Total nuclear charge
  QA   - Mulliken gross atomic charge
  VA   - Mayer's total valence
  BVA  - Mayer's bonded valence
  FA   - Mayer's free valence

  ATOM       NA         ZA         QA         VA         BVA        FA
  0 Ni    27.9130    28.0000     0.0870     1.9559     1.0453     0.9106
  1 H      1.0870     1.0000    -0.0870     1.0491     1.0453     0.0039

  Mayer bond orders larger than 0.100000
B(  0-Ni,  1-H ) :   1.0453 

-------
TIMINGS
-------

Total SCF time: 0 days 0 hours 4 min 22 sec 

Total time                  ....     262.645 sec
Sum of individual times     ....     262.282 sec  ( 99.9%)

Fock matrix formation       ....     261.924 sec  ( 99.7%)
  XC integration            ....       0.433 sec  (  0.2% of F)
    Basis function eval.    ....       0.090 sec  ( 20.9% of XC)
    Density eval.           ....       0.041 sec  (  9.5% of XC)
    XC-Functional eval.     ....       0.021 sec  (  4.9% of XC)
    XC-Potential eval.      ....       0.096 sec  ( 22.3% of XC)
Diagonalization             ....       0.072 sec  (  0.0%)
Density matrix formation    ....       0.011 sec  (  0.0%)
Population analysis         ....       0.006 sec  (  0.0%)
Initial guess               ....       0.109 sec  (  0.0%)
Orbital Transformation      ....       0.000 sec  (  0.0%)
Orbital Orthonormalization  ....       0.000 sec  (  0.0%)
DIIS solution               ....       0.025 sec  (  0.0%)
Grid generation             ....       0.135 sec  (  0.1%)

-------------------------   --------------------
FINAL SINGLE POINT ENERGY     -1508.748673982275
-------------------------   --------------------


                            ***************************************
                            *     ORCA property calculations      *
                            ***************************************

                                    ---------------------
                                    Active property flags
                                    ---------------------
   (+) Dipole Moment


------------------------------------------------------------------------------
                       ORCA ELECTRIC PROPERTIES CALCULATION
------------------------------------------------------------------------------

Dipole Moment Calculation                       ... on
Quadrupole Moment Calculation                   ... off
Polarizability Calculation                      ... off
GBWName                                         ... 43_NiH.gbw
Electron density file                           ... 43_NiH.scfp
The origin for moment calculation is the CENTER OF MASS  = ( 0.000000,  0.000000  0.526478)

-------------
DIPOLE MOMENT
-------------
                                X             Y             Z
Electronic contribution:      0.00000       0.00000      -2.73493
Nuclear contribution   :      0.00000       0.00000       1.44028
                        -----------------------------------------
Total Dipole Moment    :      0.00000       0.00000      -1.29465
                        -----------------------------------------
Magnitude (a.u.)       :      1.29465
Magnitude (Debye)      :      3.29073



--------------------
Rotational spectrum 
--------------------
 
Rotational constants in cm-1:     0.000000     7.629300     7.629300 
Rotational constants in MHz :     0.000000 228720.664008 228720.664008 

 Dipole components along the rotational axes: 
x,y,z [a.u.] :    -1.294647     0.000000     0.000000 
x,y,z [Debye]:    -3.290731     0.000000     0.000000 

 

Timings for individual modules:

Sum of individual times         ...      266.083 sec (=   4.435 min)
GTO integral calculation        ...        2.895 sec (=   0.048 min)   1.1 %
SCF iterations                  ...      263.188 sec (=   4.386 min)  98.9 %
                             ****ORCA TERMINATED NORMALLY****
TOTAL RUN TIME: 0 days 0 hours 4 minutes 26 seconds 694 msec
