
                                 *****************
                                 * O   R   C   A *
                                 *****************

           --- An Ab Initio, DFT and Semiempirical electronic structure package ---

                  #######################################################
                  #                        -***-                        #
                  #          Department of theory and spectroscopy      #
                  #               Directorship: Frank Neese             #
                  #        Max Planck Institute fuer Kohlenforschung    #
                  #                Kaiser Wilhelm Platz 1               #
                  #                 D-45470 Muelheim/Ruhr               #
                  #                      Germany                        #
                  #                                                     #
                  #                  All rights reserved                #
                  #                        -***-                        #
                  #######################################################


                         Program Version 4.2.0 -  RELEASE  -


 With contributions from (in alphabetic order):
   Daniel Aravena         : Magnetic Suceptibility
   Michael Atanasov       : Ab Initio Ligand Field Theory (pilot matlab implementation)
   Alexander A. Auer      : GIAO ZORA, VPT2
   Ute Becker             : Parallelization
   Giovanni Bistoni       : ED, misc. LED, open-shell LED, HFLED
   Martin Brehm           : Molecular dynamics
   Dmytro Bykov           : SCF Hessian
   Vijay G. Chilkuri      : MRCI spin determinant printing, contributions to CSF-ICE
   Dipayan Datta          : RHF DLPNO-CCSD density
   Achintya Kumar Dutta   : EOM-CC, STEOM-CC
   Dmitry Ganyushin       : Spin-Orbit,Spin-Spin,Magnetic field MRCI
   Miquel Garcia          : C-PCM Hessian, Gaussian charge scheme
   Yang Guo               : DLPNO-NEVPT2, CIM, IAO-localization
   Andreas Hansen         : Spin unrestricted coupled pair/coupled cluster methods
   Benjamin Helmich-Paris : CASSCF linear response (MC-RPA)
   Lee Huntington         : MR-EOM, pCC
   Robert Izsak           : Overlap fitted RIJCOSX, COSX-SCS-MP3, EOM
   Christian Kollmar      : KDIIS, OOCD, Brueckner-CCSD(T), CCSD density
   Simone Kossmann        : Meta GGA functionals, TD-DFT gradient, OOMP2, MP2 Hessian
   Martin Krupicka        : AUTO-CI
   Lucas Lang             : DCDCAS
   Dagmar Lenk            : GEPOL surface, SMD
   Dimitrios Liakos       : Extrapolation schemes; Compound Job, initial MDCI parallelization
   Dimitrios Manganas     : Further ROCIS development; embedding schemes
   Dimitrios Pantazis     : SARC Basis sets
   Taras Petrenko         : DFT Hessian,TD-DFT gradient, ASA, ECA, R-Raman, ABS, FL, XAS/XES, NRVS
   Peter Pinski           : DLPNO-MP2, DLPNO-MP2 Gradient
   Christoph Reimann      : Effective Core Potentials
   Marius Retegan         : Local ZFS, SOC
   Christoph Riplinger    : Optimizer, TS searches, QM/MM, DLPNO-CCSD(T), (RO)-DLPNO pert. Triples
   Tobias Risthaus        : Range-separated hybrids, TD-DFT gradient, RPA, STAB
   Michael Roemelt        : Original ROCIS implementation
   Masaaki Saitow         : Open-shell DLPNO-CCSD energy and density
   Barbara Sandhoefer     : DKH picture change effects
   Avijit Sen             : IP-ROCIS
   Kantharuban Sivalingam : CASSCF convergence, NEVPT2, FIC-MRCI
   Bernardo de Souza      : ESD, SOC TD-DFT
   Georgi Stoychev        : AutoAux, RI-MP2 NMR
   Willem Van den Heuvel  : Paramagnetic NMR
   Boris Wezisla          : Elementary symmetry handling
   Frank Wennmohs         : Technical directorship


 We gratefully acknowledge several colleagues who have allowed us to
 interface, adapt or use parts of their codes:
   Stefan Grimme, W. Hujo, H. Kruse,             : VdW corrections, initial TS optimization,
                  C. Bannwarth                     DFT functionals, gCP, sTDA/sTD-DF
   Ed Valeev, F. Pavosevic, A. Kumar             : LibInt (2-el integral package), F12 methods
   Garnet Chan, S. Sharma, J. Yang, R. Olivares  : DMRG
   Ulf Ekstrom                                   : XCFun DFT Library
   Mihaly Kallay                                 : mrcc  (arbitrary order and MRCC methods)
   Andreas Klamt, Michael Diedenhofen            : otool_cosmo (COSMO solvation model)
   Jiri Pittner, Ondrej Demel                    : Mk-CCSD
   Frank Weinhold                                : gennbo (NPA and NBO analysis)
   Christopher J. Cramer and Donald G. Truhlar   : smd solvation model
   Lars Goerigk                                  : TD-DFT with DH, B97 family of functionals
   V. Asgeirsson, H. Jonsson                     : NEB implementation
   FAccTs GmbH                                   : IRC, NEB, NEB-TS, Multilevel, MM, QM/MM, CI optimization
   S Lehtola, MJT Oliveira, MAL Marques          : LibXC Library


 Your calculation uses the libint2 library for the computation of 2-el integrals
 For citations please refer to: http://libint.valeyev.net

 Your ORCA version has been built with support for libXC version: 4.2.3
 For citations please refer to: https://tddft.org/programs/libxc/

 This ORCA versions uses:
   CBLAS   interface :  Fast vector & matrix operations
   LAPACKE interface :  Fast linear algebra routines
   SCALAPACK package :  Parallel linear algebra routines


Your calculation utilizes the DFT-NL dispersion correction.
Cite in your paper:
Vydrov, O. A.; Van Voorhis, T. J. Chem. Phys. 2010, 133, 244103
Hujo, W.; Grimme, S. J. Chem. Theory Comput. 2011, 7, 3866 
   

----- Orbital basis set information -----
Your calculation utilizes the basis: aug-cc-pVTZ 
    H, B-Ne : Obtained from the ccRepo (grant-hill.group.shef.ac.uk/ccrepo) Feb. 2017
              R. A. Kendall, T. H. Dunning, Jr., R. J. Harrison, J. Chem. Phys. 96, 6796 (1992)
         He : Obtained from the ccRepo (grant-hill.group.shef.ac.uk/ccrepo) Feb. 2017
              D. E. Woon, T. H. Dunning, Jr., J. Chem. Phys. 100, 2975 (1994)
  Li-Be, Na : Obtained from the ccRepo (grant-hill.group.shef.ac.uk/ccrepo) Feb. 2017
              B. P. Prascher, D. E. Woon, K. A. Peterson, T. H. Dunning, Jr., A. K. Wilson, Theor. Chem. Acc. 128, 69 (2011)
         Mg : Obtained from the Peterson Research Group Website (tyr0.chem.wsu.edu/~kipeters) Feb. 2017
              B. P. Prascher, D. E. Woon, K. A. Peterson, T. H. Dunning, Jr., A. K. Wilson, Theor. Chem. Acc. 128, 69 (2011)
      Al-Ar : Obtained from the ccRepo (grant-hill.group.shef.ac.uk/ccrepo) Feb. 2017
              D. E. Woon, T. H. Dunning, Jr., J. Chem. Phys. 98, 1358 (1993)
      Sc-Zn : Obtained from the ccRepo (grant-hill.group.shef.ac.uk/ccrepo) Feb. 2017
              N. B. Balabanov, K. A. Peterson, J. Chem. Phys. 123, 064107 (2005)
              N. B. Balabanov, K. A. Peterson, J. Chem. Phys. 125, 074110 (2006)
      Ga-Kr : Obtained from the ccRepo (grant-hill.group.shef.ac.uk/ccrepo) Feb. 2017
              A. K. Wilson, D. E. Woon, K. A. Peterson, T. H. Dunning, Jr., J. Chem. Phys. 110, 7667 (1999)
     Ag, Au : Obtained from the Peterson Research Group Website (tyr0.chem.wsu.edu/~kipeters) Feb. 2017
              K. A. Peterson, C. Puzzarini, Theor. Chem. Acc. 114, 283 (2005)

----- AuxJK basis set information -----
Your calculation utilizes the auxiliary basis: def2/JK
   H-Ba, Hf-Rn: F. Weigend, J. Comput. Chem. 29, 167 (2008).

================================================================================
                                        WARNINGS
                       Please study these warnings very carefully!
================================================================================


WARNING: your system is open-shell and RHF/RKS was chosen
  ===> : WILL SWITCH to UHF/UKS


INFO   : the flag for use of LIBINT has been found!

================================================================================
                                       INPUT FILE
================================================================================
NAME = 44_NiF.in
|  1> #
|  2> # 44_NiF wb97x-v/aug-cc-pvtz
|  3> #
|  4> ! wb97x-v aug-cc-pvtz def2/jk grid4 nofinalgrid
|  5> 
|  6> *xyz 0 2
|  7>   Ni  0.00000000000000      0.00000000000000      0.12374716283349
|  8>   F   0.00000000000000      0.00000000000000      1.87625283716651
|  9> *
| 10> 
| 11> %pal
| 12> nprocs 24
| 13> end
| 14> 
| 15> 
| 16>                          ****END OF INPUT****
================================================================================

                       ****************************
                       * Single Point Calculation *
                       ****************************

---------------------------------
CARTESIAN COORDINATES (ANGSTROEM)
---------------------------------
  Ni     0.000000    0.000000    0.123747
  F      0.000000    0.000000    1.876253

----------------------------
CARTESIAN COORDINATES (A.U.)
----------------------------
  NO LB      ZA    FRAG     MASS         X           Y           Z
   0 Ni   28.0000    0    58.700    0.000000    0.000000    0.233848
   1 F     9.0000    0    18.998    0.000000    0.000000    3.545604

--------------------------------
INTERNAL COORDINATES (ANGSTROEM)
--------------------------------
 Ni     0   0   0     0.000000000000     0.00000000     0.00000000
 F      1   0   0     1.752505674333     0.00000000     0.00000000

---------------------------
INTERNAL COORDINATES (A.U.)
---------------------------
 Ni     0   0   0     0.000000000000     0.00000000     0.00000000
 F      1   0   0     3.311755772632     0.00000000     0.00000000

---------------------
BASIS SET INFORMATION
---------------------
There are 2 groups of distinct atoms

 Group   1 Type Ni  : 116s77p23d3f2g contracted to 8s7p5d3f2g pattern {19191919191911/151515151511/77711/111/11}
 Group   2 Type F   : 19s6p3d2f contracted to 5s4p3d2f pattern {88111/3111/111/11}

Atom   0Ni   basis set group =>   1
Atom   1F    basis set group =>   2
----------------------------------
AUXILIARY/JK BASIS SET INFORMATION
----------------------------------
There are 2 groups of distinct atoms

 Group   1 Type Ni  : 19s14p12d10f7g3h1i contracted to 16s13p11d9f5g3h1i pattern {4111111111111111/2111111111111/21111111111/211111111/31111/111/1}
 Group   2 Type F   : 14s10p6d2f1g contracted to 10s8p4d2f1g pattern {5111111111/31111111/3111/11/1}

Atom   0Ni   basis set group =>   1
Atom   1F    basis set group =>   2


           ************************************************************
           *        Program running with 24 parallel MPI-processes    *
           *              working on a common directory               *
           ************************************************************
------------------------------------------------------------------------------
                           ORCA GTO INTEGRAL CALCULATION
------------------------------------------------------------------------------

                         BASIS SET STATISTICS AND STARTUP INFO

 # of primitive gaussian shells          ...  251
 # of primitive gaussian functions       ...  567
 # of contracted shells                  ...   39
 # of contracted basis functions         ...  139
 Highest angular momentum                ...    4
 Maximum contraction depth               ...   19
 Integral package used                   ... LIBINT
 Integral threshhold            Thresh   ...  1.000e-10
 Primitive cut-off              TCut     ...  1.000e-11


------------------------------ INTEGRAL EVALUATION ----------------------------


 * One electron integrals 
 Pre-screening matrix                    ... done
 Shell pair data                         ... done (   0.001 sec)



           ************************************************************
           *        Program running with 24 parallel MPI-processes    *
           *              working on a common directory               *
           ************************************************************
-------------------------------------------------------------------------------
                                 ORCA SCF
-------------------------------------------------------------------------------

------------
SCF SETTINGS
------------
Hamiltonian:
 Density Functional     Method          .... DFT(GTOs)
 Exchange Functional    Exchange        .... WB97X-V
 Correlation Functional Correlation     .... WB97X-V
 Gradients option       PostSCFGGA      .... off
 Hybrid DFT is turned on
   Fraction HF Exchange ScalHFX         ....  0.167000
   Scaling of DF-GGA-X  ScalDFX         ....  0.000000
   Scaling of DF-GGA-C  ScalDFC         ....  1.000000
   Scaling of DF-LDA-C  ScalLDAC        ....  1.000000
   Perturbative correction              ....  0.000000
   Density functional embedding theory  .... OFF
 Long-range corrected/Screened/Range-Separated Hybrid DFT is turned on
   Amount of maximum screened exact exchange              ....  0.833000
   Range separation parameter mu (erf(mu*r12)/r12)        ....  0.300000
   NL short-range parameter             ....  6.000000
   NL long-range parameter              ....  0.010000


General Settings:
 Integral files         IntName         .... 44_NiF
 Hartree-Fock type      HFTyp           .... UHF
 Total Charge           Charge          ....    0
 Multiplicity           Mult            ....    2
 Number of Electrons    NEL             ....   37
 Basis Dimension        Dim             ....  139
 Nuclear Repulsion      ENuc            ....     76.0925675989 Eh

Convergence Acceleration:
 DIIS                   CNVDIIS         .... on
   Start iteration      DIISMaxIt       ....    12
   Startup error        DIISStart       ....  0.200000
   # of expansion vecs  DIISMaxEq       ....     5
   Bias factor          DIISBfac        ....   1.050
   Max. coefficient     DIISMaxC        ....  10.000
 Newton-Raphson         CNVNR           .... off
 SOSCF                  CNVSOSCF        .... off
 Level Shifting         CNVShift        .... on
   Level shift para.    LevelShift      ....    0.2500
   Turn off err/grad.   ShiftErr        ....    0.0010
 Zerner damping         CNVZerner       .... off
 Static damping         CNVDamp         .... on
   Fraction old density DampFac         ....    0.7000
   Max. Damping (<1)    DampMax         ....    0.9800
   Min. Damping (>=0)   DampMin         ....    0.0000
   Turn off err/grad.   DampErr         ....    0.1000
 Fernandez-Rico         CNVRico         .... off

SCF Procedure:
 Maximum # iterations   MaxIter         ....   125
 SCF integral mode      SCFMode         .... Direct
   Integral package                     .... LIBINT
 Reset frequency        DirectResetFreq ....    20
 Integral Threshold     Thresh          ....  1.000e-10 Eh
 Primitive CutOff       TCut            ....  1.000e-11 Eh

Convergence Tolerance:
 Convergence Check Mode ConvCheckMode   .... Total+1el-Energy
 Convergence forced     ConvForced      .... 0
 Energy Change          TolE            ....  1.000e-06 Eh
 1-El. energy change                    ....  1.000e-03 Eh
 DIIS Error             TolErr          ....  1.000e-06


Diagonalization of the overlap matrix:
Smallest eigenvalue                        ... 2.518e-04
Time for diagonalization                   ...    0.006 sec
Threshold for overlap eigenvalues          ... 1.000e-08
Number of eigenvalues below threshold      ... 0
Time for construction of square roots      ...    0.002 sec
Total time needed                          ...    0.008 sec

-------------------
DFT GRID GENERATION
-------------------

General Integration Accuracy     IntAcc      ...  4.670
Radial Grid Type                 RadialGrid  ... Gauss-Chebyshev
Angular Grid (max. acc.)         AngularGrid ... Lebedev-302
Angular grid pruning method      GridPruning ... 3 (G Style)
Weight generation scheme         WeightScheme... Becke
Basis function cutoff            BFCut       ...    1.0000e-10
Integration weight cutoff        WCut        ...    1.0000e-14
Grids for H and He will be reduced by one unit

# of grid points (after initial pruning)     ...  15936 (   0.0 sec)
# of grid points (after weights+screening)   ...  15888 (   0.0 sec)
nearest neighbour list constructed           ...    0.0 sec
Grid point re-assignment to atoms done       ...    0.0 sec
Grid point division into batches done        ...    0.1 sec
Reduced shell lists constructed in    0.1 sec

Total number of grid points                  ...    15888
Total number of batches                      ...      249
Average number of points per batch           ...       63
Average number of grid points per atom       ...     7944
Average number of shells per batch           ...    14.83 (38.03%)
Average number of basis functions per batch  ...    34.83 (25.06%)
Average number of large shells per batch     ...     7.75 (52.25%)
Average number of large basis fcns per batch ...    17.75 (50.96%)
Maximum spatial batch extension              ...  22.45, 22.17, 15.82 au
Average spatial batch extension              ...   0.80,  0.79,  0.61 au

Time for grid setup =    0.152 sec

------------------------------
INITIAL GUESS: MODEL POTENTIAL
------------------------------
Loading Hartree-Fock densities                     ... done
Calculating cut-offs                               ... done
Setting up the integral package                    ... done
Initializing the effective Hamiltonian             ... done
Starting the Coulomb interaction                   ... done (   0.0 sec)
Reading the grid                                   ... done
Mapping shells                                     ... done
Starting the XC term evaluation                    ... done (   0.0 sec)
  promolecular density results
     # of electrons  =     37.000032960
     EX              =    -54.306188880
     EC              =     -2.117800300
     EX+EC           =    -56.423989181
Transforming the Hamiltonian                       ... done (   0.0 sec)
Diagonalizing the Hamiltonian                      ... done (   0.0 sec)
Back transforming the eigenvectors                 ... done (   0.0 sec)
Now organizing SCF variables                       ... done
                      ------------------
                      INITIAL GUESS DONE (   0.2 sec)
                      ------------------
--------------
SCF ITERATIONS
--------------
ITER       Energy         Delta-E        Max-DP      RMS-DP      [F,P]     Damp
               ***  Starting incremental Fock matrix formation  ***
  0  -1602.7135487175   0.000000000000 0.22176590  0.00585451  2.3476457 0.7000
  1  -1605.6629253809  -2.949376663402 0.16876449  0.00291665  0.7550444 0.7000
  2  -1606.4368886907  -0.773963309782 0.12725901  0.00248752  0.5133175 0.7000
  3  -1606.9570226672  -0.520133976500 0.08118148  0.00172070  0.3867730 0.7000
  4  -1607.3183731143  -0.361350447175 0.05697847  0.00116377  0.2283100 0.7000
                               ***Turning on DIIS***
  5  -1607.5709464952  -0.252573380815 0.04088539  0.00084555  0.1351426 0.7000
  6  -1607.7516111275  -0.180664632362 0.11135095  0.00236490  0.0860692 0.0000
  7  -1608.1944063820  -0.442795254440 0.02481387  0.00040064  0.0302140 0.0000
  8  -1608.1977676586  -0.003361276670 0.00794580  0.00012168  0.0307085 0.0000
  9  -1608.1995154468  -0.001747788141 0.01045085  0.00015146  0.0123888 0.0000
 10  -1608.2006080198  -0.001092573060 0.00719580  0.00011128  0.0091489 0.0000
 11  -1608.2012060704  -0.000598050600 0.00626273  0.00009235  0.0065351 0.0000
 12  -1608.2015619290  -0.000355858600 0.00616708  0.00007648  0.0034459 0.0000
 13  -1608.2017272966  -0.000165367563 0.00502091  0.00005320  0.0022581 0.0000
 14  -1608.2017986093  -0.000071312713 0.00368950  0.00003825  0.0013437 0.0000
 15  -1608.2018379376  -0.000039328307 0.00451209  0.00004863  0.0009517 0.0000
 16  -1608.2018784559  -0.000040518320 0.00293756  0.00003588  0.0004759 0.0000
 17  -1608.2019048050  -0.000026349039 0.00214836  0.00002664  0.0004567 0.0000
 18  -1608.2019218016  -0.000016996674 0.00175197  0.00002385  0.0002370 0.0000
 19  -1608.2019354581  -0.000013656412 0.00153728  0.00002090  0.0002845 0.0000
               *** Restarting incremental Fock matrix formation ***
                                   *** Resetting DIIS ***
 20  -1608.2019461463  -0.000010688228 0.00109645  0.00001500  0.0002519 0.0000
 21  -1608.2019530751  -0.000006928855 0.00060115  0.00000733  0.0002437 0.0000
 22  -1608.2019561582  -0.000003083071 0.00152784  0.00001986  0.0002840 0.0000
 23  -1608.2019640863  -0.000007928065 0.00305766  0.00003928  0.0002425 0.0000
 24  -1608.2019767726  -0.000012686348 0.00620586  0.00007839  0.0002178 0.0000
 25  -1608.2019902249  -0.000013452234 0.00334296  0.00004156  0.0002213 0.0000
 26  -1608.2019909592  -0.000000734324 0.00142298  0.00001724  0.0000372 0.0000
 27  -1608.2019899568   0.000001002413 0.00036713  0.00000470  0.0000327 0.0000
 28  -1608.2019903203  -0.000000363500 0.00060320  0.00000766  0.0000301 0.0000
                 **** Energy Check signals convergence ****

               *****************************************************
               *                     SUCCESS                       *
               *           SCF CONVERGED AFTER  29 CYCLES          *
               *****************************************************


Setting up the DFT-NL grid :

General Integration Accuracy     IntAcc      ...  4.340
Radial Grid Type                 RadialGrid  ... Gauss-Chebyshev
Angular Grid (max. acc.)         AngularGrid ... Lebedev-110
Angular grid pruning method      GridPruning ... 3 (G Style)
Weight generation scheme         WeightScheme... Becke
Basis function cutoff            BFCut       ...    1.0000e-10
Integration weight cutoff        WCut        ...    1.0000e-14
Grids for H and He will be reduced by one unit

# of grid points (after initial pruning)     ...   4652 (   0.0 sec)
# of grid points (after weights+screening)   ...   4627 (   0.0 sec)
nearest neighbour list constructed           ...    0.0 sec
Grid point re-assignment to atoms done       ...    0.0 sec
Grid point division into batches done        ...    0.0 sec
Reduced shell lists constructed in    0.0 sec

Total number of grid points                  ...     4627
Total number of batches                      ...       73
Average number of points per batch           ...       63
Average number of grid points per atom       ...     2314
Average number of shells per batch           ...    20.80 (53.33%)
Average number of basis functions per batch  ...    59.20 (42.59%)
Average number of large shells per batch     ...    13.60 (65.38%)
Average number of large basis fcns per batch ...    35.20 (59.46%)
Maximum spatial batch extension              ...  17.39, 26.34, 14.81 au
Average spatial batch extension              ...   0.92,  1.21,  0.81 au

Final grid set up in    0.0 sec

-------------------------------------------------------------------------------
                         DFT-NL dispersion correction                          
-------------------------------------------------------------------------------

SC Energy -1608.201990781 
NL    Energy 0.156831590 
SC+NL Energy -1608.045159191 
NL done in    0.0 sec
-------------------------------------------------------------------------------

----------------
TOTAL SCF ENERGY
----------------

Total Energy       :        -1608.04515919 Eh          -43757.13335 eV

Components:
Nuclear Repulsion  :           76.09256760 Eh            2070.58403 eV
Electronic Energy  :        -1684.13772679 Eh          -45827.71738 eV
One Electron Energy:        -2389.29441807 Eh          -65016.00647 eV
Two Electron Energy:          705.15669128 Eh           19188.28908 eV

Virial components:
Potential Energy   :        -3213.87008231 Eh          -87453.85101 eV
Kinetic Energy     :         1605.82492312 Eh           43696.71766 eV
Virial Ratio       :            2.00138261


DFT components:
N(Alpha)           :       19.000018060701 electrons
N(Beta)            :       18.000017537919 electrons
N(Total)           :       37.000035598620 electrons
E(X)               :      -54.534934105937 Eh       
E(C)               :       -2.128667431495 Eh       
NL Energy, E(C,NL) :        0.156831590151 Eh       
E(XC)              :      -56.506769947281 Eh       
DFET-embed. en.    :        0.000000000000 Eh       

---------------
SCF CONVERGENCE
---------------

  Last Energy change         ...   -4.6066e-07  Tolerance :   1.0000e-06
  Last MAX-Density change    ...    2.9520e-04  Tolerance :   1.0000e-05
  Last RMS-Density change    ...    3.7584e-06  Tolerance :   1.0000e-06
  Last DIIS Error            ...    3.0651e-05  Tolerance :   1.0000e-06

             **** THE GBW FILE WAS UPDATED (44_NiF.gbw) ****
             **** DENSITY FILE WAS UPDATED (44_NiF.scfp) ****
             **** ENERGY FILE WAS UPDATED (44_NiF.en.tmp) ****
----------------------
UHF SPIN CONTAMINATION
----------------------

Warning: in a DFT calculation there is little theoretical justification to 
         calculate <S**2> as in Hartree-Fock theory. We will do it anyways
         but you should keep in mind that the values have only limited relevance

Expectation value of <S**2>     :     0.787543
Ideal value S*(S+1) for S=0.5   :     0.750000
Deviation                       :     0.037543

             **** THE GBW FILE WAS UPDATED (44_NiF.gbw) ****
             **** DENSITY FILE WAS UPDATED (44_NiF.scfp) ****
----------------
ORBITAL ENERGIES
----------------
                 SPIN UP ORBITALS
  NO   OCC          E(Eh)            E(eV) 
   0   1.0000    -299.691770     -8155.0277 
   1   1.0000     -35.802939      -974.2475 
   2   1.0000     -31.229570      -849.7998 
   3   1.0000     -31.227361      -849.7397 
   4   1.0000     -31.197391      -848.9242 
   5   1.0000     -24.664713      -671.1610 
   6   1.0000      -4.140705      -112.6743 
   7   1.0000      -2.757922       -75.0469 
   8   1.0000      -2.748708       -74.7962 
   9   1.0000      -2.689566       -73.1868 
  10   1.0000      -1.191625       -32.4258 
  11   1.0000      -0.506701       -13.7880 
  12   1.0000      -0.491328       -13.3697 
  13   1.0000      -0.465626       -12.6703 
  14   1.0000      -0.411692       -11.2027 
  15   1.0000      -0.396894       -10.8000 
  16   1.0000      -0.392508       -10.6807 
  17   1.0000      -0.371521       -10.1096 
  18   1.0000      -0.365847        -9.9552 
  19   0.0000      -0.040378        -1.0987 
  20   0.0000       0.025811         0.7023 
  21   0.0000       0.027514         0.7487 
  22   0.0000       0.029970         0.8155 
  23   0.0000       0.042101         1.1456 
  24   0.0000       0.083990         2.2855 
  25   0.0000       0.087823         2.3898 
  26   0.0000       0.111449         3.0327 
  27   0.0000       0.125117         3.4046 
  28   0.0000       0.125171         3.4061 
  29   0.0000       0.127581         3.4717 
  30   0.0000       0.129610         3.5269 
  31   0.0000       0.149166         4.0590 
  32   0.0000       0.182047         4.9538 
  33   0.0000       0.279018         7.5925 
  34   0.0000       0.286914         7.8073 
  35   0.0000       0.293499         7.9865 
  36   0.0000       0.324984         8.8433 
  37   0.0000       0.326337         8.8801 
  38   0.0000       0.350088         9.5264 
  39   0.0000       0.437731        11.9113 
  40   0.0000       0.437917        11.9163 
  41   0.0000       0.452483        12.3127 
  42   0.0000       0.459628        12.5071 
  43   0.0000       0.479813        13.0564 
  44   0.0000       0.619633        16.8611 
  45   0.0000       0.734865        19.9967 
  46   0.0000       0.891867        24.2689 
  47   0.0000       0.891921        24.2704 
  48   0.0000       0.959786        26.1171 
  49   0.0000       0.973426        26.4883 
  50   0.0000       1.004411        27.3314 
  51   0.0000       1.076409        29.2906 
  52   0.0000       1.085997        29.5515 
  53   0.0000       1.177707        32.0470 
  54   0.0000       1.201221        32.6869 
  55   0.0000       1.206698        32.8359 
  56   0.0000       1.371467        37.3195 
  57   0.0000       1.371481        37.3199 
  58   0.0000       1.437414        39.1140 
  59   0.0000       1.453746        39.5584 
  60   0.0000       1.454881        39.5893 
  61   0.0000       1.475304        40.1451 
  62   0.0000       1.494674        40.6722 
  63   0.0000       1.532038        41.6889 
  64   0.0000       1.532126        41.6913 
  65   0.0000       1.629253        44.3342 
  66   0.0000       1.797654        48.9167 
  67   0.0000       1.843997        50.1777 
  68   0.0000       1.858295        50.5668 
  69   0.0000       2.451903        66.7197 
  70   0.0000       2.732381        74.3519 
  71   0.0000       2.732402        74.3525 
  72   0.0000       2.821127        76.7668 
  73   0.0000       2.824283        76.8527 
  74   0.0000       2.824294        76.8530 
  75   0.0000       2.826298        76.9075 
  76   0.0000       2.959236        80.5249 
  77   0.0000       2.959250        80.5253 
  78   0.0000       3.059207        83.2453 
  79   0.0000       3.389640        92.2368 
  80   0.0000       3.398194        92.4696 
  81   0.0000       3.662234        99.6544 
  82   0.0000       3.735011       101.6348 
  83   0.0000       3.967073       107.9496 
  84   0.0000       3.967862       107.9710 
  85   0.0000       3.997646       108.7815 
  86   0.0000       3.998059       108.7927 
  87   0.0000       4.030565       109.6772 
  88   0.0000       4.068515       110.7099 
  89   0.0000       4.086347       111.1952 
  90   0.0000       4.121536       112.1527 
  91   0.0000       4.400349       119.7396 
  92   0.0000       4.482368       121.9714 
  93   0.0000       4.985748       135.6691 
  94   0.0000       5.003507       136.1523 
  95   0.0000       5.007788       136.2688 
  96   0.0000       5.148087       140.0866 
  97   0.0000       5.148088       140.0866 
  98   0.0000       5.160385       140.4212 
  99   0.0000       5.160408       140.4219 
 100   0.0000       5.227616       142.2507 
 101   0.0000       5.228118       142.2643 
 102   0.0000       5.425564       147.6371 
 103   0.0000       5.455846       148.4611 
 104   0.0000       5.724737       155.7780 
 105   0.0000       5.769477       156.9954 
 106   0.0000       5.770770       157.0306 
 107   0.0000       6.060144       164.9049 
 108   0.0000       6.104167       166.1028 
 109   0.0000       7.092399       192.9940 
 110   0.0000       8.480160       230.7569 
 111   0.0000       8.480161       230.7569 
 112   0.0000       8.567250       233.1267 
 113   0.0000       8.567286       233.1277 
 114   0.0000       8.871877       241.4161 
 115   0.0000       8.894530       242.0325 
 116   0.0000       8.897694       242.1186 
 117   0.0000       8.898247       242.1336 
 118   0.0000       8.898442       242.1389 
 119   0.0000       9.011098       245.2044 
 120   0.0000       9.015617       245.3274 
 121   0.0000       9.329524       253.8692 
 122   0.0000      12.525601       340.8389 
 123   0.0000      12.533917       341.0652 
 124   0.0000      12.542782       341.3065 
 125   0.0000      12.543026       341.3131 
 126   0.0000      12.571235       342.0807 
 127   0.0000      12.629554       343.6676 
 128   0.0000      12.633370       343.7715 
 129   0.0000      13.593155       369.8886 
 130   0.0000      14.082580       383.2065 
 131   0.0000      14.082717       383.2102 
 132   0.0000      14.111125       383.9832 
 133   0.0000      14.111132       383.9834 
 134   0.0000      14.117519       384.1572 
 135   0.0000      14.118516       384.1844 
 136   0.0000      14.287285       388.7768 
 137   0.0000      14.337071       390.1315 
 138   0.0000      14.630779       398.1237 

                 SPIN DOWN ORBITALS
  NO   OCC          E(Eh)            E(eV) 
   0   1.0000    -299.691635     -8155.0240 
   1   1.0000     -35.778791      -973.5904 
   2   1.0000     -31.203491      -849.0902 
   3   1.0000     -31.203265      -849.0840 
   4   1.0000     -31.189460      -848.7084 
   5   1.0000     -24.662937      -671.1126 
   6   1.0000      -4.088390      -111.2507 
   7   1.0000      -2.682276       -72.9884 
   8   1.0000      -2.678763       -72.8928 
   9   1.0000      -2.665582       -72.5342 
  10   1.0000      -1.186776       -32.2938 
  11   1.0000      -0.494961       -13.4686 
  12   1.0000      -0.458800       -12.4846 
  13   1.0000      -0.444282       -12.0895 
  14   1.0000      -0.375371       -10.2144 
  15   1.0000      -0.365288        -9.9400 
  16   1.0000      -0.349379        -9.5071 
  17   1.0000      -0.330605        -8.9962 
  18   0.0000      -0.033482        -0.9111 
  19   0.0000       0.017812         0.4847 
  20   0.0000       0.025545         0.6951 
  21   0.0000       0.030217         0.8223 
  22   0.0000       0.038598         1.0503 
  23   0.0000       0.041462         1.1282 
  24   0.0000       0.085541         2.3277 
  25   0.0000       0.089729         2.4417 
  26   0.0000       0.111824         3.0429 
  27   0.0000       0.123865         3.3705 
  28   0.0000       0.124094         3.3768 
  29   0.0000       0.127082         3.4581 
  30   0.0000       0.127932         3.4812 
  31   0.0000       0.148946         4.0530 
  32   0.0000       0.181997         4.9524 
  33   0.0000       0.280962         7.6454 
  34   0.0000       0.283321         7.7096 
  35   0.0000       0.294110         8.0032 
  36   0.0000       0.325484         8.8569 
  37   0.0000       0.326184         8.8759 
  38   0.0000       0.352778         9.5996 
  39   0.0000       0.441021        12.0008 
  40   0.0000       0.441351        12.0098 
  41   0.0000       0.462455        12.5840 
  42   0.0000       0.467038        12.7088 
  43   0.0000       0.480849        13.0846 
  44   0.0000       0.624033        16.9808 
  45   0.0000       0.740726        20.1562 
  46   0.0000       0.892219        24.2785 
  47   0.0000       0.892247        24.2793 
  48   0.0000       0.970769        26.4160 
  49   0.0000       0.975029        26.5319 
  50   0.0000       1.010662        27.5015 
  51   0.0000       1.082460        29.4552 
  52   0.0000       1.085770        29.5453 
  53   0.0000       1.184016        32.2187 
  54   0.0000       1.206045        32.8182 
  55   0.0000       1.207158        32.8484 
  56   0.0000       1.368016        37.2256 
  57   0.0000       1.368108        37.2281 
  58   0.0000       1.441608        39.2281 
  59   0.0000       1.458979        39.7008 
  60   0.0000       1.459533        39.7159 
  61   0.0000       1.499097        40.7925 
  62   0.0000       1.508850        41.0579 
  63   0.0000       1.539178        41.8832 
  64   0.0000       1.539606        41.8948 
  65   0.0000       1.635986        44.5174 
  66   0.0000       1.801793        49.0293 
  67   0.0000       1.860005        50.6133 
  68   0.0000       1.861706        50.6596 
  69   0.0000       2.455812        66.8260 
  70   0.0000       2.734482        74.4090 
  71   0.0000       2.734503        74.4096 
  72   0.0000       2.824725        76.8647 
  73   0.0000       2.824832        76.8676 
  74   0.0000       2.825102        76.8749 
  75   0.0000       2.827162        76.9310 
  76   0.0000       2.960754        80.5662 
  77   0.0000       2.960782        80.5670 
  78   0.0000       3.066024        83.4307 
  79   0.0000       3.395787        92.4041 
  80   0.0000       3.398900        92.4888 
  81   0.0000       3.684359       100.2565 
  82   0.0000       3.753574       102.1399 
  83   0.0000       3.978572       108.2625 
  84   0.0000       3.978697       108.2658 
  85   0.0000       4.034781       109.7920 
  86   0.0000       4.037091       109.8548 
  87   0.0000       4.059010       110.4513 
  88   0.0000       4.077749       110.9612 
  89   0.0000       4.133013       112.4650 
  90   0.0000       4.141258       112.6894 
  91   0.0000       4.425565       120.4257 
  92   0.0000       4.502092       122.5082 
  93   0.0000       4.992700       135.8583 
  94   0.0000       5.009940       136.3274 
  95   0.0000       5.010496       136.3425 
  96   0.0000       5.162095       140.4678 
  97   0.0000       5.162123       140.4685 
  98   0.0000       5.169806       140.6776 
  99   0.0000       5.169955       140.6816 
 100   0.0000       5.251911       142.9118 
 101   0.0000       5.253670       142.9596 
 102   0.0000       5.466411       148.7486 
 103   0.0000       5.477954       149.0627 
 104   0.0000       5.740791       156.2149 
 105   0.0000       5.790335       157.5630 
 106   0.0000       5.792779       157.6295 
 107   0.0000       6.119887       166.5306 
 108   0.0000       6.128202       166.7569 
 109   0.0000       7.114016       193.5822 
 110   0.0000       8.483689       230.8529 
 111   0.0000       8.483693       230.8530 
 112   0.0000       8.570216       233.2074 
 113   0.0000       8.570230       233.2078 
 114   0.0000       8.875140       241.5048 
 115   0.0000       8.898570       242.1424 
 116   0.0000       8.899952       242.1800 
 117   0.0000       8.903429       242.2746 
 118   0.0000       8.903961       242.2891 
 119   0.0000       9.017919       245.3900 
 120   0.0000       9.018382       245.4027 
 121   0.0000       9.334607       254.0076 
 122   0.0000      12.568455       342.0050 
 123   0.0000      12.568543       342.0074 
 124   0.0000      12.600797       342.8851 
 125   0.0000      12.602963       342.9440 
 126   0.0000      12.656566       344.4027 
 127   0.0000      12.658800       344.4635 
 128   0.0000      12.666009       344.6596 
 129   0.0000      13.605254       370.2178 
 130   0.0000      14.124473       384.3465 
 131   0.0000      14.124597       384.3498 
 132   0.0000      14.127169       384.4198 
 133   0.0000      14.127245       384.4219 
 134   0.0000      14.164987       385.4489 
 135   0.0000      14.167263       385.5108 
 136   0.0000      14.342586       390.2816 
 137   0.0000      14.353000       390.5650 
 138   0.0000      14.657431       398.8490 

                    ********************************
                    * MULLIKEN POPULATION ANALYSIS *
                    ********************************

--------------------------------------------
MULLIKEN ATOMIC CHARGES AND SPIN POPULATIONS
--------------------------------------------
   0 Ni:    0.675556    0.949560
   1 F :   -0.675556    0.050440
Sum of atomic charges         :    0.0000000
Sum of atomic spin populations:    1.0000000

-----------------------------------------------------
MULLIKEN REDUCED ORBITAL CHARGES AND SPIN POPULATIONS
-----------------------------------------------------
CHARGE
  0 Nis       :     6.371330  s :     6.371330
      pz      :     4.043106  p :    12.112302
      px      :     4.039707
      py      :     4.029488
      dz2     :     1.803847  d :     8.825703
      dxz     :     1.977642
      dyz     :     1.057882
      dx2y2   :     1.987431
      dxy     :     1.998901
      f0      :     0.006764  f :     0.014484
      f+1     :     0.003914
      f-1     :     0.003431
      f+2     :     0.000187
      f-2     :     0.000157
      f+3     :     0.000016
      f-3     :     0.000015
      g0      :     0.000304  g :     0.000626
      g+1     :     0.000134
      g-1     :     0.000128
      g+2     :     0.000014
      g-2     :     0.000007
      g+3     :     0.000009
      g-3     :     0.000009
      g+4     :     0.000011
      g-4     :     0.000011
  1 F s       :     4.002973  s :     4.002973
      pz      :     1.781305  p :     5.661617
      px      :     1.961205
      py      :     1.919108
      dz2     :     0.002384  d :     0.009004
      dxz     :     0.003012
      dyz     :     0.003361
      dx2y2   :     0.000126
      dxy     :     0.000121
      f0      :     0.000809  f :     0.001961
      f+1     :     0.000537
      f-1     :     0.000401
      f+2     :     0.000107
      f-2     :     0.000105
      f+3     :     0.000000
      f-3     :     0.000000

SPIN
  0 Nis       :    -0.104149  s :    -0.104149
      pz      :     0.004625  p :     0.004573
      px      :    -0.003953
      py      :     0.003901
      dz2     :     0.079114  d :     1.048343
      dxz     :     0.016027
      dyz     :     0.940559
      dx2y2   :     0.011971
      dxy     :     0.000672
      f0      :     0.000232  f :     0.000774
      f+1     :     0.000057
      f-1     :     0.000463
      f+2     :     0.000008
      f-2     :    -0.000001
      f+3     :     0.000007
      f-3     :     0.000008
      g0      :    -0.000029  g :     0.000018
      g+1     :     0.000001
      g-1     :     0.000003
      g+2     :     0.000011
      g-2     :     0.000007
      g+3     :     0.000009
      g-3     :     0.000009
      g+4     :     0.000004
      g-4     :     0.000004
  1 F s       :    -0.001585  s :    -0.001585
      pz      :     0.009148  p :     0.052598
      px      :     0.001751
      py      :     0.041699
      dz2     :    -0.000010  d :    -0.000569
      dxz     :    -0.000063
      dyz     :    -0.000512
      dx2y2   :     0.000006
      dxy     :     0.000009
      f0      :    -0.000036  f :    -0.000004
      f+1     :    -0.000014
      f-1     :     0.000048
      f+2     :    -0.000002
      f-2     :    -0.000001
      f+3     :     0.000000
      f-3     :     0.000000


                     *******************************
                     * LOEWDIN POPULATION ANALYSIS *
                     *******************************

-------------------------------------------
LOEWDIN ATOMIC CHARGES AND SPIN POPULATIONS
-------------------------------------------
   0 Ni:    0.463241    0.944521
   1 F :   -0.463241    0.055479

----------------------------------------------------
LOEWDIN REDUCED ORBITAL CHARGES AND SPIN POPULATIONS
----------------------------------------------------
CHARGE
  0 Nis       :     6.308558  s :     6.308558
      pz      :     4.114368  p :    12.225285
      px      :     4.065371
      py      :     4.045547
      dz2     :     1.871084  d :     8.897947
      dxz     :     1.968736
      dyz     :     1.079920
      dx2y2   :     1.983379
      dxy     :     1.994827
      f0      :     0.047819  f :     0.102236
      f+1     :     0.028760
      f-1     :     0.025013
      f+2     :     0.000322
      f-2     :     0.000291
      f+3     :     0.000016
      f-3     :     0.000015
      g0      :     0.001447  g :     0.002733
      g+1     :     0.000662
      g-1     :     0.000567
      g+2     :     0.000014
      g-2     :     0.000006
      g+3     :     0.000009
      g-3     :     0.000009
      g+4     :     0.000011
      g-4     :     0.000011
  1 F s       :     3.732976  s :     3.732976
      pz      :     1.835507  p :     5.536751
      px      :     1.869868
      py      :     1.831376
      dz2     :     0.080981  d :     0.150842
      dxz     :     0.039820
      dyz     :     0.024217
      dx2y2   :     0.002907
      dxy     :     0.002916
      f0      :     0.020082  f :     0.042673
      f+1     :     0.012937
      f-1     :     0.007160
      f+2     :     0.001243
      f-2     :     0.001250
      f+3     :     0.000000
      f-3     :     0.000000

SPIN
  0 Nis       :    -0.094624  s :    -0.094624
      pz      :     0.007565  p :     0.012398
      px      :    -0.005055
      py      :     0.009888
      dz2     :     0.076709  d :     1.022759
      dxz     :     0.017167
      dyz     :     0.915840
      dx2y2   :     0.012162
      dxy     :     0.000881
      f0      :     0.000656  f :     0.003866
      f+1     :     0.000006
      f-1     :     0.003194
      f+2     :     0.000002
      f-2     :    -0.000006
      f+3     :     0.000007
      f-3     :     0.000008
      g0      :    -0.000006  g :     0.000121
      g+1     :    -0.000003
      g-1     :     0.000095
      g+2     :     0.000007
      g-2     :     0.000003
      g+3     :     0.000009
      g-3     :     0.000009
      g+4     :     0.000004
      g-4     :     0.000004
  1 F s       :    -0.003413  s :    -0.003413
      pz      :    -0.000352  p :     0.040423
      px      :     0.001916
      py      :     0.038860
      dz2     :     0.000471  d :     0.012935
      dxz     :    -0.000220
      dyz     :     0.012985
      dx2y2   :    -0.000146
      dxy     :    -0.000155
      f0      :     0.000304  f :     0.005534
      f+1     :    -0.000003
      f-1     :     0.005299
      f+2     :    -0.000030
      f-2     :    -0.000036
      f+3     :     0.000000
      f-3     :     0.000000


                      *****************************
                      * MAYER POPULATION ANALYSIS *
                      *****************************

  NA   - Mulliken gross atomic population
  ZA   - Total nuclear charge
  QA   - Mulliken gross atomic charge
  VA   - Mayer's total valence
  BVA  - Mayer's bonded valence
  FA   - Mayer's free valence

  ATOM       NA         ZA         QA         VA         BVA        FA
  0 Ni    27.3244    28.0000     0.6756     1.6753     0.6757     0.9996
  1 F      9.6756     9.0000    -0.6756     0.6782     0.6757     0.0025

  Mayer bond orders larger than 0.100000
B(  0-Ni,  1-F ) :   0.6757 

-------
TIMINGS
-------

Total SCF time: 0 days 0 hours 6 min 5 sec 

Total time                  ....     365.643 sec
Sum of individual times     ....     365.279 sec  ( 99.9%)

Fock matrix formation       ....     364.790 sec  ( 99.8%)
  XC integration            ....       0.641 sec  (  0.2% of F)
    Basis function eval.    ....       0.145 sec  ( 22.6% of XC)
    Density eval.           ....       0.074 sec  ( 11.6% of XC)
    XC-Functional eval.     ....       0.035 sec  (  5.5% of XC)
    XC-Potential eval.      ....       0.170 sec  ( 26.6% of XC)
Diagonalization             ....       0.150 sec  (  0.0%)
Density matrix formation    ....       0.018 sec  (  0.0%)
Population analysis         ....       0.007 sec  (  0.0%)
Initial guess               ....       0.099 sec  (  0.0%)
Orbital Transformation      ....       0.000 sec  (  0.0%)
Orbital Orthonormalization  ....       0.000 sec  (  0.0%)
DIIS solution               ....       0.049 sec  (  0.0%)
Grid generation             ....       0.166 sec  (  0.0%)

-------------------------   --------------------
FINAL SINGLE POINT ENERGY     -1608.045159190770
-------------------------   --------------------


                            ***************************************
                            *     ORCA property calculations      *
                            ***************************************

                                    ---------------------
                                    Active property flags
                                    ---------------------
   (+) Dipole Moment


------------------------------------------------------------------------------
                       ORCA ELECTRIC PROPERTIES CALCULATION
------------------------------------------------------------------------------

Dipole Moment Calculation                       ... on
Quadrupole Moment Calculation                   ... off
Polarizability Calculation                      ... off
GBWName                                         ... 44_NiF.gbw
Electron density file                           ... 44_NiF.scfp
The origin for moment calculation is the CENTER OF MASS  = ( 0.000000,  0.000000  1.043608)

-------------
DIPOLE MOMENT
-------------
                                X             Y             Z
Electronic contribution:      0.00000      -0.00000      -1.90898
Nuclear contribution   :      0.00000       0.00000      -0.15532
                        -----------------------------------------
Total Dipole Moment    :      0.00000      -0.00000      -2.06430
                        -----------------------------------------
Magnitude (a.u.)       :      2.06430
Magnitude (Debye)      :      5.24704



--------------------
Rotational spectrum 
--------------------
 
Rotational constants in cm-1:     0.000000     0.382421     0.382421 
Rotational constants in MHz :     0.000000 11464.697327 11464.697327 

 Dipole components along the rotational axes: 
x,y,z [a.u.] :    -2.064303    -0.000000     0.000000 
x,y,z [Debye]:    -5.247041    -0.000000     0.000000 

 

Timings for individual modules:

Sum of individual times         ...      369.096 sec (=   6.152 min)
GTO integral calculation        ...        2.918 sec (=   0.049 min)   0.8 %
SCF iterations                  ...      366.178 sec (=   6.103 min)  99.2 %
                             ****ORCA TERMINATED NORMALLY****
TOTAL RUN TIME: 0 days 0 hours 6 minutes 9 seconds 711 msec
