
                                 *****************
                                 * O   R   C   A *
                                 *****************

           --- An Ab Initio, DFT and Semiempirical electronic structure package ---

                  #######################################################
                  #                        -***-                        #
                  #          Department of theory and spectroscopy      #
                  #               Directorship: Frank Neese             #
                  #        Max Planck Institute fuer Kohlenforschung    #
                  #                Kaiser Wilhelm Platz 1               #
                  #                 D-45470 Muelheim/Ruhr               #
                  #                      Germany                        #
                  #                                                     #
                  #                  All rights reserved                #
                  #                        -***-                        #
                  #######################################################


                         Program Version 4.2.0 -  RELEASE  -


 With contributions from (in alphabetic order):
   Daniel Aravena         : Magnetic Suceptibility
   Michael Atanasov       : Ab Initio Ligand Field Theory (pilot matlab implementation)
   Alexander A. Auer      : GIAO ZORA, VPT2
   Ute Becker             : Parallelization
   Giovanni Bistoni       : ED, misc. LED, open-shell LED, HFLED
   Martin Brehm           : Molecular dynamics
   Dmytro Bykov           : SCF Hessian
   Vijay G. Chilkuri      : MRCI spin determinant printing, contributions to CSF-ICE
   Dipayan Datta          : RHF DLPNO-CCSD density
   Achintya Kumar Dutta   : EOM-CC, STEOM-CC
   Dmitry Ganyushin       : Spin-Orbit,Spin-Spin,Magnetic field MRCI
   Miquel Garcia          : C-PCM Hessian, Gaussian charge scheme
   Yang Guo               : DLPNO-NEVPT2, CIM, IAO-localization
   Andreas Hansen         : Spin unrestricted coupled pair/coupled cluster methods
   Benjamin Helmich-Paris : CASSCF linear response (MC-RPA)
   Lee Huntington         : MR-EOM, pCC
   Robert Izsak           : Overlap fitted RIJCOSX, COSX-SCS-MP3, EOM
   Christian Kollmar      : KDIIS, OOCD, Brueckner-CCSD(T), CCSD density
   Simone Kossmann        : Meta GGA functionals, TD-DFT gradient, OOMP2, MP2 Hessian
   Martin Krupicka        : AUTO-CI
   Lucas Lang             : DCDCAS
   Dagmar Lenk            : GEPOL surface, SMD
   Dimitrios Liakos       : Extrapolation schemes; Compound Job, initial MDCI parallelization
   Dimitrios Manganas     : Further ROCIS development; embedding schemes
   Dimitrios Pantazis     : SARC Basis sets
   Taras Petrenko         : DFT Hessian,TD-DFT gradient, ASA, ECA, R-Raman, ABS, FL, XAS/XES, NRVS
   Peter Pinski           : DLPNO-MP2, DLPNO-MP2 Gradient
   Christoph Reimann      : Effective Core Potentials
   Marius Retegan         : Local ZFS, SOC
   Christoph Riplinger    : Optimizer, TS searches, QM/MM, DLPNO-CCSD(T), (RO)-DLPNO pert. Triples
   Tobias Risthaus        : Range-separated hybrids, TD-DFT gradient, RPA, STAB
   Michael Roemelt        : Original ROCIS implementation
   Masaaki Saitow         : Open-shell DLPNO-CCSD energy and density
   Barbara Sandhoefer     : DKH picture change effects
   Avijit Sen             : IP-ROCIS
   Kantharuban Sivalingam : CASSCF convergence, NEVPT2, FIC-MRCI
   Bernardo de Souza      : ESD, SOC TD-DFT
   Georgi Stoychev        : AutoAux, RI-MP2 NMR
   Willem Van den Heuvel  : Paramagnetic NMR
   Boris Wezisla          : Elementary symmetry handling
   Frank Wennmohs         : Technical directorship


 We gratefully acknowledge several colleagues who have allowed us to
 interface, adapt or use parts of their codes:
   Stefan Grimme, W. Hujo, H. Kruse,             : VdW corrections, initial TS optimization,
                  C. Bannwarth                     DFT functionals, gCP, sTDA/sTD-DF
   Ed Valeev, F. Pavosevic, A. Kumar             : LibInt (2-el integral package), F12 methods
   Garnet Chan, S. Sharma, J. Yang, R. Olivares  : DMRG
   Ulf Ekstrom                                   : XCFun DFT Library
   Mihaly Kallay                                 : mrcc  (arbitrary order and MRCC methods)
   Andreas Klamt, Michael Diedenhofen            : otool_cosmo (COSMO solvation model)
   Jiri Pittner, Ondrej Demel                    : Mk-CCSD
   Frank Weinhold                                : gennbo (NPA and NBO analysis)
   Christopher J. Cramer and Donald G. Truhlar   : smd solvation model
   Lars Goerigk                                  : TD-DFT with DH, B97 family of functionals
   V. Asgeirsson, H. Jonsson                     : NEB implementation
   FAccTs GmbH                                   : IRC, NEB, NEB-TS, Multilevel, MM, QM/MM, CI optimization
   S Lehtola, MJT Oliveira, MAL Marques          : LibXC Library


 Your calculation uses the libint2 library for the computation of 2-el integrals
 For citations please refer to: http://libint.valeyev.net

 Your ORCA version has been built with support for libXC version: 4.2.3
 For citations please refer to: https://tddft.org/programs/libxc/

 This ORCA versions uses:
   CBLAS   interface :  Fast vector & matrix operations
   LAPACKE interface :  Fast linear algebra routines
   SCALAPACK package :  Parallel linear algebra routines


Your calculation utilizes the DFT-NL dispersion correction.
Cite in your paper:
Vydrov, O. A.; Van Voorhis, T. J. Chem. Phys. 2010, 133, 244103
Hujo, W.; Grimme, S. J. Chem. Theory Comput. 2011, 7, 3866 
   

----- Orbital basis set information -----
Your calculation utilizes the basis: aug-cc-pVTZ 
    H, B-Ne : Obtained from the ccRepo (grant-hill.group.shef.ac.uk/ccrepo) Feb. 2017
              R. A. Kendall, T. H. Dunning, Jr., R. J. Harrison, J. Chem. Phys. 96, 6796 (1992)
         He : Obtained from the ccRepo (grant-hill.group.shef.ac.uk/ccrepo) Feb. 2017
              D. E. Woon, T. H. Dunning, Jr., J. Chem. Phys. 100, 2975 (1994)
  Li-Be, Na : Obtained from the ccRepo (grant-hill.group.shef.ac.uk/ccrepo) Feb. 2017
              B. P. Prascher, D. E. Woon, K. A. Peterson, T. H. Dunning, Jr., A. K. Wilson, Theor. Chem. Acc. 128, 69 (2011)
         Mg : Obtained from the Peterson Research Group Website (tyr0.chem.wsu.edu/~kipeters) Feb. 2017
              B. P. Prascher, D. E. Woon, K. A. Peterson, T. H. Dunning, Jr., A. K. Wilson, Theor. Chem. Acc. 128, 69 (2011)
      Al-Ar : Obtained from the ccRepo (grant-hill.group.shef.ac.uk/ccrepo) Feb. 2017
              D. E. Woon, T. H. Dunning, Jr., J. Chem. Phys. 98, 1358 (1993)
      Sc-Zn : Obtained from the ccRepo (grant-hill.group.shef.ac.uk/ccrepo) Feb. 2017
              N. B. Balabanov, K. A. Peterson, J. Chem. Phys. 123, 064107 (2005)
              N. B. Balabanov, K. A. Peterson, J. Chem. Phys. 125, 074110 (2006)
      Ga-Kr : Obtained from the ccRepo (grant-hill.group.shef.ac.uk/ccrepo) Feb. 2017
              A. K. Wilson, D. E. Woon, K. A. Peterson, T. H. Dunning, Jr., J. Chem. Phys. 110, 7667 (1999)
     Ag, Au : Obtained from the Peterson Research Group Website (tyr0.chem.wsu.edu/~kipeters) Feb. 2017
              K. A. Peterson, C. Puzzarini, Theor. Chem. Acc. 114, 283 (2005)

----- AuxJK basis set information -----
Your calculation utilizes the auxiliary basis: def2/JK
   H-Ba, Hf-Rn: F. Weigend, J. Comput. Chem. 29, 167 (2008).

================================================================================
                                        WARNINGS
                       Please study these warnings very carefully!
================================================================================


WARNING: your system is open-shell and RHF/RKS was chosen
  ===> : WILL SWITCH to UHF/UKS


INFO   : the flag for use of LIBINT has been found!

================================================================================
                                       INPUT FILE
================================================================================
NAME = 45_NiCl.in
|  1> #
|  2> # 45_NiCl wb97x-v/aug-cc-pvtz
|  3> #
|  4> ! wb97x-v aug-cc-pvtz def2/jk grid4 nofinalgrid
|  5> 
|  6> *xyz 0 2
|  7>   Ni  0.00000000000000      0.00000000000000     -0.04672403924217
|  8>   Cl  0.00000000000000      0.00000000000000      2.04672403924217
|  9> *
| 10> 
| 11> %pal
| 12> nprocs 24
| 13> end
| 14> 
| 15> 
| 16>                          ****END OF INPUT****
================================================================================

                       ****************************
                       * Single Point Calculation *
                       ****************************

---------------------------------
CARTESIAN COORDINATES (ANGSTROEM)
---------------------------------
  Ni     0.000000    0.000000   -0.046724
  Cl     0.000000    0.000000    2.046724

----------------------------
CARTESIAN COORDINATES (A.U.)
----------------------------
  NO LB      ZA    FRAG     MASS         X           Y           Z
   0 Ni   28.0000    0    58.700    0.000000    0.000000   -0.088296
   1 Cl   17.0000    0    35.453    0.000000    0.000000    3.867748

--------------------------------
INTERNAL COORDINATES (ANGSTROEM)
--------------------------------
 Ni     0   0   0     0.000000000000     0.00000000     0.00000000
 Cl     1   0   0     2.093448078484     0.00000000     0.00000000

---------------------------
INTERNAL COORDINATES (A.U.)
---------------------------
 Ni     0   0   0     0.000000000000     0.00000000     0.00000000
 Cl     1   0   0     3.956043543919     0.00000000     0.00000000

---------------------
BASIS SET INFORMATION
---------------------
There are 2 groups of distinct atoms

 Group   1 Type Ni  : 116s77p23d3f2g contracted to 8s7p5d3f2g pattern {19191919191911/151515151511/77711/111/11}
 Group   2 Type Cl  : 42s17p3d2f contracted to 6s5p3d2f pattern {131313111/77111/111/11}

Atom   0Ni   basis set group =>   1
Atom   1Cl   basis set group =>   2
----------------------------------
AUXILIARY/JK BASIS SET INFORMATION
----------------------------------
There are 2 groups of distinct atoms

 Group   1 Type Ni  : 19s14p12d10f7g3h1i contracted to 16s13p11d9f5g3h1i pattern {4111111111111111/2111111111111/21111111111/211111111/31111/111/1}
 Group   2 Type Cl  : 16s12p10d4f1g contracted to 13s11p9d4f1g pattern {4111111111111/21111111111/211111111/1111/1}

Atom   0Ni   basis set group =>   1
Atom   1Cl   basis set group =>   2


           ************************************************************
           *        Program running with 24 parallel MPI-processes    *
           *              working on a common directory               *
           ************************************************************
------------------------------------------------------------------------------
                           ORCA GTO INTEGRAL CALCULATION
------------------------------------------------------------------------------

                         BASIS SET STATISTICS AND STARTUP INFO

 # of primitive gaussian shells          ...  285
 # of primitive gaussian functions       ...  623
 # of contracted shells                  ...   41
 # of contracted basis functions         ...  143
 Highest angular momentum                ...    4
 Maximum contraction depth               ...   19
 Integral package used                   ... LIBINT
 Integral threshhold            Thresh   ...  1.000e-10
 Primitive cut-off              TCut     ...  1.000e-11


------------------------------ INTEGRAL EVALUATION ----------------------------


 * One electron integrals 
 Pre-screening matrix                    ... done
 Shell pair data                         ... done (   0.001 sec)



           ************************************************************
           *        Program running with 24 parallel MPI-processes    *
           *              working on a common directory               *
           ************************************************************
-------------------------------------------------------------------------------
                                 ORCA SCF
-------------------------------------------------------------------------------

------------
SCF SETTINGS
------------
Hamiltonian:
 Density Functional     Method          .... DFT(GTOs)
 Exchange Functional    Exchange        .... WB97X-V
 Correlation Functional Correlation     .... WB97X-V
 Gradients option       PostSCFGGA      .... off
 Hybrid DFT is turned on
   Fraction HF Exchange ScalHFX         ....  0.167000
   Scaling of DF-GGA-X  ScalDFX         ....  0.000000
   Scaling of DF-GGA-C  ScalDFC         ....  1.000000
   Scaling of DF-LDA-C  ScalLDAC        ....  1.000000
   Perturbative correction              ....  0.000000
   Density functional embedding theory  .... OFF
 Long-range corrected/Screened/Range-Separated Hybrid DFT is turned on
   Amount of maximum screened exact exchange              ....  0.833000
   Range separation parameter mu (erf(mu*r12)/r12)        ....  0.300000
   NL short-range parameter             ....  6.000000
   NL long-range parameter              ....  0.010000


General Settings:
 Integral files         IntName         .... 45_NiCl
 Hartree-Fock type      HFTyp           .... UHF
 Total Charge           Charge          ....    0
 Multiplicity           Mult            ....    2
 Number of Electrons    NEL             ....   45
 Basis Dimension        Dim             ....  143
 Nuclear Repulsion      ENuc            ....    120.3222347569 Eh

Convergence Acceleration:
 DIIS                   CNVDIIS         .... on
   Start iteration      DIISMaxIt       ....    12
   Startup error        DIISStart       ....  0.200000
   # of expansion vecs  DIISMaxEq       ....     5
   Bias factor          DIISBfac        ....   1.050
   Max. coefficient     DIISMaxC        ....  10.000
 Newton-Raphson         CNVNR           .... off
 SOSCF                  CNVSOSCF        .... off
 Level Shifting         CNVShift        .... on
   Level shift para.    LevelShift      ....    0.2500
   Turn off err/grad.   ShiftErr        ....    0.0010
 Zerner damping         CNVZerner       .... off
 Static damping         CNVDamp         .... on
   Fraction old density DampFac         ....    0.7000
   Max. Damping (<1)    DampMax         ....    0.9800
   Min. Damping (>=0)   DampMin         ....    0.0000
   Turn off err/grad.   DampErr         ....    0.1000
 Fernandez-Rico         CNVRico         .... off

SCF Procedure:
 Maximum # iterations   MaxIter         ....   125
 SCF integral mode      SCFMode         .... Direct
   Integral package                     .... LIBINT
 Reset frequency        DirectResetFreq ....    20
 Integral Threshold     Thresh          ....  1.000e-10 Eh
 Primitive CutOff       TCut            ....  1.000e-11 Eh

Convergence Tolerance:
 Convergence Check Mode ConvCheckMode   .... Total+1el-Energy
 Convergence forced     ConvForced      .... 0
 Energy Change          TolE            ....  1.000e-06 Eh
 1-El. energy change                    ....  1.000e-03 Eh
 DIIS Error             TolErr          ....  1.000e-06


Diagonalization of the overlap matrix:
Smallest eigenvalue                        ... 2.313e-04
Time for diagonalization                   ...    0.023 sec
Threshold for overlap eigenvalues          ... 1.000e-08
Number of eigenvalues below threshold      ... 0
Time for construction of square roots      ...    0.002 sec
Total time needed                          ...    0.025 sec

-------------------
DFT GRID GENERATION
-------------------

General Integration Accuracy     IntAcc      ...  4.670
Radial Grid Type                 RadialGrid  ... Gauss-Chebyshev
Angular Grid (max. acc.)         AngularGrid ... Lebedev-302
Angular grid pruning method      GridPruning ... 3 (G Style)
Weight generation scheme         WeightScheme... Becke
Basis function cutoff            BFCut       ...    1.0000e-10
Integration weight cutoff        WCut        ...    1.0000e-14
Grids for H and He will be reduced by one unit

# of grid points (after initial pruning)     ...  16402 (   0.0 sec)
# of grid points (after weights+screening)   ...  16374 (   0.0 sec)
nearest neighbour list constructed           ...    0.0 sec
Grid point re-assignment to atoms done       ...    0.0 sec
Grid point division into batches done        ...    0.1 sec
Reduced shell lists constructed in    0.1 sec

Total number of grid points                  ...    16374
Total number of batches                      ...      256
Average number of points per batch           ...       63
Average number of grid points per atom       ...     8187
Average number of shells per batch           ...    15.25 (37.20%)
Average number of basis functions per batch  ...    36.92 (25.82%)
Average number of large shells per batch     ...     7.92 (51.91%)
Average number of large basis fcns per batch ...    19.25 (52.14%)
Maximum spatial batch extension              ...  23.02, 23.02, 16.62 au
Average spatial batch extension              ...   0.79,  0.79,  0.61 au

Time for grid setup =    0.158 sec

------------------------------
INITIAL GUESS: MODEL POTENTIAL
------------------------------
Loading Hartree-Fock densities                     ... done
Calculating cut-offs                               ... done
Setting up the integral package                    ... done
Initializing the effective Hamiltonian             ... done
Starting the Coulomb interaction                   ... done (   0.0 sec)
Reading the grid                                   ... done
Mapping shells                                     ... done
Starting the XC term evaluation                    ... done (   0.0 sec)
  promolecular density results
     # of electrons  =     45.000025637
     EX              =    -67.704828983
     EC              =     -2.599928965
     EX+EC           =    -70.304757948
Transforming the Hamiltonian                       ... done (   0.0 sec)
Diagonalizing the Hamiltonian                      ... done (   0.0 sec)
Back transforming the eigenvectors                 ... done (   0.0 sec)
Now organizing SCF variables                       ... done
                      ------------------
                      INITIAL GUESS DONE (   0.3 sec)
                      ------------------
--------------
SCF ITERATIONS
--------------
ITER       Energy         Delta-E        Max-DP      RMS-DP      [F,P]     Damp
               ***  Starting incremental Fock matrix formation  ***
  0  -1965.5355053311   0.000000000000 0.18198380  0.00413015  1.6437316 0.7000
  1  -1967.1212984565  -1.585793125366 0.14787464  0.00208313  0.3810966 0.7000
  2  -1967.4619435325  -0.340645076006 0.09490275  0.00160044  0.4170663 0.7000
  3  -1967.7748039397  -0.312860407252 0.05424894  0.00104385  0.2707451 0.7000
                               ***Turning on DIIS***
  4  -1967.9988326957  -0.224028755994 0.04321085  0.00071133  0.1283838 0.7000
  5  -1968.1571114550  -0.158278759239 0.12860498  0.00192104  0.0722555 0.0000
  6  -1968.5508527124  -0.393741257423 0.02764574  0.00056029  0.0524974 0.0000
  7  -1968.5587302098  -0.007877497410 0.01520855  0.00033911  0.0425704 0.0000
  8  -1968.5636271273  -0.004896917478 0.01788641  0.00028764  0.0216394 0.0000
  9  -1968.5668726732  -0.003245545900 0.01819922  0.00026526  0.0136031 0.0000
 10  -1968.5689578915  -0.002085218352 0.01730534  0.00020650  0.0114205 0.0000
 11  -1968.5699408045  -0.000982912971 0.00935369  0.00010666  0.0064573 0.0000
 12  -1968.5702079323  -0.000267127805 0.00711237  0.00007589  0.0038783 0.0000
 13  -1968.5703066826  -0.000098750328 0.00405301  0.00004338  0.0022447 0.0000
 14  -1968.5703409464  -0.000034263787 0.00290655  0.00002831  0.0013103 0.0000
 15  -1968.5703556278  -0.000014681408 0.00198934  0.00002278  0.0006205 0.0000
 16  -1968.5703639062  -0.000008278348 0.00110016  0.00001304  0.0003270 0.0000
 17  -1968.5703664028  -0.000002496585 0.00064668  0.00000539  0.0001770 0.0000
 18  -1968.5703670095  -0.000000606726 0.00039994  0.00000292  0.0001111 0.0000
 19  -1968.5703671920  -0.000000182473 0.00032598  0.00000238  0.0000646 0.0000
               *** Restarting incremental Fock matrix formation ***
                                   *** Resetting DIIS ***
                 **** Energy Check signals convergence ****

               *****************************************************
               *                     SUCCESS                       *
               *           SCF CONVERGED AFTER  20 CYCLES          *
               *****************************************************


Setting up the DFT-NL grid :

General Integration Accuracy     IntAcc      ...  4.340
Radial Grid Type                 RadialGrid  ... Gauss-Chebyshev
Angular Grid (max. acc.)         AngularGrid ... Lebedev-110
Angular grid pruning method      GridPruning ... 3 (G Style)
Weight generation scheme         WeightScheme... Becke
Basis function cutoff            BFCut       ...    1.0000e-10
Integration weight cutoff        WCut        ...    1.0000e-14
Grids for H and He will be reduced by one unit

# of grid points (after initial pruning)     ...   4756 (   0.0 sec)
# of grid points (after weights+screening)   ...   4732 (   0.0 sec)
nearest neighbour list constructed           ...    0.0 sec
Grid point re-assignment to atoms done       ...    0.0 sec
Grid point division into batches done        ...    0.0 sec
Reduced shell lists constructed in    0.0 sec

Total number of grid points                  ...     4732
Total number of batches                      ...       75
Average number of points per batch           ...       63
Average number of grid points per atom       ...     2366
Average number of shells per batch           ...    23.20 (56.59%)
Average number of basis functions per batch  ...    71.20 (49.79%)
Average number of large shells per batch     ...    14.40 (62.07%)
Average number of large basis fcns per batch ...    35.20 (49.44%)
Maximum spatial batch extension              ...  17.39, 26.34, 14.94 au
Average spatial batch extension              ...   0.85,  1.17,  0.79 au

Final grid set up in    0.0 sec

-------------------------------------------------------------------------------
                         DFT-NL dispersion correction                          
-------------------------------------------------------------------------------

SC Energy -1968.570367282 
NL    Energy 0.189254607 
SC+NL Energy -1968.381112675 
NL done in    0.1 sec
-------------------------------------------------------------------------------

----------------
TOTAL SCF ENERGY
----------------

Total Energy       :        -1968.38111267 Eh          -53562.37313 eV

Components:
Nuclear Repulsion  :          120.32223476 Eh            3274.13446 eV
Electronic Energy  :        -2088.70334743 Eh          -56836.50760 eV
One Electron Energy:        -2973.59611260 Eh          -80915.66390 eV
Two Electron Energy:          884.89276517 Eh           24079.15630 eV

Virial components:
Potential Energy   :        -3933.78843755 Eh         -107043.82539 eV
Kinetic Energy     :         1965.40732488 Eh           53481.45225 eV
Virial Ratio       :            2.00151306


DFT components:
N(Alpha)           :       22.999999465934 electrons
N(Beta)            :       21.999999294755 electrons
N(Total)           :       44.999998760689 electrons
E(X)               :      -67.867713804968 Eh       
E(C)               :       -2.609852238209 Eh       
NL Energy, E(C,NL) :        0.189254606861 Eh       
E(XC)              :      -70.288311436316 Eh       
DFET-embed. en.    :        0.000000000000 Eh       

---------------
SCF CONVERGENCE
---------------

  Last Energy change         ...   -8.9888e-08  Tolerance :   1.0000e-06
  Last MAX-Density change    ...    1.0201e-04  Tolerance :   1.0000e-05
  Last RMS-Density change    ...    8.4791e-07  Tolerance :   1.0000e-06
  Last DIIS Error            ...    2.9557e-05  Tolerance :   1.0000e-06

             **** THE GBW FILE WAS UPDATED (45_NiCl.gbw) ****
             **** DENSITY FILE WAS UPDATED (45_NiCl.scfp) ****
             **** ENERGY FILE WAS UPDATED (45_NiCl.en.tmp) ****
----------------------
UHF SPIN CONTAMINATION
----------------------

Warning: in a DFT calculation there is little theoretical justification to 
         calculate <S**2> as in Hartree-Fock theory. We will do it anyways
         but you should keep in mind that the values have only limited relevance

Expectation value of <S**2>     :     0.757281
Ideal value S*(S+1) for S=0.5   :     0.750000
Deviation                       :     0.007281

             **** THE GBW FILE WAS UPDATED (45_NiCl.gbw) ****
             **** DENSITY FILE WAS UPDATED (45_NiCl.scfp) ****
----------------
ORBITAL ENERGIES
----------------
                 SPIN UP ORBITALS
  NO   OCC          E(Eh)            E(eV) 
   0   1.0000    -299.694043     -8155.0895 
   1   1.0000    -101.494192     -2761.7974 
   2   1.0000     -35.802555      -974.2370 
   3   1.0000     -31.229224      -849.7904 
   4   1.0000     -31.228555      -849.7722 
   5   1.0000     -31.196523      -848.9005 
   6   1.0000      -9.509485      -258.7663 
   7   1.0000      -7.261665      -197.5999 
   8   1.0000      -7.259043      -197.5286 
   9   1.0000      -7.257926      -197.4982 
  10   1.0000      -4.139814      -112.6501 
  11   1.0000      -2.756394       -75.0053 
  12   1.0000      -2.750558       -74.8465 
  13   1.0000      -2.687343       -73.1263 
  14   1.0000      -0.884962       -24.0810 
  15   1.0000      -0.472789       -12.8652 
  16   1.0000      -0.466779       -12.7017 
  17   1.0000      -0.427094       -11.6218 
  18   1.0000      -0.397359       -10.8127 
  19   1.0000      -0.393992       -10.7211 
  20   1.0000      -0.377577       -10.2744 
  21   1.0000      -0.367435        -9.9984 
  22   1.0000      -0.358182        -9.7466 
  23   0.0000      -0.041687        -1.1344 
  24   0.0000       0.024625         0.6701 
  25   0.0000       0.026221         0.7135 
  26   0.0000       0.028276         0.7694 
  27   0.0000       0.039303         1.0695 
  28   0.0000       0.077782         2.1166 
  29   0.0000       0.081355         2.2138 
  30   0.0000       0.110592         3.0094 
  31   0.0000       0.120219         3.2713 
  32   0.0000       0.120418         3.2767 
  33   0.0000       0.122196         3.3251 
  34   0.0000       0.140711         3.8289 
  35   0.0000       0.142889         3.8882 
  36   0.0000       0.166427         4.5287 
  37   0.0000       0.167602         4.5607 
  38   0.0000       0.173776         4.7287 
  39   0.0000       0.186055         5.0628 
  40   0.0000       0.269587         7.3358 
  41   0.0000       0.276150         7.5144 
  42   0.0000       0.325576         8.8594 
  43   0.0000       0.338318         9.2061 
  44   0.0000       0.360143         9.8000 
  45   0.0000       0.360184         9.8011 
  46   0.0000       0.413435        11.2501 
  47   0.0000       0.420486        11.4420 
  48   0.0000       0.444621        12.0988 
  49   0.0000       0.444632        12.0991 
  50   0.0000       0.456010        12.4087 
  51   0.0000       0.513403        13.9704 
  52   0.0000       0.516721        14.0607 
  53   0.0000       0.586297        15.9539 
  54   0.0000       0.674858        18.3638 
  55   0.0000       0.677423        18.4336 
  56   0.0000       0.686976        18.6936 
  57   0.0000       0.851753        23.1774 
  58   0.0000       0.879282        23.9265 
  59   0.0000       0.879290        23.9267 
  60   0.0000       0.891798        24.2671 
  61   0.0000       0.895659        24.3721 
  62   0.0000       0.910941        24.7880 
  63   0.0000       0.994908        27.0728 
  64   0.0000       1.011168        27.5153 
  65   0.0000       1.101315        29.9683 
  66   0.0000       1.103102        30.0169 
  67   0.0000       1.104512        30.0553 
  68   0.0000       1.125660        30.6308 
  69   0.0000       1.125661        30.6308 
  70   0.0000       1.266874        34.4734 
  71   0.0000       1.276655        34.7395 
  72   0.0000       1.301472        35.4148 
  73   0.0000       1.381473        37.5918 
  74   0.0000       1.381489        37.5922 
  75   0.0000       1.498814        40.7848 
  76   0.0000       1.511935        41.1418 
  77   0.0000       1.516139        41.2562 
  78   0.0000       1.539011        41.8786 
  79   0.0000       1.556985        42.3677 
  80   0.0000       1.571196        42.7544 
  81   0.0000       1.571281        42.7567 
  82   0.0000       1.724899        46.9369 
  83   0.0000       1.884203        51.2718 
  84   0.0000       1.896922        51.6179 
  85   0.0000       2.130196        57.9656 
  86   0.0000       2.365439        64.3669 
  87   0.0000       2.365487        64.3682 
  88   0.0000       2.477621        67.4195 
  89   0.0000       2.480516        67.4983 
  90   0.0000       2.551226        69.4224 
  91   0.0000       2.569907        69.9307 
  92   0.0000       2.574638        70.0595 
  93   0.0000       2.885221        78.5108 
  94   0.0000       2.885221        78.5109 
  95   0.0000       2.921962        79.5106 
  96   0.0000       2.921978        79.5111 
  97   0.0000       2.956624        80.4538 
  98   0.0000       2.993886        81.4678 
  99   0.0000       2.996580        81.5411 
 100   0.0000       3.242498        88.2329 
 101   0.0000       3.725144       101.3663 
 102   0.0000       3.962988       107.8384 
 103   0.0000       3.963886       107.8628 
 104   0.0000       3.998753       108.8116 
 105   0.0000       4.000388       108.8561 
 106   0.0000       4.024273       109.5060 
 107   0.0000       4.064421       110.5985 
 108   0.0000       4.110399       111.8496 
 109   0.0000       4.146178       112.8233 
 110   0.0000       4.190916       114.0406 
 111   0.0000       4.482061       121.9631 
 112   0.0000       5.138905       139.8367 
 113   0.0000       5.138994       139.8391 
 114   0.0000       5.151176       140.1706 
 115   0.0000       5.151663       140.1839 
 116   0.0000       5.156295       140.3099 
 117   0.0000       5.156761       140.3226 
 118   0.0000       5.219149       142.0203 
 119   0.0000       5.245988       142.7506 
 120   0.0000       5.251818       142.9092 
 121   0.0000       5.761080       156.7670 
 122   0.0000       5.761555       156.7799 
 123   0.0000       5.880644       160.0205 
 124   0.0000       5.930864       161.3870 
 125   0.0000       6.146883       167.2652 
 126   0.0000       6.827633       185.7893 
 127   0.0000      12.529640       340.9488 
 128   0.0000      12.537769       341.1700 
 129   0.0000      12.544143       341.3435 
 130   0.0000      12.544429       341.3513 
 131   0.0000      12.586667       342.5006 
 132   0.0000      12.647134       344.1460 
 133   0.0000      12.660402       344.5071 
 134   0.0000      14.074858       382.9964 
 135   0.0000      14.076586       383.0434 
 136   0.0000      14.078249       383.0886 
 137   0.0000      14.083627       383.2350 
 138   0.0000      14.108035       383.8992 
 139   0.0000      14.110138       383.9564 
 140   0.0000      14.110199       383.9580 
 141   0.0000      14.156525       385.2186 
 142   0.0000      14.218994       386.9185 

                 SPIN DOWN ORBITALS
  NO   OCC          E(Eh)            E(eV) 
   0   1.0000    -299.693830     -8155.0837 
   1   1.0000    -101.493910     -2761.7897 
   2   1.0000     -35.780211      -973.6290 
   3   1.0000     -31.205307      -849.1396 
   4   1.0000     -31.205223      -849.1373 
   5   1.0000     -31.190097      -848.7257 
   6   1.0000      -9.509228      -258.7592 
   7   1.0000      -7.261505      -197.5956 
   8   1.0000      -7.258133      -197.5038 
   9   1.0000      -7.257722      -197.4927 
  10   1.0000      -4.090945      -111.3203 
  11   1.0000      -2.685946       -73.0883 
  12   1.0000      -2.681766       -72.9746 
  13   1.0000      -2.668522       -72.6142 
  14   1.0000      -0.882814       -24.0226 
  15   1.0000      -0.456730       -12.4283 
  16   1.0000      -0.415025       -11.2934 
  17   1.0000      -0.391924       -10.6648 
  18   1.0000      -0.378755       -10.3064 
  19   1.0000      -0.368472       -10.0266 
  20   1.0000      -0.344293        -9.3687 
  21   1.0000      -0.344202        -9.3662 
  22   0.0000      -0.038006        -1.0342 
  23   0.0000       0.014226         0.3871 
  24   0.0000       0.025490         0.6936 
  25   0.0000       0.028696         0.7808 
  26   0.0000       0.031618         0.8604 
  27   0.0000       0.039281         1.0689 
  28   0.0000       0.080577         2.1926 
  29   0.0000       0.081406         2.2152 
  30   0.0000       0.110992         3.0202 
  31   0.0000       0.120149         3.2694 
  32   0.0000       0.120334         3.2745 
  33   0.0000       0.123043         3.3482 
  34   0.0000       0.141587         3.8528 
  35   0.0000       0.142425         3.8756 
  36   0.0000       0.167497         4.5578 
  37   0.0000       0.168329         4.5805 
  38   0.0000       0.175001         4.7620 
  39   0.0000       0.186209         5.0670 
  40   0.0000       0.272393         7.4122 
  41   0.0000       0.275142         7.4870 
  42   0.0000       0.327458         8.9106 
  43   0.0000       0.339772         9.2457 
  44   0.0000       0.360969         9.8225 
  45   0.0000       0.361051         9.8247 
  46   0.0000       0.422555        11.4983 
  47   0.0000       0.429698        11.6927 
  48   0.0000       0.446867        12.1599 
  49   0.0000       0.447167        12.1680 
  50   0.0000       0.458122        12.4661 
  51   0.0000       0.516302        14.0493 
  52   0.0000       0.517091        14.0708 
  53   0.0000       0.588191        16.0055 
  54   0.0000       0.676237        18.4013 
  55   0.0000       0.677729        18.4419 
  56   0.0000       0.692910        18.8550 
  57   0.0000       0.855758        23.2864 
  58   0.0000       0.880778        23.9672 
  59   0.0000       0.880784        23.9673 
  60   0.0000       0.895478        24.3672 
  61   0.0000       0.896165        24.3859 
  62   0.0000       0.911616        24.8063 
  63   0.0000       1.005855        27.3707 
  64   0.0000       1.012889        27.5621 
  65   0.0000       1.104702        30.0605 
  66   0.0000       1.104891        30.0656 
  67   0.0000       1.110697        30.2236 
  68   0.0000       1.126037        30.6410 
  69   0.0000       1.126041        30.6411 
  70   0.0000       1.278353        34.7858 
  71   0.0000       1.278943        34.8018 
  72   0.0000       1.302339        35.4385 
  73   0.0000       1.380417        37.5630 
  74   0.0000       1.380492        37.5651 
  75   0.0000       1.505098        40.9558 
  76   0.0000       1.520786        41.3827 
  77   0.0000       1.523273        41.4504 
  78   0.0000       1.560969        42.4761 
  79   0.0000       1.567972        42.6667 
  80   0.0000       1.577008        42.9126 
  81   0.0000       1.577194        42.9176 
  82   0.0000       1.728318        47.0299 
  83   0.0000       1.899492        51.6878 
  84   0.0000       1.901342        51.7381 
  85   0.0000       2.136076        58.1256 
  86   0.0000       2.366965        64.4084 
  87   0.0000       2.367013        64.4097 
  88   0.0000       2.480608        67.5008 
  89   0.0000       2.481186        67.5165 
  90   0.0000       2.552174        69.4482 
  91   0.0000       2.573861        70.0383 
  92   0.0000       2.575341        70.0786 
  93   0.0000       2.887028        78.5600 
  94   0.0000       2.887029        78.5600 
  95   0.0000       2.923090        79.5413 
  96   0.0000       2.923096        79.5415 
  97   0.0000       2.958978        80.5179 
  98   0.0000       2.995285        81.5059 
  99   0.0000       2.996794        81.5469 
 100   0.0000       3.254148        88.5499 
 101   0.0000       3.748844       102.0112 
 102   0.0000       3.974351       108.1476 
 103   0.0000       3.974539       108.1527 
 104   0.0000       4.037879       109.8763 
 105   0.0000       4.039870       109.9305 
 106   0.0000       4.052162       110.2649 
 107   0.0000       4.072179       110.8096 
 108   0.0000       4.155748       113.0836 
 109   0.0000       4.162601       113.2701 
 110   0.0000       4.208434       114.5173 
 111   0.0000       4.504648       122.5777 
 112   0.0000       5.155242       140.2813 
 113   0.0000       5.155432       140.2864 
 114   0.0000       5.162295       140.4732 
 115   0.0000       5.162398       140.4760 
 116   0.0000       5.180253       140.9619 
 117   0.0000       5.181752       141.0026 
 118   0.0000       5.251023       142.8876 
 119   0.0000       5.252752       142.9346 
 120   0.0000       5.264664       143.2588 
 121   0.0000       5.781286       157.3168 
 122   0.0000       5.782126       157.3397 
 123   0.0000       5.950120       161.9110 
 124   0.0000       5.965407       162.3270 
 125   0.0000       6.149060       167.3244 
 126   0.0000       6.850204       186.4035 
 127   0.0000      12.566842       341.9612 
 128   0.0000      12.566979       341.9649 
 129   0.0000      12.603384       342.9555 
 130   0.0000      12.605248       343.0062 
 131   0.0000      12.668977       344.7404 
 132   0.0000      12.669831       344.7636 
 133   0.0000      12.690724       345.3322 
 134   0.0000      14.114955       384.0875 
 135   0.0000      14.115549       384.1036 
 136   0.0000      14.121360       384.2618 
 137   0.0000      14.121904       384.2765 
 138   0.0000      14.134885       384.6298 
 139   0.0000      14.135782       384.6542 
 140   0.0000      14.157642       385.2490 
 141   0.0000      14.169116       385.5612 
 142   0.0000      14.241072       387.5193 

                    ********************************
                    * MULLIKEN POPULATION ANALYSIS *
                    ********************************

--------------------------------------------
MULLIKEN ATOMIC CHARGES AND SPIN POPULATIONS
--------------------------------------------
   0 Ni:    0.559913    0.966342
   1 Cl:   -0.559913    0.033658
Sum of atomic charges         :   -0.0000000
Sum of atomic spin populations:    1.0000000

-----------------------------------------------------
MULLIKEN REDUCED ORBITAL CHARGES AND SPIN POPULATIONS
-----------------------------------------------------
CHARGE
  0 Nis       :     6.344612  s :     6.344612
      pz      :     4.071545  p :    12.155369
      px      :     4.042541
      py      :     4.041283
      dz2     :     1.902237  d :     8.931090
      dxz     :     1.662176
      dyz     :     1.372441
      dx2y2   :     1.998602
      dxy     :     1.995635
      f0      :     0.003296  f :     0.008778
      f+1     :     0.002635
      f-1     :     0.002616
      f+2     :     0.000086
      f-2     :     0.000111
      f+3     :     0.000017
      f-3     :     0.000017
      g0      :     0.000085  g :     0.000237
      g+1     :     0.000046
      g-1     :     0.000043
      g+2     :     0.000008
      g-2     :     0.000015
      g+3     :     0.000009
      g-3     :     0.000009
      g+4     :     0.000011
      g-4     :     0.000011
  1 Cls       :     5.979431  s :     5.979431
      pz      :     3.692940  p :    11.551695
      px      :     3.936435
      py      :     3.922319
      dz2     :     0.009331  d :     0.025186
      dxz     :     0.007490
      dyz     :     0.007242
      dx2y2   :     0.000555
      dxy     :     0.000568
      f0      :     0.000105  f :     0.003601
      f+1     :     0.001407
      f-1     :     0.001272
      f+2     :     0.000404
      f-2     :     0.000410
      f+3     :     0.000001
      f-3     :     0.000001

SPIN
  0 Nis       :    -0.020523  s :    -0.020523
      pz      :     0.003185  p :     0.003455
      px      :    -0.000491
      py      :     0.000761
      dz2     :     0.022802  d :     0.983108
      dxz     :     0.332825
      dyz     :     0.624140
      dx2y2   :     0.000349
      dxy     :     0.002992
      f0      :     0.000073  f :     0.000274
      f+1     :     0.000068
      f-1     :     0.000094
      f+2     :     0.000004
      f-2     :     0.000017
      f+3     :     0.000009
      f-3     :     0.000008
      g0      :    -0.000020  g :     0.000028
      g+1     :     0.000001
      g-1     :     0.000002
      g+2     :     0.000008
      g-2     :     0.000011
      g+3     :     0.000009
      g-3     :     0.000009
      g+4     :     0.000004
      g-4     :     0.000004
  1 Cls       :    -0.003772  s :    -0.003772
      pz      :    -0.004823  p :     0.038168
      px      :     0.015081
      py      :     0.027909
      dz2     :    -0.000176  d :    -0.000848
      dxz     :    -0.000287
      dyz     :    -0.000270
      dx2y2   :    -0.000055
      dxy     :    -0.000060
      f0      :    -0.000008  f :     0.000110
      f+1     :     0.000028
      f-1     :     0.000102
      f+2     :    -0.000006
      f-2     :    -0.000008
      f+3     :     0.000001
      f-3     :     0.000001


                     *******************************
                     * LOEWDIN POPULATION ANALYSIS *
                     *******************************

-------------------------------------------
LOEWDIN ATOMIC CHARGES AND SPIN POPULATIONS
-------------------------------------------
   0 Ni:    0.093536    0.949692
   1 Cl:   -0.093536    0.050308

----------------------------------------------------
LOEWDIN REDUCED ORBITAL CHARGES AND SPIN POPULATIONS
----------------------------------------------------
CHARGE
  0 Nis       :     6.335831  s :     6.335831
      pz      :     4.226121  p :    12.386017
      px      :     4.082048
      py      :     4.077848
      dz2     :     2.005889  d :     9.121611
      dxz     :     1.706509
      dyz     :     1.425784
      dx2y2   :     1.993200
      dxy     :     1.990230
      f0      :     0.028053  f :     0.062123
      f+1     :     0.017069
      f-1     :     0.016578
      f+2     :     0.000182
      f-2     :     0.000208
      f+3     :     0.000017
      f-3     :     0.000017
      g0      :     0.000446  g :     0.000883
      g+1     :     0.000191
      g-1     :     0.000187
      g+2     :     0.000006
      g-2     :     0.000013
      g+3     :     0.000009
      g-3     :     0.000009
      g+4     :     0.000011
      g-4     :     0.000011
  1 Cls       :     5.623911  s :     5.623911
      pz      :     3.646356  p :    11.222708
      px      :     3.794305
      py      :     3.782048
      dz2     :     0.092845  d :     0.152444
      dxz     :     0.029031
      dyz     :     0.024795
      dx2y2   :     0.002878
      dxy     :     0.002895
      f0      :     0.044132  f :     0.094472
      f+1     :     0.023578
      f-1     :     0.019977
      f+2     :     0.003389
      f-2     :     0.003393
      f+3     :     0.000001
      f-3     :     0.000001

SPIN
  0 Nis       :    -0.024446  s :    -0.024446
      pz      :     0.003728  p :     0.009470
      px      :     0.001139
      py      :     0.004602
      dz2     :     0.022532  d :     0.963211
      dxz     :     0.326300
      dyz     :     0.610425
      dx2y2   :     0.000654
      dxy     :     0.003299
      f0      :     0.000061  f :     0.001425
      f+1     :     0.000457
      f-1     :     0.000875
      f+2     :     0.000002
      f-2     :     0.000013
      f+3     :     0.000009
      f-3     :     0.000008
      g0      :    -0.000020  g :     0.000032
      g+1     :     0.000004
      g-1     :     0.000007
      g+2     :     0.000006
      g-2     :     0.000009
      g+3     :     0.000009
      g-3     :     0.000009
      g+4     :     0.000004
      g-4     :     0.000004
  1 Cls       :    -0.001162  s :    -0.001162
      pz      :    -0.003659  p :     0.034662
      px      :     0.013498
      py      :     0.024823
      dz2     :    -0.000239  d :     0.007593
      dxz     :     0.002612
      dyz     :     0.005678
      dx2y2   :    -0.000226
      dxy     :    -0.000233
      f0      :    -0.000059  f :     0.009215
      f+1     :     0.003215
      f-1     :     0.006328
      f+2     :    -0.000136
      f-2     :    -0.000135
      f+3     :     0.000001
      f-3     :     0.000001


                      *****************************
                      * MAYER POPULATION ANALYSIS *
                      *****************************

  NA   - Mulliken gross atomic population
  ZA   - Total nuclear charge
  QA   - Mulliken gross atomic charge
  VA   - Mayer's total valence
  BVA  - Mayer's bonded valence
  FA   - Mayer's free valence

  ATOM       NA         ZA         QA         VA         BVA        FA
  0 Ni    27.4401    28.0000     0.5599     1.9075     0.9644     0.9431
  1 Cl    17.5599    17.0000    -0.5599     0.9674     0.9644     0.0030

  Mayer bond orders larger than 0.100000
B(  0-Ni,  1-Cl) :   0.9644 

-------
TIMINGS
-------

Total SCF time: 0 days 0 hours 6 min 5 sec 

Total time                  ....     365.813 sec
Sum of individual times     ....     365.350 sec  ( 99.9%)

Fock matrix formation       ....     364.907 sec  ( 99.8%)
  XC integration            ....       0.476 sec  (  0.1% of F)
    Basis function eval.    ....       0.106 sec  ( 22.3% of XC)
    Density eval.           ....       0.056 sec  ( 11.8% of XC)
    XC-Functional eval.     ....       0.024 sec  (  5.1% of XC)
    XC-Potential eval.      ....       0.134 sec  ( 28.1% of XC)
Diagonalization             ....       0.114 sec  (  0.0%)
Density matrix formation    ....       0.014 sec  (  0.0%)
Population analysis         ....       0.007 sec  (  0.0%)
Initial guess               ....       0.101 sec  (  0.0%)
Orbital Transformation      ....       0.000 sec  (  0.0%)
Orbital Orthonormalization  ....       0.000 sec  (  0.0%)
DIIS solution               ....       0.034 sec  (  0.0%)
Grid generation             ....       0.173 sec  (  0.0%)

-------------------------   --------------------
FINAL SINGLE POINT ENERGY     -1968.381112674998
-------------------------   --------------------


                            ***************************************
                            *     ORCA property calculations      *
                            ***************************************

                                    ---------------------
                                    Active property flags
                                    ---------------------
   (+) Dipole Moment


------------------------------------------------------------------------------
                       ORCA ELECTRIC PROPERTIES CALCULATION
------------------------------------------------------------------------------

Dipole Moment Calculation                       ... on
Quadrupole Moment Calculation                   ... off
Polarizability Calculation                      ... off
GBWName                                         ... 45_NiCl.gbw
Electron density file                           ... 45_NiCl.scfp
The origin for moment calculation is the CENTER OF MASS  = ( 0.000000,  0.000000  1.401339)

-------------
DIPOLE MOMENT
-------------
                                X             Y             Z
Electronic contribution:      0.00000      -0.00000      -2.38609
Nuclear contribution   :      0.00000       0.00000       0.21916
                        -----------------------------------------
Total Dipole Moment    :      0.00000      -0.00000      -2.16693
                        -----------------------------------------
Magnitude (a.u.)       :      2.16693
Magnitude (Debye)      :      5.50790



--------------------
Rotational spectrum 
--------------------
 
Rotational constants in cm-1:     0.000000     0.174027     0.174027 
Rotational constants in MHz :     0.000000  5217.185595  5217.185595 

 Dipole components along the rotational axes: 
x,y,z [a.u.] :    -2.166931    -0.000000     0.000000 
x,y,z [Debye]:    -5.507900    -0.000000     0.000000 

 

Timings for individual modules:

Sum of individual times         ...      371.634 sec (=   6.194 min)
GTO integral calculation        ...        5.051 sec (=   0.084 min)   1.4 %
SCF iterations                  ...      366.584 sec (=   6.110 min)  98.6 %
                             ****ORCA TERMINATED NORMALLY****
TOTAL RUN TIME: 0 days 0 hours 6 minutes 12 seconds 369 msec
