
                                 *****************
                                 * O   R   C   A *
                                 *****************

           --- An Ab Initio, DFT and Semiempirical electronic structure package ---

                  #######################################################
                  #                        -***-                        #
                  #          Department of theory and spectroscopy      #
                  #               Directorship: Frank Neese             #
                  #        Max Planck Institute fuer Kohlenforschung    #
                  #                Kaiser Wilhelm Platz 1               #
                  #                 D-45470 Muelheim/Ruhr               #
                  #                      Germany                        #
                  #                                                     #
                  #                  All rights reserved                #
                  #                        -***-                        #
                  #######################################################


                         Program Version 4.2.0 -  RELEASE  -


 With contributions from (in alphabetic order):
   Daniel Aravena         : Magnetic Suceptibility
   Michael Atanasov       : Ab Initio Ligand Field Theory (pilot matlab implementation)
   Alexander A. Auer      : GIAO ZORA, VPT2
   Ute Becker             : Parallelization
   Giovanni Bistoni       : ED, misc. LED, open-shell LED, HFLED
   Martin Brehm           : Molecular dynamics
   Dmytro Bykov           : SCF Hessian
   Vijay G. Chilkuri      : MRCI spin determinant printing, contributions to CSF-ICE
   Dipayan Datta          : RHF DLPNO-CCSD density
   Achintya Kumar Dutta   : EOM-CC, STEOM-CC
   Dmitry Ganyushin       : Spin-Orbit,Spin-Spin,Magnetic field MRCI
   Miquel Garcia          : C-PCM Hessian, Gaussian charge scheme
   Yang Guo               : DLPNO-NEVPT2, CIM, IAO-localization
   Andreas Hansen         : Spin unrestricted coupled pair/coupled cluster methods
   Benjamin Helmich-Paris : CASSCF linear response (MC-RPA)
   Lee Huntington         : MR-EOM, pCC
   Robert Izsak           : Overlap fitted RIJCOSX, COSX-SCS-MP3, EOM
   Christian Kollmar      : KDIIS, OOCD, Brueckner-CCSD(T), CCSD density
   Simone Kossmann        : Meta GGA functionals, TD-DFT gradient, OOMP2, MP2 Hessian
   Martin Krupicka        : AUTO-CI
   Lucas Lang             : DCDCAS
   Dagmar Lenk            : GEPOL surface, SMD
   Dimitrios Liakos       : Extrapolation schemes; Compound Job, initial MDCI parallelization
   Dimitrios Manganas     : Further ROCIS development; embedding schemes
   Dimitrios Pantazis     : SARC Basis sets
   Taras Petrenko         : DFT Hessian,TD-DFT gradient, ASA, ECA, R-Raman, ABS, FL, XAS/XES, NRVS
   Peter Pinski           : DLPNO-MP2, DLPNO-MP2 Gradient
   Christoph Reimann      : Effective Core Potentials
   Marius Retegan         : Local ZFS, SOC
   Christoph Riplinger    : Optimizer, TS searches, QM/MM, DLPNO-CCSD(T), (RO)-DLPNO pert. Triples
   Tobias Risthaus        : Range-separated hybrids, TD-DFT gradient, RPA, STAB
   Michael Roemelt        : Original ROCIS implementation
   Masaaki Saitow         : Open-shell DLPNO-CCSD energy and density
   Barbara Sandhoefer     : DKH picture change effects
   Avijit Sen             : IP-ROCIS
   Kantharuban Sivalingam : CASSCF convergence, NEVPT2, FIC-MRCI
   Bernardo de Souza      : ESD, SOC TD-DFT
   Georgi Stoychev        : AutoAux, RI-MP2 NMR
   Willem Van den Heuvel  : Paramagnetic NMR
   Boris Wezisla          : Elementary symmetry handling
   Frank Wennmohs         : Technical directorship


 We gratefully acknowledge several colleagues who have allowed us to
 interface, adapt or use parts of their codes:
   Stefan Grimme, W. Hujo, H. Kruse,             : VdW corrections, initial TS optimization,
                  C. Bannwarth                     DFT functionals, gCP, sTDA/sTD-DF
   Ed Valeev, F. Pavosevic, A. Kumar             : LibInt (2-el integral package), F12 methods
   Garnet Chan, S. Sharma, J. Yang, R. Olivares  : DMRG
   Ulf Ekstrom                                   : XCFun DFT Library
   Mihaly Kallay                                 : mrcc  (arbitrary order and MRCC methods)
   Andreas Klamt, Michael Diedenhofen            : otool_cosmo (COSMO solvation model)
   Jiri Pittner, Ondrej Demel                    : Mk-CCSD
   Frank Weinhold                                : gennbo (NPA and NBO analysis)
   Christopher J. Cramer and Donald G. Truhlar   : smd solvation model
   Lars Goerigk                                  : TD-DFT with DH, B97 family of functionals
   V. Asgeirsson, H. Jonsson                     : NEB implementation
   FAccTs GmbH                                   : IRC, NEB, NEB-TS, Multilevel, MM, QM/MM, CI optimization
   S Lehtola, MJT Oliveira, MAL Marques          : LibXC Library


 Your calculation uses the libint2 library for the computation of 2-el integrals
 For citations please refer to: http://libint.valeyev.net

 Your ORCA version has been built with support for libXC version: 4.2.3
 For citations please refer to: https://tddft.org/programs/libxc/

 This ORCA versions uses:
   CBLAS   interface :  Fast vector & matrix operations
   LAPACKE interface :  Fast linear algebra routines
   SCALAPACK package :  Parallel linear algebra routines


Your calculation utilizes the DFT-NL dispersion correction.
Cite in your paper:
Vydrov, O. A.; Van Voorhis, T. J. Chem. Phys. 2010, 133, 244103
Hujo, W.; Grimme, S. J. Chem. Theory Comput. 2011, 7, 3866 
   

----- Orbital basis set information -----
Your calculation utilizes the basis: aug-cc-pVTZ 
    H, B-Ne : Obtained from the ccRepo (grant-hill.group.shef.ac.uk/ccrepo) Feb. 2017
              R. A. Kendall, T. H. Dunning, Jr., R. J. Harrison, J. Chem. Phys. 96, 6796 (1992)
         He : Obtained from the ccRepo (grant-hill.group.shef.ac.uk/ccrepo) Feb. 2017
              D. E. Woon, T. H. Dunning, Jr., J. Chem. Phys. 100, 2975 (1994)
  Li-Be, Na : Obtained from the ccRepo (grant-hill.group.shef.ac.uk/ccrepo) Feb. 2017
              B. P. Prascher, D. E. Woon, K. A. Peterson, T. H. Dunning, Jr., A. K. Wilson, Theor. Chem. Acc. 128, 69 (2011)
         Mg : Obtained from the Peterson Research Group Website (tyr0.chem.wsu.edu/~kipeters) Feb. 2017
              B. P. Prascher, D. E. Woon, K. A. Peterson, T. H. Dunning, Jr., A. K. Wilson, Theor. Chem. Acc. 128, 69 (2011)
      Al-Ar : Obtained from the ccRepo (grant-hill.group.shef.ac.uk/ccrepo) Feb. 2017
              D. E. Woon, T. H. Dunning, Jr., J. Chem. Phys. 98, 1358 (1993)
      Sc-Zn : Obtained from the ccRepo (grant-hill.group.shef.ac.uk/ccrepo) Feb. 2017
              N. B. Balabanov, K. A. Peterson, J. Chem. Phys. 123, 064107 (2005)
              N. B. Balabanov, K. A. Peterson, J. Chem. Phys. 125, 074110 (2006)
      Ga-Kr : Obtained from the ccRepo (grant-hill.group.shef.ac.uk/ccrepo) Feb. 2017
              A. K. Wilson, D. E. Woon, K. A. Peterson, T. H. Dunning, Jr., J. Chem. Phys. 110, 7667 (1999)
     Ag, Au : Obtained from the Peterson Research Group Website (tyr0.chem.wsu.edu/~kipeters) Feb. 2017
              K. A. Peterson, C. Puzzarini, Theor. Chem. Acc. 114, 283 (2005)

----- AuxJK basis set information -----
Your calculation utilizes the auxiliary basis: def2/JK
   H-Ba, Hf-Rn: F. Weigend, J. Comput. Chem. 29, 167 (2008).

================================================================================
                                        WARNINGS
                       Please study these warnings very carefully!
================================================================================


WARNING: your system is open-shell and RHF/RKS was chosen
  ===> : WILL SWITCH to UHF/UKS


INFO   : the flag for use of LIBINT has been found!

================================================================================
                                       INPUT FILE
================================================================================
NAME = 48_NiS.in
|  1> #
|  2> # 48_NiS wb97x-v/aug-cc-pvtz
|  3> #
|  4> ! wb97x-v aug-cc-pvtz def2/jk grid4 nofinalgrid
|  5> 
|  6> *xyz 0 3
|  7>   Ni  0.00000000000000      0.00000000000000      0.01491413562016
|  8>   S   0.00000000000000      0.00000000000000      1.98508586437984
|  9> *
| 10> 
| 11> %pal
| 12> nprocs 24
| 13> end
| 14> 
| 15> 
| 16>                          ****END OF INPUT****
================================================================================

                       ****************************
                       * Single Point Calculation *
                       ****************************

---------------------------------
CARTESIAN COORDINATES (ANGSTROEM)
---------------------------------
  Ni     0.000000    0.000000    0.014914
  S      0.000000    0.000000    1.985086

----------------------------
CARTESIAN COORDINATES (A.U.)
----------------------------
  NO LB      ZA    FRAG     MASS         X           Y           Z
   0 Ni   28.0000    0    58.700    0.000000    0.000000    0.028184
   1 S    16.0000    0    32.060    0.000000    0.000000    3.751269

--------------------------------
INTERNAL COORDINATES (ANGSTROEM)
--------------------------------
 Ni     0   0   0     0.000000000000     0.00000000     0.00000000
 S      1   0   0     1.970171728760     0.00000000     0.00000000

---------------------------
INTERNAL COORDINATES (A.U.)
---------------------------
 Ni     0   0   0     0.000000000000     0.00000000     0.00000000
 S      1   0   0     3.723085004150     0.00000000     0.00000000

---------------------
BASIS SET INFORMATION
---------------------
There are 2 groups of distinct atoms

 Group   1 Type Ni  : 116s77p23d3f2g contracted to 8s7p5d3f2g pattern {19191919191911/151515151511/77711/111/11}
 Group   2 Type S   : 42s17p3d2f contracted to 6s5p3d2f pattern {131313111/77111/111/11}

Atom   0Ni   basis set group =>   1
Atom   1S    basis set group =>   2
----------------------------------
AUXILIARY/JK BASIS SET INFORMATION
----------------------------------
There are 2 groups of distinct atoms

 Group   1 Type Ni  : 19s14p12d10f7g3h1i contracted to 16s13p11d9f5g3h1i pattern {4111111111111111/2111111111111/21111111111/211111111/31111/111/1}
 Group   2 Type S   : 16s12p10d4f1g contracted to 13s11p9d4f1g pattern {4111111111111/21111111111/211111111/1111/1}

Atom   0Ni   basis set group =>   1
Atom   1S    basis set group =>   2


           ************************************************************
           *        Program running with 24 parallel MPI-processes    *
           *              working on a common directory               *
           ************************************************************
------------------------------------------------------------------------------
                           ORCA GTO INTEGRAL CALCULATION
------------------------------------------------------------------------------

                         BASIS SET STATISTICS AND STARTUP INFO

 # of primitive gaussian shells          ...  285
 # of primitive gaussian functions       ...  623
 # of contracted shells                  ...   41
 # of contracted basis functions         ...  143
 Highest angular momentum                ...    4
 Maximum contraction depth               ...   19
 Integral package used                   ... LIBINT
 Integral threshhold            Thresh   ...  1.000e-10
 Primitive cut-off              TCut     ...  1.000e-11


------------------------------ INTEGRAL EVALUATION ----------------------------


 * One electron integrals 
 Pre-screening matrix                    ... done
 Shell pair data                         ... done (   0.001 sec)



           ************************************************************
           *        Program running with 24 parallel MPI-processes    *
           *              working on a common directory               *
           ************************************************************
-------------------------------------------------------------------------------
                                 ORCA SCF
-------------------------------------------------------------------------------

------------
SCF SETTINGS
------------
Hamiltonian:
 Density Functional     Method          .... DFT(GTOs)
 Exchange Functional    Exchange        .... WB97X-V
 Correlation Functional Correlation     .... WB97X-V
 Gradients option       PostSCFGGA      .... off
 Hybrid DFT is turned on
   Fraction HF Exchange ScalHFX         ....  0.167000
   Scaling of DF-GGA-X  ScalDFX         ....  0.000000
   Scaling of DF-GGA-C  ScalDFC         ....  1.000000
   Scaling of DF-LDA-C  ScalLDAC        ....  1.000000
   Perturbative correction              ....  0.000000
   Density functional embedding theory  .... OFF
 Long-range corrected/Screened/Range-Separated Hybrid DFT is turned on
   Amount of maximum screened exact exchange              ....  0.833000
   Range separation parameter mu (erf(mu*r12)/r12)        ....  0.300000
   NL short-range parameter             ....  6.000000
   NL long-range parameter              ....  0.010000


General Settings:
 Integral files         IntName         .... 48_NiS
 Hartree-Fock type      HFTyp           .... UHF
 Total Charge           Charge          ....    0
 Multiplicity           Mult            ....    3
 Number of Electrons    NEL             ....   44
 Basis Dimension        Dim             ....  143
 Nuclear Repulsion      ENuc            ....    120.3303173311 Eh

Convergence Acceleration:
 DIIS                   CNVDIIS         .... on
   Start iteration      DIISMaxIt       ....    12
   Startup error        DIISStart       ....  0.200000
   # of expansion vecs  DIISMaxEq       ....     5
   Bias factor          DIISBfac        ....   1.050
   Max. coefficient     DIISMaxC        ....  10.000
 Newton-Raphson         CNVNR           .... off
 SOSCF                  CNVSOSCF        .... off
 Level Shifting         CNVShift        .... on
   Level shift para.    LevelShift      ....    0.2500
   Turn off err/grad.   ShiftErr        ....    0.0010
 Zerner damping         CNVZerner       .... off
 Static damping         CNVDamp         .... on
   Fraction old density DampFac         ....    0.7000
   Max. Damping (<1)    DampMax         ....    0.9800
   Min. Damping (>=0)   DampMin         ....    0.0000
   Turn off err/grad.   DampErr         ....    0.1000
 Fernandez-Rico         CNVRico         .... off

SCF Procedure:
 Maximum # iterations   MaxIter         ....   125
 SCF integral mode      SCFMode         .... Direct
   Integral package                     .... LIBINT
 Reset frequency        DirectResetFreq ....    20
 Integral Threshold     Thresh          ....  1.000e-10 Eh
 Primitive CutOff       TCut            ....  1.000e-11 Eh

Convergence Tolerance:
 Convergence Check Mode ConvCheckMode   .... Total+1el-Energy
 Convergence forced     ConvForced      .... 0
 Energy Change          TolE            ....  1.000e-06 Eh
 1-El. energy change                    ....  1.000e-03 Eh
 DIIS Error             TolErr          ....  1.000e-06


Diagonalization of the overlap matrix:
Smallest eigenvalue                        ... 1.255e-04
Time for diagonalization                   ...    0.005 sec
Threshold for overlap eigenvalues          ... 1.000e-08
Number of eigenvalues below threshold      ... 0
Time for construction of square roots      ...    0.003 sec
Total time needed                          ...    0.008 sec

-------------------
DFT GRID GENERATION
-------------------

General Integration Accuracy     IntAcc      ...  4.670
Radial Grid Type                 RadialGrid  ... Gauss-Chebyshev
Angular Grid (max. acc.)         AngularGrid ... Lebedev-302
Angular grid pruning method      GridPruning ... 3 (G Style)
Weight generation scheme         WeightScheme... Becke
Basis function cutoff            BFCut       ...    1.0000e-10
Integration weight cutoff        WCut        ...    1.0000e-14
Grids for H and He will be reduced by one unit

# of grid points (after initial pruning)     ...  16510 (   0.0 sec)
# of grid points (after weights+screening)   ...  16482 (   0.0 sec)
nearest neighbour list constructed           ...    0.0 sec
Grid point re-assignment to atoms done       ...    0.0 sec
Grid point division into batches done        ...    0.1 sec
Reduced shell lists constructed in    0.1 sec

Total number of grid points                  ...    16482
Total number of batches                      ...      258
Average number of points per batch           ...       63
Average number of grid points per atom       ...     8241
Average number of shells per batch           ...    15.83 (38.62%)
Average number of basis functions per batch  ...    40.00 (27.97%)
Average number of large shells per batch     ...     8.25 (52.11%)
Average number of large basis fcns per batch ...    20.08 (50.21%)
Maximum spatial batch extension              ...  23.02, 23.02, 16.62 au
Average spatial batch extension              ...   0.79,  0.78,  0.60 au

Time for grid setup =    0.166 sec

------------------------------
INITIAL GUESS: MODEL POTENTIAL
------------------------------
Loading Hartree-Fock densities                     ... done
Calculating cut-offs                               ... done
Setting up the integral package                    ... done
Initializing the effective Hamiltonian             ... done
Starting the Coulomb interaction                   ... done (   0.0 sec)
Reading the grid                                   ... done
Mapping shells                                     ... done
Starting the XC term evaluation                    ... done (   0.0 sec)
  promolecular density results
     # of electrons  =     44.000033645
     EX              =    -65.780525290
     EC              =     -2.535167843
     EX+EC           =    -68.315693134
Transforming the Hamiltonian                       ... done (   0.0 sec)
Diagonalizing the Hamiltonian                      ... done (   0.0 sec)
Back transforming the eigenvectors                 ... done (   0.0 sec)
Now organizing SCF variables                       ... done
                      ------------------
                      INITIAL GUESS DONE (   0.3 sec)
                      ------------------
--------------
SCF ITERATIONS
--------------
ITER       Energy         Delta-E        Max-DP      RMS-DP      [F,P]     Damp
               ***  Starting incremental Fock matrix formation  ***
  0  -1903.2800538985   0.000000000000 0.20811677  0.00502455  1.7408385 0.7000
  1  -1905.0065090668  -1.726455168265 0.16142113  0.00213629  0.3253472 0.7000
  2  -1905.3344598051  -0.327950738350 0.06421674  0.00165527  0.4286983 0.7000
  3  -1905.6827818484  -0.348322043205 0.04127369  0.00109739  0.2393305 0.7000
                               ***Turning on DIIS***
  4  -1905.9181903686  -0.235408520213 0.13094595  0.00245481  0.0987923 0.0000
  5  -1906.4846021461  -0.566411777563 0.03906485  0.00089558  0.0445550 0.0000
  6  -1906.4959054459  -0.011303299736 0.02341528  0.00047784  0.0552100 0.0000
  7  -1906.5002818955  -0.004376449666 0.01105303  0.00027572  0.0520635 0.0000
  8  -1906.5034898632  -0.003207967690 0.01279880  0.00020253  0.0215247 0.0000
  9  -1906.5049993191  -0.001509455880 0.01527373  0.00020462  0.0125985 0.0000
 10  -1906.5059973063  -0.000997987196 0.01401016  0.00016533  0.0090127 0.0000
 11  -1906.5065040455  -0.000506739166 0.00872002  0.00009697  0.0056792 0.0000
 12  -1906.5066825973  -0.000178551855 0.00482746  0.00005970  0.0026971 0.0000
 13  -1906.5067407222  -0.000058124860 0.00210861  0.00002804  0.0012244 0.0000
 14  -1906.5067548976  -0.000014175465 0.00137150  0.00002193  0.0004904 0.0000
 15  -1906.5067597595  -0.000004861809 0.00038778  0.00000497  0.0006416 0.0000
 16  -1906.5067603866  -0.000000627119 0.00044280  0.00000494  0.0001895 0.0000
                 **** Energy Check signals convergence ****

               *****************************************************
               *                     SUCCESS                       *
               *           SCF CONVERGED AFTER  17 CYCLES          *
               *****************************************************


Setting up the DFT-NL grid :

General Integration Accuracy     IntAcc      ...  4.340
Radial Grid Type                 RadialGrid  ... Gauss-Chebyshev
Angular Grid (max. acc.)         AngularGrid ... Lebedev-110
Angular grid pruning method      GridPruning ... 3 (G Style)
Weight generation scheme         WeightScheme... Becke
Basis function cutoff            BFCut       ...    1.0000e-10
Integration weight cutoff        WCut        ...    1.0000e-14
Grids for H and He will be reduced by one unit

# of grid points (after initial pruning)     ...   4718 (   0.0 sec)
# of grid points (after weights+screening)   ...   4692 (   0.0 sec)
nearest neighbour list constructed           ...    0.0 sec
Grid point re-assignment to atoms done       ...    0.0 sec
Grid point division into batches done        ...    0.0 sec
Reduced shell lists constructed in    0.0 sec

Total number of grid points                  ...     4692
Total number of batches                      ...       74
Average number of points per batch           ...       63
Average number of grid points per atom       ...     2346
Average number of shells per batch           ...    24.00 (58.54%)
Average number of basis functions per batch  ...    72.00 (50.35%)
Average number of large shells per batch     ...    16.00 (66.67%)
Average number of large basis fcns per batch ...    44.80 (62.22%)
Maximum spatial batch extension              ...  17.39, 26.34, 14.81 au
Average spatial batch extension              ...   0.86,  1.19,  0.80 au

Final grid set up in    0.0 sec

-------------------------------------------------------------------------------
                         DFT-NL dispersion correction                          
-------------------------------------------------------------------------------

SC Energy -1906.506760809 
NL    Energy 0.184384173 
SC+NL Energy -1906.322376636 
NL done in    0.0 sec
-------------------------------------------------------------------------------

----------------
TOTAL SCF ENERGY
----------------

Total Energy       :        -1906.32237664 Eh          -51873.66907 eV

Components:
Nuclear Repulsion  :          120.33031733 Eh            3274.35440 eV
Electronic Energy  :        -2026.65269397 Eh          -55148.02347 eV
One Electron Energy:        -2886.91190724 Eh          -78556.86675 eV
Two Electron Energy:          860.25921327 Eh           23408.84328 eV

Virial components:
Potential Energy   :        -3809.80080800 Eh         -103669.95046 eV
Kinetic Energy     :         1903.47843137 Eh           51796.28139 eV
Virial Ratio       :            2.00149408


DFT components:
N(Alpha)           :       23.000005782881 electrons
N(Beta)            :       21.000004345415 electrons
N(Total)           :       44.000010128296 electrons
E(X)               :      -65.888935047453 Eh       
E(C)               :       -2.540418881865 Eh       
NL Energy, E(C,NL) :        0.184384172757 Eh       
E(XC)              :      -68.244969756561 Eh       
DFET-embed. en.    :        0.000000000000 Eh       

---------------
SCF CONVERGENCE
---------------

  Last Energy change         ...   -4.2262e-07  Tolerance :   1.0000e-06
  Last MAX-Density change    ...    1.5989e-04  Tolerance :   1.0000e-05
  Last RMS-Density change    ...    2.2511e-06  Tolerance :   1.0000e-06
  Last DIIS Error            ...    7.6549e-05  Tolerance :   1.0000e-06

             **** THE GBW FILE WAS UPDATED (48_NiS.gbw) ****
             **** DENSITY FILE WAS UPDATED (48_NiS.scfp) ****
             **** ENERGY FILE WAS UPDATED (48_NiS.en.tmp) ****
----------------------
UHF SPIN CONTAMINATION
----------------------

Warning: in a DFT calculation there is little theoretical justification to 
         calculate <S**2> as in Hartree-Fock theory. We will do it anyways
         but you should keep in mind that the values have only limited relevance

Expectation value of <S**2>     :     2.023854
Ideal value S*(S+1) for S=1.0   :     2.000000
Deviation                       :     0.023854

             **** THE GBW FILE WAS UPDATED (48_NiS.gbw) ****
             **** DENSITY FILE WAS UPDATED (48_NiS.scfp) ****
----------------
ORBITAL ENERGIES
----------------
                 SPIN UP ORBITALS
  NO   OCC          E(Eh)            E(eV) 
   0   1.0000    -299.722706     -8155.8695 
   1   1.0000     -88.869239     -2418.2549 
   2   1.0000     -35.841407      -975.2943 
   3   1.0000     -31.270768      -850.9209 
   4   1.0000     -31.248134      -850.3050 
   5   1.0000     -31.248134      -850.3050 
   6   1.0000      -8.023387      -218.3275 
   7   1.0000      -5.979066      -162.6987 
   8   1.0000      -5.979066      -162.6987 
   9   1.0000      -5.974468      -162.5735 
  10   1.0000      -4.173027      -113.5538 
  11   1.0000      -2.796513       -76.0970 
  12   1.0000      -2.747341       -74.7590 
  13   1.0000      -2.747341       -74.7590 
  14   1.0000      -0.790326       -21.5059 
  15   1.0000      -0.475846       -12.9484 
  16   1.0000      -0.475846       -12.9484 
  17   1.0000      -0.467659       -12.7257 
  18   1.0000      -0.415456       -11.3051 
  19   1.0000      -0.415455       -11.3051 
  20   1.0000      -0.353406        -9.6167 
  21   1.0000      -0.343557        -9.3487 
  22   1.0000      -0.343557        -9.3487 
  23   0.0000      -0.037367        -1.0168 
  24   0.0000       0.026501         0.7211 
  25   0.0000       0.026501         0.7211 
  26   0.0000       0.029632         0.8063 
  27   0.0000       0.038936         1.0595 
  28   0.0000       0.080276         2.1844 
  29   0.0000       0.080276         2.1844 
  30   0.0000       0.095699         2.6041 
  31   0.0000       0.119844         3.2611 
  32   0.0000       0.119844         3.2611 
  33   0.0000       0.124266         3.3814 
  34   0.0000       0.127990         3.4828 
  35   0.0000       0.127990         3.4828 
  36   0.0000       0.156698         4.2640 
  37   0.0000       0.156698         4.2640 
  38   0.0000       0.167914         4.5692 
  39   0.0000       0.185002         5.0342 
  40   0.0000       0.264896         7.2082 
  41   0.0000       0.264896         7.2082 
  42   0.0000       0.284175         7.7328 
  43   0.0000       0.292352         7.9553 
  44   0.0000       0.292352         7.9553 
  45   0.0000       0.334260         9.0957 
  46   0.0000       0.378561        10.3012 
  47   0.0000       0.378561        10.3012 
  48   0.0000       0.413367        11.2483 
  49   0.0000       0.438126        11.9220 
  50   0.0000       0.438126        11.9220 
  51   0.0000       0.488886        13.3033 
  52   0.0000       0.488886        13.3033 
  53   0.0000       0.585581        15.9345 
  54   0.0000       0.585581        15.9345 
  55   0.0000       0.626333        17.0434 
  56   0.0000       0.655335        17.8326 
  57   0.0000       0.695599        18.9282 
  58   0.0000       0.695600        18.9282 
  59   0.0000       0.743708        20.2373 
  60   0.0000       0.743708        20.2373 
  61   0.0000       0.755382        20.5550 
  62   0.0000       0.793300        21.5868 
  63   0.0000       0.817170        22.2363 
  64   0.0000       0.817170        22.2363 
  65   0.0000       0.868162        23.6239 
  66   0.0000       0.868162        23.6239 
  67   0.0000       0.975604        26.5475 
  68   0.0000       0.975604        26.5475 
  69   0.0000       1.005885        27.3715 
  70   0.0000       1.091171        29.6923 
  71   0.0000       1.091171        29.6923 
  72   0.0000       1.269856        34.5545 
  73   0.0000       1.387050        37.7435 
  74   0.0000       1.387050        37.7435 
  75   0.0000       1.501922        40.8694 
  76   0.0000       1.501926        40.8695 
  77   0.0000       1.512337        41.1528 
  78   0.0000       1.540090        41.9080 
  79   0.0000       1.540090        41.9080 
  80   0.0000       1.553787        42.2807 
  81   0.0000       1.553787        42.2807 
  82   0.0000       1.594773        43.3960 
  83   0.0000       1.788385        48.6644 
  84   0.0000       1.788385        48.6644 
  85   0.0000       1.901690        51.7476 
  86   0.0000       1.901712        51.7482 
  87   0.0000       2.000324        54.4316 
  88   0.0000       2.000324        54.4316 
  89   0.0000       2.081675        56.6453 
  90   0.0000       2.192614        59.6641 
  91   0.0000       2.198634        59.8279 
  92   0.0000       2.198634        59.8279 
  93   0.0000       2.205069        60.0030 
  94   0.0000       2.205069        60.0030 
  95   0.0000       2.228838        60.6498 
  96   0.0000       2.228838        60.6498 
  97   0.0000       2.356752        64.1305 
  98   0.0000       2.525130        68.7123 
  99   0.0000       2.525130        68.7123 
 100   0.0000       3.220072        87.6226 
 101   0.0000       3.739448       101.7556 
 102   0.0000       3.961224       107.7904 
 103   0.0000       3.961224       107.7904 
 104   0.0000       4.011192       109.1501 
 105   0.0000       4.011205       109.1504 
 106   0.0000       4.042251       109.9952 
 107   0.0000       4.042251       109.9952 
 108   0.0000       4.136374       112.5565 
 109   0.0000       4.136374       112.5565 
 110   0.0000       4.183754       113.8457 
 111   0.0000       4.568028       124.3024 
 112   0.0000       4.997487       135.9885 
 113   0.0000       5.133364       139.6859 
 114   0.0000       5.133364       139.6859 
 115   0.0000       5.148004       140.0843 
 116   0.0000       5.148006       140.0844 
 117   0.0000       5.152627       140.2101 
 118   0.0000       5.152717       140.2126 
 119   0.0000       5.271965       143.4575 
 120   0.0000       5.271965       143.4575 
 121   0.0000       5.584630       151.9655 
 122   0.0000       5.743549       156.2899 
 123   0.0000       5.743549       156.2899 
 124   0.0000       5.972625       162.5234 
 125   0.0000       5.972625       162.5234 
 126   0.0000       7.061416       192.1509 
 127   0.0000      12.515731       340.5704 
 128   0.0000      12.515862       340.5739 
 129   0.0000      12.521103       340.7165 
 130   0.0000      12.521103       340.7165 
 131   0.0000      12.596840       342.7774 
 132   0.0000      12.596840       342.7774 
 133   0.0000      12.620247       343.4144 
 134   0.0000      14.054315       382.4373 
 135   0.0000      14.054315       382.4373 
 136   0.0000      14.056817       382.5054 
 137   0.0000      14.056932       382.5086 
 138   0.0000      14.091782       383.4569 
 139   0.0000      14.091921       383.4607 
 140   0.0000      14.133944       384.6042 
 141   0.0000      14.133944       384.6042 
 142   0.0000      14.219929       386.9440 

                 SPIN DOWN ORBITALS
  NO   OCC          E(Eh)            E(eV) 
   0   1.0000    -299.722351     -8155.8598 
   1   1.0000     -88.864723     -2418.1320 
   2   1.0000     -35.813595      -974.5375 
   3   1.0000     -31.241000      -850.1108 
   4   1.0000     -31.229504      -849.7980 
   5   1.0000     -31.229504      -849.7980 
   6   1.0000      -8.019077      -218.2102 
   7   1.0000      -5.971379      -162.4895 
   8   1.0000      -5.970008      -162.4522 
   9   1.0000      -5.970008      -162.4522 
  10   1.0000      -4.114835      -111.9704 
  11   1.0000      -2.712722       -73.8169 
  12   1.0000      -2.695075       -73.3367 
  13   1.0000      -2.695075       -73.3367 
  14   1.0000      -0.749754       -20.4018 
  15   1.0000      -0.442116       -12.0306 
  16   1.0000      -0.384482       -10.4623 
  17   1.0000      -0.384481       -10.4623 
  18   1.0000      -0.349465        -9.5094 
  19   1.0000      -0.349465        -9.5094 
  20   1.0000      -0.341083        -9.2813 
  21   0.0000      -0.035813        -0.9745 
  22   0.0000      -0.035813        -0.9745 
  23   0.0000      -0.031491        -0.8569 
  24   0.0000       0.029989         0.8160 
  25   0.0000       0.029989         0.8160 
  26   0.0000       0.031219         0.8495 
  27   0.0000       0.040178         1.0933 
  28   0.0000       0.084391         2.2964 
  29   0.0000       0.084391         2.2964 
  30   0.0000       0.097051         2.6409 
  31   0.0000       0.121151         3.2967 
  32   0.0000       0.121151         3.2967 
  33   0.0000       0.125981         3.4281 
  34   0.0000       0.134133         3.6500 
  35   0.0000       0.134133         3.6500 
  36   0.0000       0.160176         4.3586 
  37   0.0000       0.160176         4.3586 
  38   0.0000       0.170254         4.6329 
  39   0.0000       0.187312         5.0970 
  40   0.0000       0.268509         7.3065 
  41   0.0000       0.268509         7.3065 
  42   0.0000       0.286253         7.7894 
  43   0.0000       0.302795         8.2395 
  44   0.0000       0.302795         8.2395 
  45   0.0000       0.340554         9.2670 
  46   0.0000       0.389939        10.6108 
  47   0.0000       0.389939        10.6108 
  48   0.0000       0.417042        11.3483 
  49   0.0000       0.440593        11.9891 
  50   0.0000       0.440593        11.9892 
  51   0.0000       0.497635        13.5413 
  52   0.0000       0.497635        13.5413 
  53   0.0000       0.594288        16.1714 
  54   0.0000       0.594288        16.1714 
  55   0.0000       0.634345        17.2614 
  56   0.0000       0.656170        17.8553 
  57   0.0000       0.723290        19.6817 
  58   0.0000       0.723290        19.6817 
  59   0.0000       0.757279        20.6066 
  60   0.0000       0.757279        20.6066 
  61   0.0000       0.768095        20.9009 
  62   0.0000       0.800834        21.7918 
  63   0.0000       0.822509        22.3816 
  64   0.0000       0.822509        22.3816 
  65   0.0000       0.871608        23.7177 
  66   0.0000       0.871609        23.7177 
  67   0.0000       0.982735        26.7416 
  68   0.0000       0.982735        26.7416 
  69   0.0000       1.012622        27.5548 
  70   0.0000       1.099726        29.9251 
  71   0.0000       1.099726        29.9251 
  72   0.0000       1.277873        34.7727 
  73   0.0000       1.386115        37.7181 
  74   0.0000       1.386115        37.7181 
  75   0.0000       1.517319        41.2884 
  76   0.0000       1.517323        41.2884 
  77   0.0000       1.525239        41.5039 
  78   0.0000       1.555625        42.3307 
  79   0.0000       1.555626        42.3307 
  80   0.0000       1.563789        42.5529 
  81   0.0000       1.563789        42.5529 
  82   0.0000       1.603230        43.6261 
  83   0.0000       1.801696        49.0266 
  84   0.0000       1.801696        49.0266 
  85   0.0000       1.927826        52.4588 
  86   0.0000       1.927844        52.4593 
  87   0.0000       2.015978        54.8576 
  88   0.0000       2.015978        54.8576 
  89   0.0000       2.093253        56.9603 
  90   0.0000       2.202696        59.9384 
  91   0.0000       2.224830        60.5407 
  92   0.0000       2.224830        60.5407 
  93   0.0000       2.231055        60.7101 
  94   0.0000       2.231055        60.7101 
  95   0.0000       2.249173        61.2031 
  96   0.0000       2.249174        61.2031 
  97   0.0000       2.364320        64.3364 
  98   0.0000       2.541567        69.1595 
  99   0.0000       2.541567        69.1595 
 100   0.0000       3.238966        88.1367 
 101   0.0000       3.767444       102.5174 
 102   0.0000       3.972914       108.1085 
 103   0.0000       3.972914       108.1085 
 104   0.0000       4.054187       110.3200 
 105   0.0000       4.054191       110.3201 
 106   0.0000       4.064123       110.5904 
 107   0.0000       4.064123       110.5904 
 108   0.0000       4.170278       113.4790 
 109   0.0000       4.170278       113.4790 
 110   0.0000       4.204406       114.4077 
 111   0.0000       4.594226       125.0153 
 112   0.0000       5.010376       136.3393 
 113   0.0000       5.156724       140.3216 
 114   0.0000       5.156817       140.3241 
 115   0.0000       5.156877       140.3257 
 116   0.0000       5.156877       140.3257 
 117   0.0000       5.171617       140.7268 
 118   0.0000       5.171623       140.7270 
 119   0.0000       5.293007       144.0300 
 120   0.0000       5.293007       144.0300 
 121   0.0000       5.597686       152.3208 
 122   0.0000       5.767901       156.9526 
 123   0.0000       5.767905       156.9527 
 124   0.0000       6.033638       164.1836 
 125   0.0000       6.033638       164.1836 
 126   0.0000       7.088739       192.8944 
 127   0.0000      12.549722       341.4953 
 128   0.0000      12.549722       341.4953 
 129   0.0000      12.597178       342.7866 
 130   0.0000      12.597301       342.7900 
 131   0.0000      12.658311       344.4502 
 132   0.0000      12.658311       344.4502 
 133   0.0000      12.665973       344.6586 
 134   0.0000      14.106207       383.8494 
 135   0.0000      14.106207       383.8494 
 136   0.0000      14.107742       383.8912 
 137   0.0000      14.107763       383.8918 
 138   0.0000      14.107853       383.8942 
 139   0.0000      14.107895       383.8953 
 140   0.0000      14.172114       385.6428 
 141   0.0000      14.172114       385.6428 
 142   0.0000      14.252581       387.8324 

                    ********************************
                    * MULLIKEN POPULATION ANALYSIS *
                    ********************************

--------------------------------------------
MULLIKEN ATOMIC CHARGES AND SPIN POPULATIONS
--------------------------------------------
   0 Ni:    0.298388    1.045864
   1 S :   -0.298388    0.954136
Sum of atomic charges         :    0.0000000
Sum of atomic spin populations:    2.0000000

-----------------------------------------------------
MULLIKEN REDUCED ORBITAL CHARGES AND SPIN POPULATIONS
-----------------------------------------------------
CHARGE
  0 Nis       :     6.619797  s :     6.619797
      pz      :     4.099532  p :    12.233373
      px      :     4.066921
      py      :     4.066921
      dz2     :     1.906966  d :     8.839467
      dxz     :     1.468297
      dyz     :     1.468297
      dx2y2   :     1.997953
      dxy     :     1.997954
      f0      :     0.002661  f :     0.008605
      f+1     :     0.002894
      f-1     :     0.002894
      f+2     :     0.000078
      f-2     :     0.000078
      f+3     :     0.000000
      f-3     :     0.000000
      g0      :     0.000147  g :     0.000370
      g+1     :     0.000098
      g-1     :     0.000098
      g+2     :     0.000013
      g-2     :     0.000013
      g+3     :     0.000000
      g-3     :     0.000000
      g+4     :     0.000000
      g-4     :     0.000000
  1 S s       :     5.908624  s :     5.908624
      pz      :     3.455386  p :    10.334358
      px      :     3.439486
      py      :     3.439486
      dz2     :     0.006228  d :     0.048547
      dxz     :     0.019911
      dyz     :     0.019911
      dx2y2   :     0.001248
      dxy     :     0.001248
      f0      :     0.000659  f :     0.006859
      f+1     :     0.002393
      f-1     :     0.002393
      f+2     :     0.000707
      f-2     :     0.000707
      f+3     :     0.000000
      f-3     :     0.000000

SPIN
  0 Nis       :    -0.009922  s :    -0.009922
      pz      :    -0.002526  p :     0.002252
      px      :     0.002389
      py      :     0.002389
      dz2     :     0.012138  d :     1.051888
      dxz     :     0.519785
      dyz     :     0.519785
      dx2y2   :     0.000090
      dxy     :     0.000090
      f0      :     0.000389  f :     0.001670
      f+1     :     0.000608
      f-1     :     0.000608
      f+2     :     0.000033
      f-2     :     0.000033
      f+3     :     0.000000
      f-3     :     0.000000
      g0      :    -0.000017  g :    -0.000024
      g+1     :    -0.000015
      g-1     :    -0.000015
      g+2     :     0.000012
      g-2     :     0.000012
      g+3     :     0.000000
      g-3     :     0.000000
      g+4     :     0.000000
      g-4     :     0.000000
  1 S s       :     0.002015  s :     0.002015
      pz      :    -0.001811  p :     0.975927
      px      :     0.488869
      py      :     0.488869
      dz2     :    -0.000441  d :    -0.021224
      dxz     :    -0.010315
      dyz     :    -0.010315
      dx2y2   :    -0.000077
      dxy     :    -0.000077
      f0      :     0.000175  f :    -0.002582
      f+1     :    -0.001321
      f-1     :    -0.001321
      f+2     :    -0.000057
      f-2     :    -0.000057
      f+3     :     0.000000
      f-3     :     0.000000


                     *******************************
                     * LOEWDIN POPULATION ANALYSIS *
                     *******************************

-------------------------------------------
LOEWDIN ATOMIC CHARGES AND SPIN POPULATIONS
-------------------------------------------
   0 Ni:    0.010705    1.171564
   1 S :   -0.010705    0.828436

----------------------------------------------------
LOEWDIN REDUCED ORBITAL CHARGES AND SPIN POPULATIONS
----------------------------------------------------
CHARGE
  0 Nis       :     6.448869  s :     6.448869
      pz      :     4.265312  p :    12.450283
      px      :     4.092486
      py      :     4.092486
      dz2     :     2.024296  d :     9.030161
      dxz     :     1.518445
      dyz     :     1.518445
      dx2y2   :     1.984487
      dxy     :     1.984488
      f0      :     0.024766  f :     0.059007
      f+1     :     0.016816
      f-1     :     0.016816
      f+2     :     0.000305
      f-2     :     0.000305
      f+3     :     0.000000
      f-3     :     0.000000
      g0      :     0.000466  g :     0.000975
      g+1     :     0.000246
      g-1     :     0.000246
      g+2     :     0.000009
      g-2     :     0.000009
      g+3     :     0.000000
      g-3     :     0.000000
      g+4     :     0.000000
      g-4     :     0.000000
  1 S s       :     5.486203  s :     5.486203
      pz      :     3.540874  p :    10.118122
      px      :     3.288624
      py      :     3.288624
      dz2     :     0.123493  d :     0.225360
      dxz     :     0.045957
      dyz     :     0.045957
      dx2y2   :     0.004977
      dxy     :     0.004976
      f0      :     0.085722  f :     0.181020
      f+1     :     0.037427
      f-1     :     0.037427
      f+2     :     0.010222
      f-2     :     0.010222
      f+3     :     0.000000
      f-3     :     0.000000

SPIN
  0 Nis       :    -0.018950  s :    -0.018950
      pz      :    -0.002118  p :     0.090300
      px      :     0.046209
      py      :     0.046209
      dz2     :     0.013670  d :     1.084103
      dxz     :     0.534316
      dyz     :     0.534316
      dx2y2   :     0.000900
      dxy     :     0.000900
      f0      :     0.000816  f :     0.015977
      f+1     :     0.007519
      f-1     :     0.007519
      f+2     :     0.000062
      f-2     :     0.000062
      f+3     :     0.000000
      f-3     :     0.000000
      g0      :    -0.000010  g :     0.000134
      g+1     :     0.000063
      g-1     :     0.000063
      g+2     :     0.000009
      g-2     :     0.000009
      g+3     :     0.000000
      g-3     :     0.000000
      g+4     :     0.000000
      g-4     :     0.000000
  1 S s       :     0.003722  s :     0.003722
      pz      :     0.003465  p :     0.821354
      px      :     0.408945
      py      :     0.408945
      dz2     :    -0.000363  d :    -0.005494
      dxz     :    -0.002167
      dyz     :    -0.002167
      dx2y2   :    -0.000398
      dxy     :    -0.000398
      f0      :    -0.000231  f :     0.008854
      f+1     :     0.005115
      f-1     :     0.005115
      f+2     :    -0.000572
      f-2     :    -0.000572
      f+3     :     0.000000
      f-3     :     0.000000


                      *****************************
                      * MAYER POPULATION ANALYSIS *
                      *****************************

  NA   - Mulliken gross atomic population
  ZA   - Total nuclear charge
  QA   - Mulliken gross atomic charge
  VA   - Mayer's total valence
  BVA  - Mayer's bonded valence
  FA   - Mayer's free valence

  ATOM       NA         ZA         QA         VA         BVA        FA
  0 Ni    27.7016    28.0000     0.2984     2.9575     2.2378     0.7196
  1 S     16.2984    16.0000    -0.2984     2.7322     2.2378     0.4944

  Mayer bond orders larger than 0.100000
B(  0-Ni,  1-S ) :   2.2378 

-------
TIMINGS
-------

Total SCF time: 0 days 0 hours 5 min 17 sec 

Total time                  ....     317.409 sec
Sum of individual times     ....     317.023 sec  ( 99.9%)

Fock matrix formation       ....     316.597 sec  ( 99.7%)
  XC integration            ....       0.429 sec  (  0.1% of F)
    Basis function eval.    ....       0.091 sec  ( 21.2% of XC)
    Density eval.           ....       0.050 sec  ( 11.5% of XC)
    XC-Functional eval.     ....       0.021 sec  (  4.9% of XC)
    XC-Potential eval.      ....       0.119 sec  ( 27.7% of XC)
Diagonalization             ....       0.092 sec  (  0.0%)
Density matrix formation    ....       0.012 sec  (  0.0%)
Population analysis         ....       0.007 sec  (  0.0%)
Initial guess               ....       0.104 sec  (  0.0%)
Orbital Transformation      ....       0.000 sec  (  0.0%)
Orbital Orthonormalization  ....       0.000 sec  (  0.0%)
DIIS solution               ....       0.030 sec  (  0.0%)
Grid generation             ....       0.181 sec  (  0.1%)

-------------------------   --------------------
FINAL SINGLE POINT ENERGY     -1906.322376636438
-------------------------   --------------------


                            ***************************************
                            *     ORCA property calculations      *
                            ***************************************

                                    ---------------------
                                    Active property flags
                                    ---------------------
   (+) Dipole Moment


------------------------------------------------------------------------------
                       ORCA ELECTRIC PROPERTIES CALCULATION
------------------------------------------------------------------------------

Dipole Moment Calculation                       ... on
Quadrupole Moment Calculation                   ... off
Polarizability Calculation                      ... off
GBWName                                         ... 48_NiS.gbw
Electron density file                           ... 48_NiS.scfp
The origin for moment calculation is the CENTER OF MASS  = ( 0.000000,  0.000000  1.343324)

-------------
DIPOLE MOMENT
-------------
                                X             Y             Z
Electronic contribution:     -0.00000       0.00000      -3.65777
Nuclear contribution   :      0.00000       0.00000       1.70320
                        -----------------------------------------
Total Dipole Moment    :     -0.00000       0.00000      -1.95457
                        -----------------------------------------
Magnitude (a.u.)       :      1.95457
Magnitude (Debye)      :      4.96811



--------------------
Rotational spectrum 
--------------------
 
Rotational constants in cm-1:     0.000000     0.209451     0.209451 
Rotational constants in MHz :     0.000000  6279.170942  6279.170942 

 Dipole components along the rotational axes: 
x,y,z [a.u.] :    -1.954565     0.000000    -0.000000 
x,y,z [Debye]:    -4.968110     0.000000    -0.000000 

 

Timings for individual modules:

Sum of individual times         ...      321.518 sec (=   5.359 min)
GTO integral calculation        ...        3.478 sec (=   0.058 min)   1.1 %
SCF iterations                  ...      318.039 sec (=   5.301 min)  98.9 %
                             ****ORCA TERMINATED NORMALLY****
TOTAL RUN TIME: 0 days 0 hours 5 minutes 22 seconds 158 msec
