
                                 *****************
                                 * O   R   C   A *
                                 *****************

           --- An Ab Initio, DFT and Semiempirical electronic structure package ---

                  #######################################################
                  #                        -***-                        #
                  #          Department of theory and spectroscopy      #
                  #               Directorship: Frank Neese             #
                  #        Max Planck Institute fuer Kohlenforschung    #
                  #                Kaiser Wilhelm Platz 1               #
                  #                 D-45470 Muelheim/Ruhr               #
                  #                      Germany                        #
                  #                                                     #
                  #                  All rights reserved                #
                  #                        -***-                        #
                  #######################################################


                         Program Version 4.2.0 -  RELEASE  -


 With contributions from (in alphabetic order):
   Daniel Aravena         : Magnetic Suceptibility
   Michael Atanasov       : Ab Initio Ligand Field Theory (pilot matlab implementation)
   Alexander A. Auer      : GIAO ZORA, VPT2
   Ute Becker             : Parallelization
   Giovanni Bistoni       : ED, misc. LED, open-shell LED, HFLED
   Martin Brehm           : Molecular dynamics
   Dmytro Bykov           : SCF Hessian
   Vijay G. Chilkuri      : MRCI spin determinant printing, contributions to CSF-ICE
   Dipayan Datta          : RHF DLPNO-CCSD density
   Achintya Kumar Dutta   : EOM-CC, STEOM-CC
   Dmitry Ganyushin       : Spin-Orbit,Spin-Spin,Magnetic field MRCI
   Miquel Garcia          : C-PCM Hessian, Gaussian charge scheme
   Yang Guo               : DLPNO-NEVPT2, CIM, IAO-localization
   Andreas Hansen         : Spin unrestricted coupled pair/coupled cluster methods
   Benjamin Helmich-Paris : CASSCF linear response (MC-RPA)
   Lee Huntington         : MR-EOM, pCC
   Robert Izsak           : Overlap fitted RIJCOSX, COSX-SCS-MP3, EOM
   Christian Kollmar      : KDIIS, OOCD, Brueckner-CCSD(T), CCSD density
   Simone Kossmann        : Meta GGA functionals, TD-DFT gradient, OOMP2, MP2 Hessian
   Martin Krupicka        : AUTO-CI
   Lucas Lang             : DCDCAS
   Dagmar Lenk            : GEPOL surface, SMD
   Dimitrios Liakos       : Extrapolation schemes; Compound Job, initial MDCI parallelization
   Dimitrios Manganas     : Further ROCIS development; embedding schemes
   Dimitrios Pantazis     : SARC Basis sets
   Taras Petrenko         : DFT Hessian,TD-DFT gradient, ASA, ECA, R-Raman, ABS, FL, XAS/XES, NRVS
   Peter Pinski           : DLPNO-MP2, DLPNO-MP2 Gradient
   Christoph Reimann      : Effective Core Potentials
   Marius Retegan         : Local ZFS, SOC
   Christoph Riplinger    : Optimizer, TS searches, QM/MM, DLPNO-CCSD(T), (RO)-DLPNO pert. Triples
   Tobias Risthaus        : Range-separated hybrids, TD-DFT gradient, RPA, STAB
   Michael Roemelt        : Original ROCIS implementation
   Masaaki Saitow         : Open-shell DLPNO-CCSD energy and density
   Barbara Sandhoefer     : DKH picture change effects
   Avijit Sen             : IP-ROCIS
   Kantharuban Sivalingam : CASSCF convergence, NEVPT2, FIC-MRCI
   Bernardo de Souza      : ESD, SOC TD-DFT
   Georgi Stoychev        : AutoAux, RI-MP2 NMR
   Willem Van den Heuvel  : Paramagnetic NMR
   Boris Wezisla          : Elementary symmetry handling
   Frank Wennmohs         : Technical directorship


 We gratefully acknowledge several colleagues who have allowed us to
 interface, adapt or use parts of their codes:
   Stefan Grimme, W. Hujo, H. Kruse,             : VdW corrections, initial TS optimization,
                  C. Bannwarth                     DFT functionals, gCP, sTDA/sTD-DF
   Ed Valeev, F. Pavosevic, A. Kumar             : LibInt (2-el integral package), F12 methods
   Garnet Chan, S. Sharma, J. Yang, R. Olivares  : DMRG
   Ulf Ekstrom                                   : XCFun DFT Library
   Mihaly Kallay                                 : mrcc  (arbitrary order and MRCC methods)
   Andreas Klamt, Michael Diedenhofen            : otool_cosmo (COSMO solvation model)
   Jiri Pittner, Ondrej Demel                    : Mk-CCSD
   Frank Weinhold                                : gennbo (NPA and NBO analysis)
   Christopher J. Cramer and Donald G. Truhlar   : smd solvation model
   Lars Goerigk                                  : TD-DFT with DH, B97 family of functionals
   V. Asgeirsson, H. Jonsson                     : NEB implementation
   FAccTs GmbH                                   : IRC, NEB, NEB-TS, Multilevel, MM, QM/MM, CI optimization
   S Lehtola, MJT Oliveira, MAL Marques          : LibXC Library


 Your calculation uses the libint2 library for the computation of 2-el integrals
 For citations please refer to: http://libint.valeyev.net

 Your ORCA version has been built with support for libXC version: 4.2.3
 For citations please refer to: https://tddft.org/programs/libxc/

 This ORCA versions uses:
   CBLAS   interface :  Fast vector & matrix operations
   LAPACKE interface :  Fast linear algebra routines
   SCALAPACK package :  Parallel linear algebra routines


Your calculation utilizes the DFT-NL dispersion correction.
Cite in your paper:
Vydrov, O. A.; Van Voorhis, T. J. Chem. Phys. 2010, 133, 244103
Hujo, W.; Grimme, S. J. Chem. Theory Comput. 2011, 7, 3866 
   

----- Orbital basis set information -----
Your calculation utilizes the basis: aug-cc-pVTZ 
    H, B-Ne : Obtained from the ccRepo (grant-hill.group.shef.ac.uk/ccrepo) Feb. 2017
              R. A. Kendall, T. H. Dunning, Jr., R. J. Harrison, J. Chem. Phys. 96, 6796 (1992)
         He : Obtained from the ccRepo (grant-hill.group.shef.ac.uk/ccrepo) Feb. 2017
              D. E. Woon, T. H. Dunning, Jr., J. Chem. Phys. 100, 2975 (1994)
  Li-Be, Na : Obtained from the ccRepo (grant-hill.group.shef.ac.uk/ccrepo) Feb. 2017
              B. P. Prascher, D. E. Woon, K. A. Peterson, T. H. Dunning, Jr., A. K. Wilson, Theor. Chem. Acc. 128, 69 (2011)
         Mg : Obtained from the Peterson Research Group Website (tyr0.chem.wsu.edu/~kipeters) Feb. 2017
              B. P. Prascher, D. E. Woon, K. A. Peterson, T. H. Dunning, Jr., A. K. Wilson, Theor. Chem. Acc. 128, 69 (2011)
      Al-Ar : Obtained from the ccRepo (grant-hill.group.shef.ac.uk/ccrepo) Feb. 2017
              D. E. Woon, T. H. Dunning, Jr., J. Chem. Phys. 98, 1358 (1993)
      Sc-Zn : Obtained from the ccRepo (grant-hill.group.shef.ac.uk/ccrepo) Feb. 2017
              N. B. Balabanov, K. A. Peterson, J. Chem. Phys. 123, 064107 (2005)
              N. B. Balabanov, K. A. Peterson, J. Chem. Phys. 125, 074110 (2006)
      Ga-Kr : Obtained from the ccRepo (grant-hill.group.shef.ac.uk/ccrepo) Feb. 2017
              A. K. Wilson, D. E. Woon, K. A. Peterson, T. H. Dunning, Jr., J. Chem. Phys. 110, 7667 (1999)
     Ag, Au : Obtained from the Peterson Research Group Website (tyr0.chem.wsu.edu/~kipeters) Feb. 2017
              K. A. Peterson, C. Puzzarini, Theor. Chem. Acc. 114, 283 (2005)

----- AuxJK basis set information -----
Your calculation utilizes the auxiliary basis: def2/JK
   H-Ba, Hf-Rn: F. Weigend, J. Comput. Chem. 29, 167 (2008).

================================================================================
                                        WARNINGS
                       Please study these warnings very carefully!
================================================================================


INFO   : the flag for use of LIBINT has been found!

================================================================================
                                       INPUT FILE
================================================================================
NAME = 52_CuBr.in
|  1> #
|  2> # 52_CuBr wb97x-v/aug-cc-pvtz
|  3> #
|  4> ! wb97x-v aug-cc-pvtz def2/jk grid4 nofinalgrid
|  5> 
|  6> *xyz 0 1
|  7>   Cu  0.00000000000000      0.00000000000000     -0.09600479667781
|  8>   Br  0.00000000000000      0.00000000000000      2.09600479667781
|  9> *
| 10> 
| 11> %pal
| 12> nprocs 24
| 13> end
| 14> 
| 15> 
| 16>                          ****END OF INPUT****
================================================================================

                       ****************************
                       * Single Point Calculation *
                       ****************************

---------------------------------
CARTESIAN COORDINATES (ANGSTROEM)
---------------------------------
  Cu     0.000000    0.000000   -0.096005
  Br     0.000000    0.000000    2.096005

----------------------------
CARTESIAN COORDINATES (A.U.)
----------------------------
  NO LB      ZA    FRAG     MASS         X           Y           Z
   0 Cu   29.0000    0    63.550    0.000000    0.000000   -0.181423
   1 Br   35.0000    0    79.900    0.000000    0.000000    3.960875

--------------------------------
INTERNAL COORDINATES (ANGSTROEM)
--------------------------------
 Cu     0   0   0     0.000000000000     0.00000000     0.00000000
 Br     1   0   0     2.192009593356     0.00000000     0.00000000

---------------------------
INTERNAL COORDINATES (A.U.)
---------------------------
 Cu     0   0   0     0.000000000000     0.00000000     0.00000000
 Br     1   0   0     4.142297814370     0.00000000     0.00000000

---------------------
BASIS SET INFORMATION
---------------------
There are 2 groups of distinct atoms

 Group   1 Type Cu  : 116s77p23d3f2g contracted to 8s7p5d3f2g pattern {19191919191911/151515151511/77711/111/11}
 Group   2 Type Br  : 75s36p10d2f contracted to 7s6p4d2f pattern {18181818111/111111111/7111/11}

Atom   0Cu   basis set group =>   1
Atom   1Br   basis set group =>   2
----------------------------------
AUXILIARY/JK BASIS SET INFORMATION
----------------------------------
There are 2 groups of distinct atoms

 Group   1 Type Cu  : 19s14p12d10f7g3h1i contracted to 16s13p11d9f5g3h1i pattern {4111111111111111/2111111111111/21111111111/211111111/31111/111/1}
 Group   2 Type Br  : 20s14p13d10f7g3h contracted to 17s13p12d9f6g3h pattern {41111111111111111/2111111111111/211111111111/211111111/211111/111}

Atom   0Cu   basis set group =>   1
Atom   1Br   basis set group =>   2


           ************************************************************
           *        Program running with 24 parallel MPI-processes    *
           *              working on a common directory               *
           ************************************************************
------------------------------------------------------------------------------
                           ORCA GTO INTEGRAL CALCULATION
------------------------------------------------------------------------------

                         BASIS SET STATISTICS AND STARTUP INFO

 # of primitive gaussian shells          ...  344
 # of primitive gaussian functions       ...  748
 # of contracted shells                  ...   44
 # of contracted basis functions         ...  152
 Highest angular momentum                ...    4
 Maximum contraction depth               ...   19
 Integral package used                   ... LIBINT
 Integral threshhold            Thresh   ...  1.000e-10
 Primitive cut-off              TCut     ...  1.000e-11


------------------------------ INTEGRAL EVALUATION ----------------------------


 * One electron integrals 
 Pre-screening matrix                    ... done
 Shell pair data                         ... done (   0.002 sec)



           ************************************************************
           *        Program running with 24 parallel MPI-processes    *
           *              working on a common directory               *
           ************************************************************
-------------------------------------------------------------------------------
                                 ORCA SCF
-------------------------------------------------------------------------------

------------
SCF SETTINGS
------------
Hamiltonian:
 Density Functional     Method          .... DFT(GTOs)
 Exchange Functional    Exchange        .... WB97X-V
 Correlation Functional Correlation     .... WB97X-V
 Gradients option       PostSCFGGA      .... off
 Hybrid DFT is turned on
   Fraction HF Exchange ScalHFX         ....  0.167000
   Scaling of DF-GGA-X  ScalDFX         ....  0.000000
   Scaling of DF-GGA-C  ScalDFC         ....  1.000000
   Scaling of DF-LDA-C  ScalLDAC        ....  1.000000
   Perturbative correction              ....  0.000000
   Density functional embedding theory  .... OFF
 Long-range corrected/Screened/Range-Separated Hybrid DFT is turned on
   Amount of maximum screened exact exchange              ....  0.833000
   Range separation parameter mu (erf(mu*r12)/r12)        ....  0.300000
   NL short-range parameter             ....  6.000000
   NL long-range parameter              ....  0.010000


General Settings:
 Integral files         IntName         .... 52_CuBr
 Hartree-Fock type      HFTyp           .... RHF
 Total Charge           Charge          ....    0
 Multiplicity           Mult            ....    1
 Number of Electrons    NEL             ....   64
 Basis Dimension        Dim             ....  152
 Nuclear Repulsion      ENuc            ....    245.0330819959 Eh

Convergence Acceleration:
 DIIS                   CNVDIIS         .... on
   Start iteration      DIISMaxIt       ....    12
   Startup error        DIISStart       ....  0.200000
   # of expansion vecs  DIISMaxEq       ....     5
   Bias factor          DIISBfac        ....   1.050
   Max. coefficient     DIISMaxC        ....  10.000
 Newton-Raphson         CNVNR           .... off
 SOSCF                  CNVSOSCF        .... off
 Level Shifting         CNVShift        .... on
   Level shift para.    LevelShift      ....    0.2500
   Turn off err/grad.   ShiftErr        ....    0.0010
 Zerner damping         CNVZerner       .... off
 Static damping         CNVDamp         .... on
   Fraction old density DampFac         ....    0.7000
   Max. Damping (<1)    DampMax         ....    0.9800
   Min. Damping (>=0)   DampMin         ....    0.0000
   Turn off err/grad.   DampErr         ....    0.1000
 Fernandez-Rico         CNVRico         .... off

SCF Procedure:
 Maximum # iterations   MaxIter         ....   125
 SCF integral mode      SCFMode         .... Direct
   Integral package                     .... LIBINT
 Reset frequency        DirectResetFreq ....    20
 Integral Threshold     Thresh          ....  1.000e-10 Eh
 Primitive CutOff       TCut            ....  1.000e-11 Eh

Convergence Tolerance:
 Convergence Check Mode ConvCheckMode   .... Total+1el-Energy
 Convergence forced     ConvForced      .... 0
 Energy Change          TolE            ....  1.000e-06 Eh
 1-El. energy change                    ....  1.000e-03 Eh
 DIIS Error             TolErr          ....  1.000e-06


Diagonalization of the overlap matrix:
Smallest eigenvalue                        ... 1.841e-04
Time for diagonalization                   ...    0.006 sec
Threshold for overlap eigenvalues          ... 1.000e-08
Number of eigenvalues below threshold      ... 0
Time for construction of square roots      ...    0.002 sec
Total time needed                          ...    0.009 sec

-------------------
DFT GRID GENERATION
-------------------

General Integration Accuracy     IntAcc      ...  4.670
Radial Grid Type                 RadialGrid  ... Gauss-Chebyshev
Angular Grid (max. acc.)         AngularGrid ... Lebedev-302
Angular grid pruning method      GridPruning ... 3 (G Style)
Weight generation scheme         WeightScheme... Becke
Basis function cutoff            BFCut       ...    1.0000e-10
Integration weight cutoff        WCut        ...    1.0000e-14
Grids for H and He will be reduced by one unit

# of grid points (after initial pruning)     ...  19172 (   0.0 sec)
# of grid points (after weights+screening)   ...  19145 (   0.0 sec)
nearest neighbour list constructed           ...    0.0 sec
Grid point re-assignment to atoms done       ...    0.0 sec
Grid point division into batches done        ...    0.2 sec
Reduced shell lists constructed in    0.2 sec

Total number of grid points                  ...    19145
Total number of batches                      ...      300
Average number of points per batch           ...       63
Average number of grid points per atom       ...     9572
Average number of shells per batch           ...    15.57 (35.39%)
Average number of basis functions per batch  ...    37.71 (24.81%)
Average number of large shells per batch     ...     8.93 (57.34%)
Average number of large basis fcns per batch ...    21.50 (57.01%)
Maximum spatial batch extension              ...  22.45, 22.17, 16.42 au
Average spatial batch extension              ...   0.78,  0.77,  0.62 au

Time for grid setup =    0.202 sec

------------------------------
INITIAL GUESS: MODEL POTENTIAL
------------------------------
Loading Hartree-Fock densities                     ... done
Calculating cut-offs                               ... done
Setting up the integral package                    ... done
Initializing the effective Hamiltonian             ... done
Starting the Coulomb interaction                   ... done (   0.0 sec)
Reading the grid                                   ... done
Mapping shells                                     ... done
Starting the XC term evaluation                    ... done (   0.0 sec)
  promolecular density results
     # of electrons  =     64.000000674
     EX              =   -119.648074804
     EC              =     -4.064197058
     EX+EC           =   -123.712271862
Transforming the Hamiltonian                       ... done (   0.0 sec)
Diagonalizing the Hamiltonian                      ... done (   0.0 sec)
Back transforming the eigenvectors                 ... done (   0.0 sec)
Now organizing SCF variables                       ... done
                      ------------------
                      INITIAL GUESS DONE (   0.3 sec)
                      ------------------
--------------
SCF ITERATIONS
--------------
ITER       Energy         Delta-E        Max-DP      RMS-DP      [F,P]     Damp
               ***  Starting incremental Fock matrix formation  ***
  0  -4211.7984981004   0.000000000000 0.36927022  0.00702834  1.6394263 0.7000
  1  -4213.2696997728  -1.471201672332 0.29749424  0.00340701  0.4324246 0.7000
  2  -4213.7142518310  -0.444552058194 0.20840126  0.00265780  0.3561399 0.7000
  3  -4213.9920634455  -0.277811614561 0.12598093  0.00183136  0.3072633 0.7000
                               ***Turning on DIIS***
  4  -4214.1929986987  -0.200935253145 0.08102174  0.00122182  0.1976593 0.7000
  5  -4214.3348914253  -0.141892726670 0.06129560  0.00094637  0.1250330 0.7000
  6  -4214.4355359754  -0.100644550005 0.14629333  0.00262839  0.0982559 0.0000
  7  -4214.6800114347  -0.244475459369 0.01803186  0.00033604  0.0187114 0.0000
  8  -4214.6812026789  -0.001191244137 0.01451622  0.00028258  0.0203030 0.0000
  9  -4214.6821530997  -0.000950420840 0.02112323  0.00027574  0.0135258 0.0000
 10  -4214.6828664549  -0.000713355205 0.01806130  0.00022171  0.0067675 0.0000
 11  -4214.6832208060  -0.000354351085 0.01394044  0.00015245  0.0053867 0.0000
 12  -4214.6833634928  -0.000142686791 0.00989997  0.00010454  0.0032425 0.0000
 13  -4214.6834178164  -0.000054323666 0.00560217  0.00005877  0.0016736 0.0000
 14  -4214.6834328120  -0.000014995538 0.00433001  0.00004684  0.0007906 0.0000
 15  -4214.6834369185  -0.000004106550 0.00028972  0.00000380  0.0000654 0.0000
 16  -4214.6834369508  -0.000000032231 0.00012263  0.00000155  0.0000488 0.0000
                 **** Energy Check signals convergence ****

               *****************************************************
               *                     SUCCESS                       *
               *           SCF CONVERGED AFTER  17 CYCLES          *
               *****************************************************


Setting up the DFT-NL grid :

General Integration Accuracy     IntAcc      ...  4.340
Radial Grid Type                 RadialGrid  ... Gauss-Chebyshev
Angular Grid (max. acc.)         AngularGrid ... Lebedev-110
Angular grid pruning method      GridPruning ... 3 (G Style)
Weight generation scheme         WeightScheme... Becke
Basis function cutoff            BFCut       ...    1.0000e-10
Integration weight cutoff        WCut        ...    1.0000e-14
Grids for H and He will be reduced by one unit

# of grid points (after initial pruning)     ...   5802 (   0.0 sec)
# of grid points (after weights+screening)   ...   5778 (   0.0 sec)
nearest neighbour list constructed           ...    0.0 sec
Grid point re-assignment to atoms done       ...    0.0 sec
Grid point division into batches done        ...    0.0 sec
Reduced shell lists constructed in    0.0 sec

Total number of grid points                  ...     5778
Total number of batches                      ...       91
Average number of points per batch           ...       63
Average number of grid points per atom       ...     2889
Average number of shells per batch           ...    22.40 (50.91%)
Average number of basis functions per batch  ...    62.40 (41.05%)
Average number of large shells per batch     ...    16.00 (71.43%)
Average number of large basis fcns per batch ...    44.80 (71.79%)
Maximum spatial batch extension              ...  17.39, 26.34, 15.13 au
Average spatial batch extension              ...   0.70,  0.97,  0.66 au

Final grid set up in    0.0 sec

-------------------------------------------------------------------------------
                         DFT-NL dispersion correction                          
-------------------------------------------------------------------------------

SC Energy -4214.683436951 
NL    Energy 0.268860116 
SC+NL Energy -4214.414576834 
NL done in    0.0 sec
-------------------------------------------------------------------------------

----------------
TOTAL SCF ENERGY
----------------

Total Energy       :        -4214.41457683 Eh         -114680.05086 eV

Components:
Nuclear Repulsion  :          245.03308200 Eh            6667.68914 eV
Electronic Energy  :        -4459.44765883 Eh         -121347.74000 eV
One Electron Energy:        -6360.55949405 Eh         -173079.62303 eV
Two Electron Energy:         1901.11183522 Eh           51731.88303 eV

Virial components:
Potential Energy   :        -8423.56166977 Eh         -229216.76619 eV
Kinetic Energy     :         4209.14709293 Eh          114536.71533 eV
Virial Ratio       :            2.00125144


DFT components:
N(Alpha)           :       32.000004554278 electrons
N(Beta)            :       32.000004554278 electrons
N(Total)           :       64.000009108555 electrons
E(X)               :     -119.724273441100 Eh       
E(C)               :       -4.078290689457 Eh       
NL Energy, E(C,NL) :        0.268860116483 Eh       
E(XC)              :     -123.533704014073 Eh       
DFET-embed. en.    :        0.000000000000 Eh       

---------------
SCF CONVERGENCE
---------------

  Last Energy change         ...    3.0923e-11  Tolerance :   1.0000e-06
  Last MAX-Density change    ...    6.8432e-05  Tolerance :   1.0000e-05
  Last RMS-Density change    ...    7.7537e-07  Tolerance :   1.0000e-06
  Last DIIS Error            ...    1.5923e-05  Tolerance :   1.0000e-06

             **** THE GBW FILE WAS UPDATED (52_CuBr.gbw) ****
             **** DENSITY FILE WAS UPDATED (52_CuBr.scfp) ****
             **** ENERGY FILE WAS UPDATED (52_CuBr.en.tmp) ****
             **** THE GBW FILE WAS UPDATED (52_CuBr.gbw) ****
             **** DENSITY FILE WAS UPDATED (52_CuBr.scfp) ****
----------------
ORBITAL ENERGIES
----------------

  NO   OCC          E(Eh)            E(eV) 
   0   2.0000    -482.616313    -13132.6575 
   1   2.0000    -322.877157     -8785.9341 
   2   2.0000     -62.490119     -1700.4426 
   3   2.0000     -56.294719     -1531.8572 
   4   2.0000     -56.293149     -1531.8145 
   5   2.0000     -56.293149     -1531.8145 
   6   2.0000     -38.858848     -1057.4030 
   7   2.0000     -34.054689      -926.6752 
   8   2.0000     -34.054689      -926.6752 
   9   2.0000     -34.054438      -926.6684 
  10   2.0000      -8.753975      -238.2078 
  11   2.0000      -6.579216      -179.0296 
  12   2.0000      -6.573845      -178.8834 
  13   2.0000      -6.573845      -178.8834 
  14   2.0000      -4.430454      -120.5588 
  15   2.0000      -2.927842       -79.6706 
  16   2.0000      -2.923840       -79.5617 
  17   2.0000      -2.923840       -79.5617 
  18   2.0000      -2.702422       -73.5366 
  19   2.0000      -2.700833       -73.4934 
  20   2.0000      -2.700833       -73.4934 
  21   2.0000      -2.696627       -73.3790 
  22   2.0000      -2.696595       -73.3781 
  23   2.0000      -0.847077       -23.0501 
  24   2.0000      -0.453830       -12.3494 
  25   2.0000      -0.436314       -11.8727 
  26   2.0000      -0.436314       -11.8727 
  27   2.0000      -0.418910       -11.3991 
  28   2.0000      -0.418905       -11.3990 
  29   2.0000      -0.375147       -10.2083 
  30   2.0000      -0.352855        -9.6017 
  31   2.0000      -0.352855        -9.6017 
  32   0.0000      -0.042110        -1.1459 
  33   0.0000       0.025192         0.6855 
  34   0.0000       0.025192         0.6855 
  35   0.0000       0.028943         0.7876 
  36   0.0000       0.042550         1.1579 
  37   0.0000       0.080852         2.2001 
  38   0.0000       0.080852         2.2001 
  39   0.0000       0.103879         2.8267 
  40   0.0000       0.126447         3.4408 
  41   0.0000       0.126447         3.4408 
  42   0.0000       0.140393         3.8203 
  43   0.0000       0.179154         4.8750 
  44   0.0000       0.179155         4.8750 
  45   0.0000       0.180373         4.9082 
  46   0.0000       0.199945         5.4408 
  47   0.0000       0.220803         6.0084 
  48   0.0000       0.220803         6.0084 
  49   0.0000       0.271899         7.3988 
  50   0.0000       0.271899         7.3988 
  51   0.0000       0.285525         7.7695 
  52   0.0000       0.303155         8.2493 
  53   0.0000       0.303155         8.2493 
  54   0.0000       0.354497         9.6463 
  55   0.0000       0.393435        10.7059 
  56   0.0000       0.393435        10.7059 
  57   0.0000       0.431673        11.7464 
  58   0.0000       0.545794        14.8518 
  59   0.0000       0.545794        14.8518 
  60   0.0000       0.614552        16.7228 
  61   0.0000       0.642317        17.4783 
  62   0.0000       0.642318        17.4784 
  63   0.0000       0.661178        17.9916 
  64   0.0000       0.661178        17.9916 
  65   0.0000       0.663226        18.0473 
  66   0.0000       0.758217        20.6321 
  67   0.0000       0.758218        20.6322 
  68   0.0000       0.791703        21.5433 
  69   0.0000       0.844514        22.9804 
  70   0.0000       0.851888        23.1810 
  71   0.0000       0.851888        23.1810 
  72   0.0000       0.908442        24.7200 
  73   0.0000       0.908442        24.7200 
  74   0.0000       0.933077        25.3903 
  75   0.0000       0.933077        25.3903 
  76   0.0000       1.036339        28.2002 
  77   0.0000       1.036339        28.2002 
  78   0.0000       1.036388        28.2016 
  79   0.0000       1.139324        31.0026 
  80   0.0000       1.139324        31.0026 
  81   0.0000       1.219045        33.1719 
  82   0.0000       1.483918        40.3795 
  83   0.0000       1.537683        41.8425 
  84   0.0000       1.537683        41.8425 
  85   0.0000       1.636270        44.5252 
  86   0.0000       1.636271        44.5252 
  87   0.0000       1.825593        49.6769 
  88   0.0000       1.825593        49.6769 
  89   0.0000       1.909190        51.9517 
  90   0.0000       2.035630        55.3923 
  91   0.0000       2.035630        55.3923 
  92   0.0000       2.135705        58.1155 
  93   0.0000       2.135716        58.1158 
  94   0.0000       2.160215        58.7824 
  95   0.0000       2.163891        58.8825 
  96   0.0000       2.163891        58.8825 
  97   0.0000       2.186860        59.5075 
  98   0.0000       2.186862        59.5075 
  99   0.0000       2.226123        60.5759 
 100   0.0000       2.226123        60.5759 
 101   0.0000       2.257067        61.4179 
 102   0.0000       2.257073        61.4181 
 103   0.0000       2.272221        61.8303 
 104   0.0000       2.272221        61.8303 
 105   0.0000       2.308636        62.8212 
 106   0.0000       2.361606        64.2626 
 107   0.0000       2.361606        64.2626 
 108   0.0000       2.393393        65.1275 
 109   0.0000       2.881702        78.4151 
 110   0.0000       3.987299       108.4999 
 111   0.0000       4.240299       115.3844 
 112   0.0000       4.372873       118.9919 
 113   0.0000       4.372873       118.9919 
 114   0.0000       4.464774       121.4927 
 115   0.0000       4.464774       121.4927 
 116   0.0000       4.509374       122.7063 
 117   0.0000       4.509394       122.7068 
 118   0.0000       4.664663       126.9319 
 119   0.0000       4.664663       126.9319 
 120   0.0000       4.666277       126.9759 
 121   0.0000       5.015545       136.4799 
 122   0.0000       6.163831       167.7264 
 123   0.0000       6.163831       167.7264 
 124   0.0000       6.166633       167.8026 
 125   0.0000       6.166765       167.8062 
 126   0.0000       6.167191       167.8178 
 127   0.0000       6.167218       167.8185 
 128   0.0000       6.203220       168.7982 
 129   0.0000       6.203220       168.7982 
 130   0.0000       6.299033       171.4054 
 131   0.0000       8.034425       218.6278 
 132   0.0000       8.034439       218.6282 
 133   0.0000       8.074478       219.7177 
 134   0.0000       8.074478       219.7177 
 135   0.0000       8.384198       228.1456 
 136   0.0000      14.127181       384.4201 
 137   0.0000      14.127181       384.4201 
 138   0.0000      14.150630       385.0582 
 139   0.0000      14.150746       385.0614 
 140   0.0000      14.232977       387.2990 
 141   0.0000      14.232977       387.2990 
 142   0.0000      14.308913       389.3653 
 143   0.0000      16.603478       451.8036 
 144   0.0000      16.603478       451.8036 
 145   0.0000      16.604671       451.8361 
 146   0.0000      16.604696       451.8368 
 147   0.0000      16.605118       451.8482 
 148   0.0000      16.605634       451.8623 
 149   0.0000      16.622469       452.3204 
 150   0.0000      16.622469       452.3204 
 151   0.0000      16.654830       453.2010 

                    ********************************
                    * MULLIKEN POPULATION ANALYSIS *
                    ********************************

-----------------------
MULLIKEN ATOMIC CHARGES
-----------------------
   0 Cu:    0.533968
   1 Br:   -0.533968
Sum of atomic charges:   -0.0000000

--------------------------------
MULLIKEN REDUCED ORBITAL CHARGES
--------------------------------
  0 Cus       :     6.381183  s :     6.381183
      pz      :     4.068917  p :    12.159498
      px      :     4.045291
      py      :     4.045291
      dz2     :     1.928542  d :     9.919747
      dxz     :     1.996438
      dyz     :     1.996438
      dx2y2   :     1.999164
      dxy     :     1.999164
      f0      :     0.002151  f :     0.005556
      f+1     :     0.001651
      f-1     :     0.001651
      f+2     :     0.000051
      f-2     :     0.000051
      f+3     :     0.000000
      f-3     :     0.000000
      g0      :     0.000025  g :     0.000049
      g+1     :     0.000012
      g-1     :     0.000012
      g+2     :     0.000000
      g-2     :     0.000000
      g+3     :     0.000000
      g-3     :     0.000000
      g+4     :     0.000000
      g-4     :     0.000000
  1 Brs       :     8.022296  s :     8.022296
      pz      :     5.587701  p :    17.485189
      px      :     5.948744
      py      :     5.948744
      dz2     :     2.008235  d :    10.022471
      dxz     :     2.006613
      dyz     :     2.006613
      dx2y2   :     2.000505
      dxy     :     2.000505
      f0      :     0.000951  f :     0.004012
      f+1     :     0.001251
      f-1     :     0.001251
      f+2     :     0.000279
      f-2     :     0.000279
      f+3     :     0.000000
      f-3     :     0.000000


                     *******************************
                     * LOEWDIN POPULATION ANALYSIS *
                     *******************************

----------------------
LOEWDIN ATOMIC CHARGES
----------------------
   0 Cu:   -0.051222
   1 Br:    0.051222

-------------------------------
LOEWDIN REDUCED ORBITAL CHARGES
-------------------------------
  0 Cus       :     6.383149  s :     6.383149
      pz      :     4.252513  p :    12.445569
      px      :     4.096528
      py      :     4.096528
      dz2     :     2.067095  d :    10.186154
      dxz     :     2.063666
      dyz     :     2.063666
      dx2y2   :     1.995863
      dxy     :     1.995863
      f0      :     0.016841  f :     0.036135
      f+1     :     0.009565
      f-1     :     0.009565
      f+2     :     0.000082
      f-2     :     0.000082
      f+3     :     0.000000
      f-3     :     0.000000
      g0      :     0.000112  g :     0.000214
      g+1     :     0.000051
      g-1     :     0.000051
      g+2     :     0.000000
      g-2     :     0.000000
      g+3     :     0.000000
      g-3     :     0.000000
      g+4     :     0.000000
      g-4     :     0.000000
  1 Brs       :     7.618050  s :     7.618050
      pz      :     5.538567  p :    17.117960
      px      :     5.789696
      py      :     5.789696
      dz2     :     2.080844  d :    10.125006
      dxz     :     2.020278
      dyz     :     2.020278
      dx2y2   :     2.001803
      dxy     :     2.001803
      f0      :     0.042828  f :     0.087763
      f+1     :     0.020215
      f-1     :     0.020215
      f+2     :     0.002252
      f-2     :     0.002252
      f+3     :     0.000000
      f-3     :     0.000000


                      *****************************
                      * MAYER POPULATION ANALYSIS *
                      *****************************

  NA   - Mulliken gross atomic population
  ZA   - Total nuclear charge
  QA   - Mulliken gross atomic charge
  VA   - Mayer's total valence
  BVA  - Mayer's bonded valence
  FA   - Mayer's free valence

  ATOM       NA         ZA         QA         VA         BVA        FA
  0 Cu    28.4660    29.0000     0.5340     0.9192     0.9192    -0.0000
  1 Br    35.5340    35.0000    -0.5340     0.9192     0.9192    -0.0000

  Mayer bond orders larger than 0.100000
B(  0-Cu,  1-Br) :   0.9192 

-------
TIMINGS
-------

Total SCF time: 0 days 0 hours 7 min 10 sec 

Total time                  ....     430.089 sec
Sum of individual times     ....     429.695 sec  ( 99.9%)

Fock matrix formation       ....     429.250 sec  ( 99.8%)
  XC integration            ....       0.488 sec  (  0.1% of F)
    Basis function eval.    ....       0.174 sec  ( 35.6% of XC)
    Density eval.           ....       0.054 sec  ( 11.1% of XC)
    XC-Functional eval.     ....       0.027 sec  (  5.5% of XC)
    XC-Potential eval.      ....       0.081 sec  ( 16.5% of XC)
Diagonalization             ....       0.055 sec  (  0.0%)
Density matrix formation    ....       0.008 sec  (  0.0%)
Population analysis         ....       0.004 sec  (  0.0%)
Initial guess               ....       0.122 sec  (  0.0%)
Orbital Transformation      ....       0.000 sec  (  0.0%)
Orbital Orthonormalization  ....       0.000 sec  (  0.0%)
DIIS solution               ....       0.028 sec  (  0.0%)
Grid generation             ....       0.230 sec  (  0.1%)

-------------------------   --------------------
FINAL SINGLE POINT ENERGY     -4214.414576834248
-------------------------   --------------------


                            ***************************************
                            *     ORCA property calculations      *
                            ***************************************

                                    ---------------------
                                    Active property flags
                                    ---------------------
   (+) Dipole Moment


------------------------------------------------------------------------------
                       ORCA ELECTRIC PROPERTIES CALCULATION
------------------------------------------------------------------------------

Dipole Moment Calculation                       ... on
Quadrupole Moment Calculation                   ... off
Polarizability Calculation                      ... off
GBWName                                         ... 52_CuBr.gbw
Electron density file                           ... 52_CuBr.scfp
The origin for moment calculation is the CENTER OF MASS  = ( 0.000000,  0.000000  2.125789)

-------------
DIPOLE MOMENT
-------------
                                X             Y             Z
Electronic contribution:     -0.00000       0.00000       0.58106
Nuclear contribution   :      0.00000       0.00000      -2.68116
                        -----------------------------------------
Total Dipole Moment    :     -0.00000       0.00000      -2.10010
                        -----------------------------------------
Magnitude (a.u.)       :      2.10010
Magnitude (Debye)      :      5.33803



--------------------
Rotational spectrum 
--------------------
 
Rotational constants in cm-1:     0.000000     0.099117     0.099117 
Rotational constants in MHz :     0.000000  2971.467067  2971.467067 

 Dipole components along the rotational axes: 
x,y,z [a.u.] :    -2.100101     0.000000    -0.000000 
x,y,z [Debye]:    -5.338032     0.000000    -0.000000 

 

Timings for individual modules:

Sum of individual times         ...      435.478 sec (=   7.258 min)
GTO integral calculation        ...        4.899 sec (=   0.082 min)   1.1 %
SCF iterations                  ...      430.579 sec (=   7.176 min)  98.9 %
                             ****ORCA TERMINATED NORMALLY****
TOTAL RUN TIME: 0 days 0 hours 7 minutes 16 seconds 130 msec
