
                                 *****************
                                 * O   R   C   A *
                                 *****************

           --- An Ab Initio, DFT and Semiempirical electronic structure package ---

                  #######################################################
                  #                        -***-                        #
                  #          Department of theory and spectroscopy      #
                  #               Directorship: Frank Neese             #
                  #        Max Planck Institute fuer Kohlenforschung    #
                  #                Kaiser Wilhelm Platz 1               #
                  #                 D-45470 Muelheim/Ruhr               #
                  #                      Germany                        #
                  #                                                     #
                  #                  All rights reserved                #
                  #                        -***-                        #
                  #######################################################


                         Program Version 4.2.0 -  RELEASE  -


 With contributions from (in alphabetic order):
   Daniel Aravena         : Magnetic Suceptibility
   Michael Atanasov       : Ab Initio Ligand Field Theory (pilot matlab implementation)
   Alexander A. Auer      : GIAO ZORA, VPT2
   Ute Becker             : Parallelization
   Giovanni Bistoni       : ED, misc. LED, open-shell LED, HFLED
   Martin Brehm           : Molecular dynamics
   Dmytro Bykov           : SCF Hessian
   Vijay G. Chilkuri      : MRCI spin determinant printing, contributions to CSF-ICE
   Dipayan Datta          : RHF DLPNO-CCSD density
   Achintya Kumar Dutta   : EOM-CC, STEOM-CC
   Dmitry Ganyushin       : Spin-Orbit,Spin-Spin,Magnetic field MRCI
   Miquel Garcia          : C-PCM Hessian, Gaussian charge scheme
   Yang Guo               : DLPNO-NEVPT2, CIM, IAO-localization
   Andreas Hansen         : Spin unrestricted coupled pair/coupled cluster methods
   Benjamin Helmich-Paris : CASSCF linear response (MC-RPA)
   Lee Huntington         : MR-EOM, pCC
   Robert Izsak           : Overlap fitted RIJCOSX, COSX-SCS-MP3, EOM
   Christian Kollmar      : KDIIS, OOCD, Brueckner-CCSD(T), CCSD density
   Simone Kossmann        : Meta GGA functionals, TD-DFT gradient, OOMP2, MP2 Hessian
   Martin Krupicka        : AUTO-CI
   Lucas Lang             : DCDCAS
   Dagmar Lenk            : GEPOL surface, SMD
   Dimitrios Liakos       : Extrapolation schemes; Compound Job, initial MDCI parallelization
   Dimitrios Manganas     : Further ROCIS development; embedding schemes
   Dimitrios Pantazis     : SARC Basis sets
   Taras Petrenko         : DFT Hessian,TD-DFT gradient, ASA, ECA, R-Raman, ABS, FL, XAS/XES, NRVS
   Peter Pinski           : DLPNO-MP2, DLPNO-MP2 Gradient
   Christoph Reimann      : Effective Core Potentials
   Marius Retegan         : Local ZFS, SOC
   Christoph Riplinger    : Optimizer, TS searches, QM/MM, DLPNO-CCSD(T), (RO)-DLPNO pert. Triples
   Tobias Risthaus        : Range-separated hybrids, TD-DFT gradient, RPA, STAB
   Michael Roemelt        : Original ROCIS implementation
   Masaaki Saitow         : Open-shell DLPNO-CCSD energy and density
   Barbara Sandhoefer     : DKH picture change effects
   Avijit Sen             : IP-ROCIS
   Kantharuban Sivalingam : CASSCF convergence, NEVPT2, FIC-MRCI
   Bernardo de Souza      : ESD, SOC TD-DFT
   Georgi Stoychev        : AutoAux, RI-MP2 NMR
   Willem Van den Heuvel  : Paramagnetic NMR
   Boris Wezisla          : Elementary symmetry handling
   Frank Wennmohs         : Technical directorship


 We gratefully acknowledge several colleagues who have allowed us to
 interface, adapt or use parts of their codes:
   Stefan Grimme, W. Hujo, H. Kruse,             : VdW corrections, initial TS optimization,
                  C. Bannwarth                     DFT functionals, gCP, sTDA/sTD-DF
   Ed Valeev, F. Pavosevic, A. Kumar             : LibInt (2-el integral package), F12 methods
   Garnet Chan, S. Sharma, J. Yang, R. Olivares  : DMRG
   Ulf Ekstrom                                   : XCFun DFT Library
   Mihaly Kallay                                 : mrcc  (arbitrary order and MRCC methods)
   Andreas Klamt, Michael Diedenhofen            : otool_cosmo (COSMO solvation model)
   Jiri Pittner, Ondrej Demel                    : Mk-CCSD
   Frank Weinhold                                : gennbo (NPA and NBO analysis)
   Christopher J. Cramer and Donald G. Truhlar   : smd solvation model
   Lars Goerigk                                  : TD-DFT with DH, B97 family of functionals
   V. Asgeirsson, H. Jonsson                     : NEB implementation
   FAccTs GmbH                                   : IRC, NEB, NEB-TS, Multilevel, MM, QM/MM, CI optimization
   S Lehtola, MJT Oliveira, MAL Marques          : LibXC Library


 Your calculation uses the libint2 library for the computation of 2-el integrals
 For citations please refer to: http://libint.valeyev.net

 Your ORCA version has been built with support for libXC version: 4.2.3
 For citations please refer to: https://tddft.org/programs/libxc/

 This ORCA versions uses:
   CBLAS   interface :  Fast vector & matrix operations
   LAPACKE interface :  Fast linear algebra routines
   SCALAPACK package :  Parallel linear algebra routines


Your calculation utilizes the DFT-NL dispersion correction.
Cite in your paper:
Vydrov, O. A.; Van Voorhis, T. J. Chem. Phys. 2010, 133, 244103
Hujo, W.; Grimme, S. J. Chem. Theory Comput. 2011, 7, 3866 
   

----- Orbital basis set information -----
Your calculation utilizes the basis: aug-cc-pVTZ 
    H, B-Ne : Obtained from the ccRepo (grant-hill.group.shef.ac.uk/ccrepo) Feb. 2017
              R. A. Kendall, T. H. Dunning, Jr., R. J. Harrison, J. Chem. Phys. 96, 6796 (1992)
         He : Obtained from the ccRepo (grant-hill.group.shef.ac.uk/ccrepo) Feb. 2017
              D. E. Woon, T. H. Dunning, Jr., J. Chem. Phys. 100, 2975 (1994)
  Li-Be, Na : Obtained from the ccRepo (grant-hill.group.shef.ac.uk/ccrepo) Feb. 2017
              B. P. Prascher, D. E. Woon, K. A. Peterson, T. H. Dunning, Jr., A. K. Wilson, Theor. Chem. Acc. 128, 69 (2011)
         Mg : Obtained from the Peterson Research Group Website (tyr0.chem.wsu.edu/~kipeters) Feb. 2017
              B. P. Prascher, D. E. Woon, K. A. Peterson, T. H. Dunning, Jr., A. K. Wilson, Theor. Chem. Acc. 128, 69 (2011)
      Al-Ar : Obtained from the ccRepo (grant-hill.group.shef.ac.uk/ccrepo) Feb. 2017
              D. E. Woon, T. H. Dunning, Jr., J. Chem. Phys. 98, 1358 (1993)
      Sc-Zn : Obtained from the ccRepo (grant-hill.group.shef.ac.uk/ccrepo) Feb. 2017
              N. B. Balabanov, K. A. Peterson, J. Chem. Phys. 123, 064107 (2005)
              N. B. Balabanov, K. A. Peterson, J. Chem. Phys. 125, 074110 (2006)
      Ga-Kr : Obtained from the ccRepo (grant-hill.group.shef.ac.uk/ccrepo) Feb. 2017
              A. K. Wilson, D. E. Woon, K. A. Peterson, T. H. Dunning, Jr., J. Chem. Phys. 110, 7667 (1999)
     Ag, Au : Obtained from the Peterson Research Group Website (tyr0.chem.wsu.edu/~kipeters) Feb. 2017
              K. A. Peterson, C. Puzzarini, Theor. Chem. Acc. 114, 283 (2005)

----- AuxJK basis set information -----
Your calculation utilizes the auxiliary basis: def2/JK
   H-Ba, Hf-Rn: F. Weigend, J. Comput. Chem. 29, 167 (2008).

================================================================================
                                        WARNINGS
                       Please study these warnings very carefully!
================================================================================


WARNING: your system is open-shell and RHF/RKS was chosen
  ===> : WILL SWITCH to UHF/UKS


INFO   : the flag for use of LIBINT has been found!

================================================================================
                                       INPUT FILE
================================================================================
NAME = 58_ZnBr.in
|  1> #
|  2> # 58_ZnBr wb97x-v/aug-cc-pvtz
|  3> #
|  4> ! wb97x-v aug-cc-pvtz def2/jk grid4 nofinalgrid
|  5> 
|  6> *xyz 0 2
|  7>   Zn  0.00000000000000      0.00000000000000     -0.15390624723259
|  8>   Br  0.00000000000000      0.00000000000000      2.15390624723258
|  9> *
| 10> 
| 11> %pal
| 12> nprocs 24
| 13> end
| 14> 
| 15> 
| 16>                          ****END OF INPUT****
================================================================================

                       ****************************
                       * Single Point Calculation *
                       ****************************

---------------------------------
CARTESIAN COORDINATES (ANGSTROEM)
---------------------------------
  Zn     0.000000    0.000000   -0.153906
  Br     0.000000    0.000000    2.153906

----------------------------
CARTESIAN COORDINATES (A.U.)
----------------------------
  NO LB      ZA    FRAG     MASS         X           Y           Z
   0 Zn   30.0000    0    65.380    0.000000    0.000000   -0.290841
   1 Br   35.0000    0    79.900    0.000000    0.000000    4.070293

--------------------------------
INTERNAL COORDINATES (ANGSTROEM)
--------------------------------
 Zn     0   0   0     0.000000000000     0.00000000     0.00000000
 Br     1   0   0     2.307812494465     0.00000000     0.00000000

---------------------------
INTERNAL COORDINATES (A.U.)
---------------------------
 Zn     0   0   0     0.000000000000     0.00000000     0.00000000
 Br     1   0   0     4.361133582981     0.00000000     0.00000000

---------------------
BASIS SET INFORMATION
---------------------
There are 2 groups of distinct atoms

 Group   1 Type Zn  : 116s77p23d3f2g contracted to 8s7p5d3f2g pattern {19191919191911/151515151511/77711/111/11}
 Group   2 Type Br  : 75s36p10d2f contracted to 7s6p4d2f pattern {18181818111/111111111/7111/11}

Atom   0Zn   basis set group =>   1
Atom   1Br   basis set group =>   2
----------------------------------
AUXILIARY/JK BASIS SET INFORMATION
----------------------------------
There are 2 groups of distinct atoms

 Group   1 Type Zn  : 19s14p12d10f7g3h1i contracted to 16s13p11d9f5g3h1i pattern {4111111111111111/2111111111111/21111111111/211111111/31111/111/1}
 Group   2 Type Br  : 20s14p13d10f7g3h contracted to 17s13p12d9f6g3h pattern {41111111111111111/2111111111111/211111111111/211111111/211111/111}

Atom   0Zn   basis set group =>   1
Atom   1Br   basis set group =>   2


           ************************************************************
           *        Program running with 24 parallel MPI-processes    *
           *              working on a common directory               *
           ************************************************************
------------------------------------------------------------------------------
                           ORCA GTO INTEGRAL CALCULATION
------------------------------------------------------------------------------

                         BASIS SET STATISTICS AND STARTUP INFO

 # of primitive gaussian shells          ...  344
 # of primitive gaussian functions       ...  748
 # of contracted shells                  ...   44
 # of contracted basis functions         ...  152
 Highest angular momentum                ...    4
 Maximum contraction depth               ...   19
 Integral package used                   ... LIBINT
 Integral threshhold            Thresh   ...  1.000e-10
 Primitive cut-off              TCut     ...  1.000e-11


------------------------------ INTEGRAL EVALUATION ----------------------------


 * One electron integrals 
 Pre-screening matrix                    ... done
 Shell pair data                         ... done (   0.002 sec)



           ************************************************************
           *        Program running with 24 parallel MPI-processes    *
           *              working on a common directory               *
           ************************************************************
-------------------------------------------------------------------------------
                                 ORCA SCF
-------------------------------------------------------------------------------

------------
SCF SETTINGS
------------
Hamiltonian:
 Density Functional     Method          .... DFT(GTOs)
 Exchange Functional    Exchange        .... WB97X-V
 Correlation Functional Correlation     .... WB97X-V
 Gradients option       PostSCFGGA      .... off
 Hybrid DFT is turned on
   Fraction HF Exchange ScalHFX         ....  0.167000
   Scaling of DF-GGA-X  ScalDFX         ....  0.000000
   Scaling of DF-GGA-C  ScalDFC         ....  1.000000
   Scaling of DF-LDA-C  ScalLDAC        ....  1.000000
   Perturbative correction              ....  0.000000
   Density functional embedding theory  .... OFF
 Long-range corrected/Screened/Range-Separated Hybrid DFT is turned on
   Amount of maximum screened exact exchange              ....  0.833000
   Range separation parameter mu (erf(mu*r12)/r12)        ....  0.300000
   NL short-range parameter             ....  6.000000
   NL long-range parameter              ....  0.010000


General Settings:
 Integral files         IntName         .... 58_ZnBr
 Hartree-Fock type      HFTyp           .... UHF
 Total Charge           Charge          ....    0
 Multiplicity           Mult            ....    2
 Number of Electrons    NEL             ....   65
 Basis Dimension        Dim             ....  152
 Nuclear Repulsion      ENuc            ....    240.7630906096 Eh

Convergence Acceleration:
 DIIS                   CNVDIIS         .... on
   Start iteration      DIISMaxIt       ....    12
   Startup error        DIISStart       ....  0.200000
   # of expansion vecs  DIISMaxEq       ....     5
   Bias factor          DIISBfac        ....   1.050
   Max. coefficient     DIISMaxC        ....  10.000
 Newton-Raphson         CNVNR           .... off
 SOSCF                  CNVSOSCF        .... off
 Level Shifting         CNVShift        .... on
   Level shift para.    LevelShift      ....    0.2500
   Turn off err/grad.   ShiftErr        ....    0.0010
 Zerner damping         CNVZerner       .... off
 Static damping         CNVDamp         .... on
   Fraction old density DampFac         ....    0.7000
   Max. Damping (<1)    DampMax         ....    0.9800
   Min. Damping (>=0)   DampMin         ....    0.0000
   Turn off err/grad.   DampErr         ....    0.1000
 Fernandez-Rico         CNVRico         .... off

SCF Procedure:
 Maximum # iterations   MaxIter         ....   125
 SCF integral mode      SCFMode         .... Direct
   Integral package                     .... LIBINT
 Reset frequency        DirectResetFreq ....    20
 Integral Threshold     Thresh          ....  1.000e-10 Eh
 Primitive CutOff       TCut            ....  1.000e-11 Eh

Convergence Tolerance:
 Convergence Check Mode ConvCheckMode   .... Total+1el-Energy
 Convergence forced     ConvForced      .... 0
 Energy Change          TolE            ....  1.000e-06 Eh
 1-El. energy change                    ....  1.000e-03 Eh
 DIIS Error             TolErr          ....  1.000e-06


Diagonalization of the overlap matrix:
Smallest eigenvalue                        ... 2.167e-04
Time for diagonalization                   ...    0.006 sec
Threshold for overlap eigenvalues          ... 1.000e-08
Number of eigenvalues below threshold      ... 0
Time for construction of square roots      ...    0.003 sec
Total time needed                          ...    0.009 sec

-------------------
DFT GRID GENERATION
-------------------

General Integration Accuracy     IntAcc      ...  4.670
Radial Grid Type                 RadialGrid  ... Gauss-Chebyshev
Angular Grid (max. acc.)         AngularGrid ... Lebedev-302
Angular grid pruning method      GridPruning ... 3 (G Style)
Weight generation scheme         WeightScheme... Becke
Basis function cutoff            BFCut       ...    1.0000e-10
Integration weight cutoff        WCut        ...    1.0000e-14
Grids for H and He will be reduced by one unit

# of grid points (after initial pruning)     ...  19256 (   0.0 sec)
# of grid points (after weights+screening)   ...  19230 (   0.0 sec)
nearest neighbour list constructed           ...    0.0 sec
Grid point re-assignment to atoms done       ...    0.0 sec
Grid point division into batches done        ...    0.1 sec
Reduced shell lists constructed in    0.1 sec

Total number of grid points                  ...    19230
Total number of batches                      ...      301
Average number of points per batch           ...       63
Average number of grid points per atom       ...     9615
Average number of shells per batch           ...    14.00 (31.82%)
Average number of basis functions per batch  ...    31.86 (20.96%)
Average number of large shells per batch     ...     7.86 (56.12%)
Average number of large basis fcns per batch ...    17.86 (56.05%)
Maximum spatial batch extension              ...  22.45, 22.17, 16.62 au
Average spatial batch extension              ...   0.78,  0.77,  0.63 au

Time for grid setup =    0.200 sec

------------------------------
INITIAL GUESS: MODEL POTENTIAL
------------------------------
Loading Hartree-Fock densities                     ... done
Calculating cut-offs                               ... done
Setting up the integral package                    ... done
Initializing the effective Hamiltonian             ... done
Starting the Coulomb interaction                   ... done (   0.0 sec)
Reading the grid                                   ... done
Mapping shells                                     ... done
Starting the XC term evaluation                    ... done (   0.0 sec)
  promolecular density results
     # of electrons  =     65.000004919
     EX              =   -122.879112881
     EC              =     -4.150589746
     EX+EC           =   -127.029702627
Transforming the Hamiltonian                       ... done (   0.0 sec)
Diagonalizing the Hamiltonian                      ... done (   0.0 sec)
Back transforming the eigenvectors                 ... done (   0.0 sec)
Now organizing SCF variables                       ... done
                      ------------------
                      INITIAL GUESS DONE (   0.3 sec)
                      ------------------
--------------
SCF ITERATIONS
--------------
ITER       Energy         Delta-E        Max-DP      RMS-DP      [F,P]     Damp
               ***  Starting incremental Fock matrix formation  ***
  0  -4349.7961534654   0.000000000000 0.30849576  0.00502390  1.9273869 0.7000
  1  -4351.6204690320  -1.824315566656 0.16476032  0.00191548  0.6231845 0.7000
  2  -4352.2573011378  -0.636832105717 0.11782621  0.00159753  0.3214779 0.7000
  3  -4352.6318659947  -0.374564856957 0.07849406  0.00126119  0.3121972 0.7000
  4  -4352.8938571671  -0.261991172371 0.06420604  0.00091328  0.2262437 0.7000
                               ***Turning on DIIS***
  5  -4353.0788074991  -0.184950332040 0.05192876  0.00066304  0.1527178 0.7000
  6  -4353.2096610825  -0.130853583392 0.04310204  0.00054469  0.1015942 0.7000
  7  -4353.3025675967  -0.092906514209 0.12456372  0.00151890  0.0735684 0.0000
  8  -4353.5267237461  -0.224156149385 0.02980882  0.00026542  0.0113759 0.0000
  9  -4353.5277706868  -0.001046940652 0.01784519  0.00017324  0.0080875 0.0000
 10  -4353.5282936343  -0.000522947509 0.01176479  0.00012573  0.0061782 0.0000
 11  -4353.5286264905  -0.000332856204 0.00806958  0.00008267  0.0040552 0.0000
 12  -4353.5287674280  -0.000140937552 0.00483925  0.00004534  0.0020554 0.0000
 13  -4353.5288123381  -0.000044910062 0.00276305  0.00002380  0.0012153 0.0000
 14  -4353.5288255903  -0.000013252207 0.00246387  0.00002172  0.0005678 0.0000
 15  -4353.5288299212  -0.000004330864 0.00026951  0.00000314  0.0001320 0.0000
 16  -4353.5288300644  -0.000000143242 0.00010473  0.00000099  0.0000494 0.0000
                 **** Energy Check signals convergence ****

               *****************************************************
               *                     SUCCESS                       *
               *           SCF CONVERGED AFTER  17 CYCLES          *
               *****************************************************


Setting up the DFT-NL grid :

General Integration Accuracy     IntAcc      ...  4.340
Radial Grid Type                 RadialGrid  ... Gauss-Chebyshev
Angular Grid (max. acc.)         AngularGrid ... Lebedev-110
Angular grid pruning method      GridPruning ... 3 (G Style)
Weight generation scheme         WeightScheme... Becke
Basis function cutoff            BFCut       ...    1.0000e-10
Integration weight cutoff        WCut        ...    1.0000e-14
Grids for H and He will be reduced by one unit

# of grid points (after initial pruning)     ...   5802 (   0.0 sec)
# of grid points (after weights+screening)   ...   5778 (   0.0 sec)
nearest neighbour list constructed           ...    0.0 sec
Grid point re-assignment to atoms done       ...    0.0 sec
Grid point division into batches done        ...    0.0 sec
Reduced shell lists constructed in    0.0 sec

Total number of grid points                  ...     5778
Total number of batches                      ...       91
Average number of points per batch           ...       63
Average number of grid points per atom       ...     2889
Average number of shells per batch           ...    21.60 (49.09%)
Average number of basis functions per batch  ...    56.80 (37.37%)
Average number of large shells per batch     ...    15.60 (72.22%)
Average number of large basis fcns per batch ...    42.80 (75.35%)
Maximum spatial batch extension              ...  17.39, 26.34, 15.35 au
Average spatial batch extension              ...   0.70,  0.97,  0.67 au

Final grid set up in    0.0 sec

-------------------------------------------------------------------------------
                         DFT-NL dispersion correction                          
-------------------------------------------------------------------------------

SC Energy -4353.528830081 
NL    Energy 0.273387489 
SC+NL Energy -4353.255442592 
NL done in    0.0 sec
-------------------------------------------------------------------------------

----------------
TOTAL SCF ENERGY
----------------

Total Energy       :        -4353.25544259 Eh         -118458.10289 eV

Components:
Nuclear Repulsion  :          240.76309061 Eh            6551.49677 eV
Electronic Energy  :        -4594.01853320 Eh         -125009.59965 eV
One Electron Energy:        -6545.79233875 Eh         -178120.06499 eV
Two Electron Energy:         1951.77380555 Eh           53110.46533 eV

Virial components:
Potential Energy   :        -8701.15490127 Eh         -236770.46204 eV
Kinetic Energy     :         4347.89945868 Eh          118312.35915 eV
Virial Ratio       :            2.00123186


DFT components:
N(Alpha)           :       33.000012673352 electrons
N(Beta)            :       32.000012749554 electrons
N(Total)           :       65.000025422906 electrons
E(X)               :     -122.767312356995 Eh       
E(C)               :       -4.142448580633 Eh       
NL Energy, E(C,NL) :        0.273387488933 Eh       
E(XC)              :     -126.636373448695 Eh       
DFET-embed. en.    :        0.000000000000 Eh       

---------------
SCF CONVERGENCE
---------------

  Last Energy change         ...   -1.6512e-08  Tolerance :   1.0000e-06
  Last MAX-Density change    ...    5.2637e-05  Tolerance :   1.0000e-05
  Last RMS-Density change    ...    5.5824e-07  Tolerance :   1.0000e-06
  Last DIIS Error            ...    4.3270e-05  Tolerance :   1.0000e-06

             **** THE GBW FILE WAS UPDATED (58_ZnBr.gbw) ****
             **** DENSITY FILE WAS UPDATED (58_ZnBr.scfp) ****
             **** ENERGY FILE WAS UPDATED (58_ZnBr.en.tmp) ****
----------------------
UHF SPIN CONTAMINATION
----------------------

Warning: in a DFT calculation there is little theoretical justification to 
         calculate <S**2> as in Hartree-Fock theory. We will do it anyways
         but you should keep in mind that the values have only limited relevance

Expectation value of <S**2>     :     0.753712
Ideal value S*(S+1) for S=0.5   :     0.750000
Deviation                       :     0.003712

             **** THE GBW FILE WAS UPDATED (58_ZnBr.gbw) ****
             **** DENSITY FILE WAS UPDATED (58_ZnBr.scfp) ****
----------------
ORBITAL ENERGIES
----------------
                 SPIN UP ORBITALS
  NO   OCC          E(Eh)            E(eV) 
   0   1.0000    -482.638769    -13133.2686 
   1   1.0000    -347.145417     -9446.3071 
   2   1.0000     -62.512629     -1701.0551 
   3   1.0000     -56.317688     -1532.4822 
   4   1.0000     -56.315583     -1532.4249 
   5   1.0000     -56.315583     -1532.4249 
   6   1.0000     -42.286158     -1150.6649 
   7   1.0000     -37.256092     -1013.7898 
   8   1.0000     -37.256092     -1013.7898 
   9   1.0000     -37.254586     -1013.7488 
  10   1.0000      -8.776669      -238.8253 
  11   1.0000      -6.602621      -179.6665 
  12   1.0000      -6.596272      -179.4937 
  13   1.0000      -6.596272      -179.4937 
  14   1.0000      -4.978503      -135.4720 
  15   1.0000      -3.370541       -91.7171 
  16   1.0000      -3.370541       -91.7171 
  17   1.0000      -3.366484       -91.6067 
  18   1.0000      -2.725558       -74.1662 
  19   1.0000      -2.723792       -74.1182 
  20   1.0000      -2.723792       -74.1182 
  21   1.0000      -2.718989       -73.9875 
  22   1.0000      -2.718960       -73.9867 
  23   1.0000      -0.875716       -23.8294 
  24   1.0000      -0.652719       -17.7614 
  25   1.0000      -0.652712       -17.7612 
  26   1.0000      -0.652163       -17.7463 
  27   1.0000      -0.651470       -17.7274 
  28   1.0000      -0.651470       -17.7274 
  29   1.0000      -0.462351       -12.5812 
  30   1.0000      -0.388153       -10.5622 
  31   1.0000      -0.388153       -10.5622 
  32   1.0000      -0.315827        -8.5941 
  33   0.0000       0.012908         0.3513 
  34   0.0000       0.012908         0.3513 
  35   0.0000       0.025659         0.6982 
  36   0.0000       0.035815         0.9746 
  37   0.0000       0.057677         1.5695 
  38   0.0000       0.057677         1.5695 
  39   0.0000       0.097197         2.6449 
  40   0.0000       0.118194         3.2162 
  41   0.0000       0.118696         3.2299 
  42   0.0000       0.118696         3.2299 
  43   0.0000       0.164703         4.4818 
  44   0.0000       0.185317         5.0427 
  45   0.0000       0.208062         5.6617 
  46   0.0000       0.208062         5.6617 
  47   0.0000       0.236482         6.4350 
  48   0.0000       0.236482         6.4350 
  49   0.0000       0.261395         7.1129 
  50   0.0000       0.269833         7.3425 
  51   0.0000       0.269833         7.3425 
  52   0.0000       0.300133         8.1670 
  53   0.0000       0.300133         8.1670 
  54   0.0000       0.374672        10.1953 
  55   0.0000       0.389592        10.6013 
  56   0.0000       0.389592        10.6013 
  57   0.0000       0.426350        11.6016 
  58   0.0000       0.526207        14.3188 
  59   0.0000       0.526207        14.3188 
  60   0.0000       0.576790        15.6953 
  61   0.0000       0.668562        18.1925 
  62   0.0000       0.676880        18.4188 
  63   0.0000       0.676880        18.4188 
  64   0.0000       0.705088        19.1864 
  65   0.0000       0.705088        19.1864 
  66   0.0000       0.780296        21.2329 
  67   0.0000       0.813222        22.1289 
  68   0.0000       0.813223        22.1289 
  69   0.0000       0.889976        24.2175 
  70   0.0000       0.889976        24.2175 
  71   0.0000       0.893446        24.3119 
  72   0.0000       0.904326        24.6080 
  73   0.0000       0.904326        24.6080 
  74   0.0000       0.916537        24.9402 
  75   0.0000       0.916537        24.9402 
  76   0.0000       1.028848        27.9964 
  77   0.0000       1.028848        27.9964 
  78   0.0000       1.049171        28.5494 
  79   0.0000       1.111423        30.2434 
  80   0.0000       1.111423        30.2434 
  81   0.0000       1.249416        33.9983 
  82   0.0000       1.420060        38.6418 
  83   0.0000       1.712651        46.6036 
  84   0.0000       1.712651        46.6036 
  85   0.0000       1.766739        48.0754 
  86   0.0000       1.766741        48.0755 
  87   0.0000       1.885520        51.3076 
  88   0.0000       1.885520        51.3076 
  89   0.0000       1.914549        52.0975 
  90   0.0000       2.006011        54.5863 
  91   0.0000       2.006011        54.5863 
  92   0.0000       2.107350        57.3439 
  93   0.0000       2.107352        57.3440 
  94   0.0000       2.131343        57.9968 
  95   0.0000       2.141298        58.2677 
  96   0.0000       2.141298        58.2677 
  97   0.0000       2.167930        58.9924 
  98   0.0000       2.167932        58.9924 
  99   0.0000       2.212991        60.2185 
 100   0.0000       2.212991        60.2185 
 101   0.0000       2.274438        61.8906 
 102   0.0000       2.274438        61.8906 
 103   0.0000       2.326331        63.3027 
 104   0.0000       2.689341        73.1807 
 105   0.0000       2.853182        77.6390 
 106   0.0000       2.853185        77.6391 
 107   0.0000       2.935971        79.8918 
 108   0.0000       2.935971        79.8918 
 109   0.0000       3.074982        83.6745 
 110   0.0000       4.065304       110.6226 
 111   0.0000       4.318643       117.5162 
 112   0.0000       4.384489       119.3080 
 113   0.0000       4.384489       119.3080 
 114   0.0000       4.877387       132.7204 
 115   0.0000       5.008150       136.2787 
 116   0.0000       5.008150       136.2787 
 117   0.0000       5.043597       137.2433 
 118   0.0000       5.043615       137.2437 
 119   0.0000       5.171316       140.7187 
 120   0.0000       5.171316       140.7187 
 121   0.0000       5.444079       148.1409 
 122   0.0000       7.431282       202.2155 
 123   0.0000       7.431595       202.2240 
 124   0.0000       7.434750       202.3098 
 125   0.0000       7.434750       202.3098 
 126   0.0000       7.439084       202.4278 
 127   0.0000       7.439160       202.4298 
 128   0.0000       7.450235       202.7312 
 129   0.0000       7.450235       202.7312 
 130   0.0000       7.481032       203.5692 
 131   0.0000      10.256527       279.0943 
 132   0.0000      10.256559       279.0952 
 133   0.0000      10.330704       281.1127 
 134   0.0000      10.330704       281.1127 
 135   0.0000      10.460773       284.6521 
 136   0.0000      15.941503       433.7903 
 137   0.0000      15.941503       433.7903 
 138   0.0000      15.960694       434.3126 
 139   0.0000      15.960710       434.3130 
 140   0.0000      16.027278       436.1244 
 141   0.0000      16.027278       436.1244 
 142   0.0000      16.132369       438.9841 
 143   0.0000      19.676721       535.4308 
 144   0.0000      19.676778       535.4323 
 145   0.0000      19.679504       535.5065 
 146   0.0000      19.679504       535.5065 
 147   0.0000      19.682321       535.5832 
 148   0.0000      19.682587       535.5904 
 149   0.0000      19.689159       535.7692 
 150   0.0000      19.689159       535.7692 
 151   0.0000      19.702007       536.1189 

                 SPIN DOWN ORBITALS
  NO   OCC          E(Eh)            E(eV) 
   0   1.0000    -482.638259    -13133.2547 
   1   1.0000    -347.144245     -9446.2751 
   2   1.0000     -62.512354     -1701.0476 
   3   1.0000     -56.316571     -1532.4518 
   4   1.0000     -56.315355     -1532.4187 
   5   1.0000     -56.315355     -1532.4187 
   6   1.0000     -42.285433     -1150.6451 
   7   1.0000     -37.255785     -1013.7814 
   8   1.0000     -37.255785     -1013.7814 
   9   1.0000     -37.253398     -1013.7165 
  10   1.0000      -8.775936      -238.8054 
  11   1.0000      -6.600675      -179.6135 
  12   1.0000      -6.595929      -179.4844 
  13   1.0000      -6.595929      -179.4844 
  14   1.0000      -4.976564      -135.4192 
  15   1.0000      -3.369036       -91.6761 
  16   1.0000      -3.369036       -91.6761 
  17   1.0000      -3.365349       -91.5758 
  18   1.0000      -2.724088       -74.1262 
  19   1.0000      -2.722621       -74.0863 
  20   1.0000      -2.722621       -74.0863 
  21   1.0000      -2.718764       -73.9813 
  22   1.0000      -2.718734       -73.9805 
  23   1.0000      -0.867346       -23.6017 
  24   1.0000      -0.649950       -17.6860 
  25   1.0000      -0.649943       -17.6859 
  26   1.0000      -0.648785       -17.6543 
  27   1.0000      -0.648785       -17.6543 
  28   1.0000      -0.646901       -17.6031 
  29   1.0000      -0.436989       -11.8911 
  30   1.0000      -0.385771       -10.4974 
  31   1.0000      -0.385771       -10.4974 
  32   0.0000      -0.063155        -1.7185 
  33   0.0000       0.026488         0.7208 
  34   0.0000       0.026488         0.7208 
  35   0.0000       0.036854         1.0028 
  36   0.0000       0.040922         1.1136 
  37   0.0000       0.068264         1.8576 
  38   0.0000       0.068264         1.8576 
  39   0.0000       0.099506         2.7077 
  40   0.0000       0.120441         3.2774 
  41   0.0000       0.120441         3.2774 
  42   0.0000       0.140553         3.8247 
  43   0.0000       0.178345         4.8530 
  44   0.0000       0.190702         5.1893 
  45   0.0000       0.209988         5.7141 
  46   0.0000       0.209988         5.7141 
  47   0.0000       0.245817         6.6890 
  48   0.0000       0.245817         6.6890 
  49   0.0000       0.282729         7.6934 
  50   0.0000       0.283877         7.7247 
  51   0.0000       0.283877         7.7247 
  52   0.0000       0.302644         8.2354 
  53   0.0000       0.302645         8.2354 
  54   0.0000       0.387066        10.5326 
  55   0.0000       0.397818        10.8252 
  56   0.0000       0.397818        10.8252 
  57   0.0000       0.438343        11.9279 
  58   0.0000       0.528892        14.3919 
  59   0.0000       0.528892        14.3919 
  60   0.0000       0.578907        15.7529 
  61   0.0000       0.671595        18.2750 
  62   0.0000       0.682509        18.5720 
  63   0.0000       0.682509        18.5720 
  64   0.0000       0.706416        19.2226 
  65   0.0000       0.706417        19.2226 
  66   0.0000       0.793924        21.6038 
  67   0.0000       0.819907        22.3108 
  68   0.0000       0.819908        22.3108 
  69   0.0000       0.890001        24.2182 
  70   0.0000       0.890001        24.2182 
  71   0.0000       0.912774        24.8378 
  72   0.0000       0.914425        24.8828 
  73   0.0000       0.914425        24.8828 
  74   0.0000       0.920865        25.0580 
  75   0.0000       0.920865        25.0580 
  76   0.0000       1.038222        28.2514 
  77   0.0000       1.038222        28.2514 
  78   0.0000       1.060625        28.8611 
  79   0.0000       1.118931        30.4477 
  80   0.0000       1.118931        30.4477 
  81   0.0000       1.259456        34.2715 
  82   0.0000       1.425823        38.7986 
  83   0.0000       1.726474        46.9797 
  84   0.0000       1.726474        46.9797 
  85   0.0000       1.781965        48.4897 
  86   0.0000       1.781967        48.4898 
  87   0.0000       1.895218        51.5715 
  88   0.0000       1.895218        51.5715 
  89   0.0000       1.923248        52.3342 
  90   0.0000       2.009944        54.6934 
  91   0.0000       2.009944        54.6934 
  92   0.0000       2.108996        57.3887 
  93   0.0000       2.108999        57.3888 
  94   0.0000       2.136973        58.1500 
  95   0.0000       2.142278        58.2943 
  96   0.0000       2.142278        58.2943 
  97   0.0000       2.172312        59.1116 
  98   0.0000       2.172315        59.1117 
  99   0.0000       2.219527        60.3964 
 100   0.0000       2.219527        60.3964 
 101   0.0000       2.280284        62.0497 
 102   0.0000       2.280284        62.0497 
 103   0.0000       2.334573        63.5270 
 104   0.0000       2.697457        73.4015 
 105   0.0000       2.859355        77.8070 
 106   0.0000       2.859356        77.8070 
 107   0.0000       2.945994        80.1646 
 108   0.0000       2.945994        80.1646 
 109   0.0000       3.086279        83.9819 
 110   0.0000       4.067296       110.6768 
 111   0.0000       4.330487       117.8385 
 112   0.0000       4.389138       119.4345 
 113   0.0000       4.389138       119.4345 
 114   0.0000       4.878998       132.7643 
 115   0.0000       5.010643       136.3465 
 116   0.0000       5.010643       136.3465 
 117   0.0000       5.047007       137.3360 
 118   0.0000       5.047024       137.3365 
 119   0.0000       5.175585       140.8348 
 120   0.0000       5.175585       140.8348 
 121   0.0000       5.449408       148.2859 
 122   0.0000       7.434848       202.3125 
 123   0.0000       7.435161       202.3210 
 124   0.0000       7.439489       202.4388 
 125   0.0000       7.439489       202.4388 
 126   0.0000       7.444783       202.5829 
 127   0.0000       7.444859       202.5849 
 128   0.0000       7.456454       202.9004 
 129   0.0000       7.456454       202.9004 
 130   0.0000       7.487248       203.7384 
 131   0.0000      10.258375       279.1446 
 132   0.0000      10.258409       279.1455 
 133   0.0000      10.332951       281.1739 
 134   0.0000      10.332951       281.1739 
 135   0.0000      10.463902       284.7372 
 136   0.0000      15.943972       433.8575 
 137   0.0000      15.943972       433.8575 
 138   0.0000      15.962113       434.3512 
 139   0.0000      15.962129       434.3516 
 140   0.0000      16.028738       436.1641 
 141   0.0000      16.028738       436.1641 
 142   0.0000      16.133991       439.0282 
 143   0.0000      19.678430       535.4773 
 144   0.0000      19.678487       535.4789 
 145   0.0000      19.680797       535.5417 
 146   0.0000      19.680797       535.5417 
 147   0.0000      19.683645       535.6192 
 148   0.0000      19.683911       535.6264 
 149   0.0000      19.690614       535.8088 
 150   0.0000      19.690614       535.8088 
 151   0.0000      19.703511       536.1598 

                    ********************************
                    * MULLIKEN POPULATION ANALYSIS *
                    ********************************

--------------------------------------------
MULLIKEN ATOMIC CHARGES AND SPIN POPULATIONS
--------------------------------------------
   0 Zn:    0.467795    0.853650
   1 Br:   -0.467795    0.146350
Sum of atomic charges         :   -0.0000000
Sum of atomic spin populations:    1.0000000

-----------------------------------------------------
MULLIKEN REDUCED ORBITAL CHARGES AND SPIN POPULATIONS
-----------------------------------------------------
CHARGE
  0 Zns       :     7.156744  s :     7.156744
      pz      :     4.285217  p :    12.369657
      px      :     4.042220
      py      :     4.042220
      dz2     :     1.992335  d :    10.002396
      dxz     :     2.005258
      dyz     :     2.005258
      dx2y2   :     1.999772
      dxy     :     1.999772
      f0      :     0.001494  f :     0.003397
      f+1     :     0.000949
      f-1     :     0.000949
      f+2     :     0.000003
      f-2     :     0.000003
      f+3     :     0.000000
      f-3     :     0.000000
      g0      :     0.000005  g :     0.000011
      g+1     :     0.000003
      g-1     :     0.000003
      g+2     :     0.000000
      g-2     :     0.000000
      g+3     :     0.000000
      g-3     :     0.000000
      g+4     :     0.000000
      g-4     :     0.000000
  1 Brs       :     8.001783  s :     8.001783
      pz      :     5.549708  p :    17.438026
      px      :     5.944159
      py      :     5.944159
      dz2     :     2.011788  d :    10.024644
      dxz     :     2.006289
      dyz     :     2.006289
      dx2y2   :     2.000139
      dxy     :     2.000139
      f0      :     0.000926  f :     0.003343
      f+1     :     0.001122
      f-1     :     0.001122
      f+2     :     0.000087
      f-2     :     0.000087
      f+3     :     0.000000
      f-3     :     0.000000

SPIN
  0 Zns       :     0.665136  s :     0.665136
      pz      :     0.181601  p :     0.186503
      px      :     0.002451
      py      :     0.002451
      dz2     :     0.004782  d :     0.001903
      dxz     :    -0.001461
      dyz     :    -0.001461
      dx2y2   :     0.000021
      dxy     :     0.000021
      f0      :     0.000133  f :     0.000108
      f+1     :    -0.000013
      f-1     :    -0.000013
      f+2     :     0.000001
      f-2     :     0.000001
      f+3     :     0.000000
      f-3     :     0.000000
      g0      :     0.000000  g :     0.000000
      g+1     :    -0.000000
      g-1     :    -0.000000
      g+2     :    -0.000000
      g-2     :    -0.000000
      g+3     :    -0.000000
      g-3     :    -0.000000
      g+4     :     0.000000
      g-4     :    -0.000000
  1 Brs       :     0.001727  s :     0.001727
      pz      :     0.150211  p :     0.148204
      px      :    -0.001003
      py      :    -0.001003
      dz2     :    -0.003369  d :    -0.003327
      dxz     :     0.000031
      dyz     :     0.000031
      dx2y2   :    -0.000010
      dxy     :    -0.000010
      f0      :    -0.000221  f :    -0.000255
      f+1     :    -0.000005
      f-1     :    -0.000005
      f+2     :    -0.000012
      f-2     :    -0.000012
      f+3     :     0.000000
      f-3     :     0.000000


                     *******************************
                     * LOEWDIN POPULATION ANALYSIS *
                     *******************************

-------------------------------------------
LOEWDIN ATOMIC CHARGES AND SPIN POPULATIONS
-------------------------------------------
   0 Zn:    0.170863    0.783881
   1 Br:   -0.170863    0.216119

----------------------------------------------------
LOEWDIN REDUCED ORBITAL CHARGES AND SPIN POPULATIONS
----------------------------------------------------
CHARGE
  0 Zns       :     6.864110  s :     6.864110
      pz      :     4.520745  p :    12.684719
      px      :     4.081987
      py      :     4.081987
      dz2     :     2.121167  d :    10.264329
      dxz     :     2.072520
      dyz     :     2.072520
      dx2y2   :     1.999062
      dxy     :     1.999062
      f0      :     0.008573  f :     0.015931
      f+1     :     0.003677
      f-1     :     0.003677
      f+2     :     0.000003
      f-2     :     0.000003
      f+3     :     0.000000
      f-3     :     0.000000
      g0      :     0.000026  g :     0.000047
      g+1     :     0.000011
      g-1     :     0.000011
      g+2     :     0.000000
      g-2     :     0.000000
      g+3     :     0.000000
      g-3     :     0.000000
      g+4     :     0.000000
      g-4     :     0.000000
  1 Brs       :     7.725026  s :     7.725026
      pz      :     5.622370  p :    17.271295
      px      :     5.824462
      py      :     5.824462
      dz2     :     2.107899  d :    10.126118
      dxz     :     2.008708
      dyz     :     2.008708
      dx2y2   :     2.000402
      dxy     :     2.000402
      f0      :     0.030083  f :     0.048424
      f+1     :     0.008637
      f-1     :     0.008637
      f+2     :     0.000534
      f-2     :     0.000534
      f+3     :     0.000000
      f-3     :     0.000000

SPIN
  0 Zns       :     0.486392  s :     0.486392
      pz      :     0.280331  p :     0.285573
      px      :     0.002621
      py      :     0.002621
      dz2     :     0.013611  d :     0.010307
      dxz     :    -0.001655
      dyz     :    -0.001655
      dx2y2   :     0.000003
      dxy     :     0.000003
      f0      :     0.001556  f :     0.001604
      f+1     :     0.000022
      f-1     :     0.000022
      f+2     :     0.000002
      f-2     :     0.000002
      f+3     :     0.000000
      f-3     :     0.000000
      g0      :     0.000005  g :     0.000005
      g+1     :    -0.000000
      g-1     :    -0.000000
      g+2     :    -0.000000
      g-2     :    -0.000000
      g+3     :    -0.000000
      g-3     :    -0.000000
      g+4     :     0.000000
      g-4     :    -0.000000
  1 Brs       :     0.033326  s :     0.033326
      pz      :     0.153076  p :     0.151499
      px      :    -0.000789
      py      :    -0.000789
      dz2     :     0.030099  d :     0.029886
      dxz     :    -0.000104
      dyz     :    -0.000104
      dx2y2   :    -0.000003
      dxy     :    -0.000003
      f0      :     0.001605  f :     0.001409
      f+1     :    -0.000095
      f-1     :    -0.000095
      f+2     :    -0.000003
      f-2     :    -0.000003
      f+3     :     0.000000
      f-3     :     0.000000


                      *****************************
                      * MAYER POPULATION ANALYSIS *
                      *****************************

  NA   - Mulliken gross atomic population
  ZA   - Total nuclear charge
  QA   - Mulliken gross atomic charge
  VA   - Mayer's total valence
  BVA  - Mayer's bonded valence
  FA   - Mayer's free valence

  ATOM       NA         ZA         QA         VA         BVA        FA
  0 Zn    29.5322    30.0000     0.4678     1.6147     0.8114     0.8033
  1 Br    35.4678    35.0000    -0.4678     0.8408     0.8114     0.0293

  Mayer bond orders larger than 0.100000
B(  0-Zn,  1-Br) :   0.8114 

-------
TIMINGS
-------

Total SCF time: 0 days 0 hours 7 min 3 sec 

Total time                  ....     423.533 sec
Sum of individual times     ....     423.162 sec  ( 99.9%)

Fock matrix formation       ....     422.668 sec  ( 99.8%)
  XC integration            ....       0.548 sec  (  0.1% of F)
    Basis function eval.    ....       0.130 sec  ( 23.7% of XC)
    Density eval.           ....       0.065 sec  ( 11.8% of XC)
    XC-Functional eval.     ....       0.024 sec  (  4.4% of XC)
    XC-Potential eval.      ....       0.136 sec  ( 24.9% of XC)
Diagonalization             ....       0.102 sec  (  0.0%)
Density matrix formation    ....       0.013 sec  (  0.0%)
Population analysis         ....       0.007 sec  (  0.0%)
Initial guess               ....       0.118 sec  (  0.0%)
Orbital Transformation      ....       0.000 sec  (  0.0%)
Orbital Orthonormalization  ....       0.000 sec  (  0.0%)
DIIS solution               ....       0.033 sec  (  0.0%)
Grid generation             ....       0.220 sec  (  0.1%)

-------------------------   --------------------
FINAL SINGLE POINT ENERGY     -4353.255442591984
-------------------------   --------------------


                            ***************************************
                            *     ORCA property calculations      *
                            ***************************************

                                    ---------------------
                                    Active property flags
                                    ---------------------
   (+) Dipole Moment


------------------------------------------------------------------------------
                       ORCA ELECTRIC PROPERTIES CALCULATION
------------------------------------------------------------------------------

Dipole Moment Calculation                       ... on
Quadrupole Moment Calculation                   ... off
Polarizability Calculation                      ... off
GBWName                                         ... 58_ZnBr.gbw
Electron density file                           ... 58_ZnBr.scfp
The origin for moment calculation is the CENTER OF MASS  = ( 0.000000,  0.000000  2.107663)

-------------
DIPOLE MOMENT
-------------
                                X             Y             Z
Electronic contribution:      0.00000      -0.00000       2.14283
Nuclear contribution   :      0.00000       0.00000      -3.26305
                        -----------------------------------------
Total Dipole Moment    :      0.00000      -0.00000      -1.12021
                        -----------------------------------------
Magnitude (a.u.)       :      1.12021
Magnitude (Debye)      :      2.84736



--------------------
Rotational spectrum 
--------------------
 
Rotational constants in cm-1:     0.000000     0.088026     0.088026 
Rotational constants in MHz :     0.000000  2638.947188  2638.947188 

 Dipole components along the rotational axes: 
x,y,z [a.u.] :    -1.120214    -0.000000     0.000000 
x,y,z [Debye]:    -2.847357    -0.000000     0.000000 

 

Timings for individual modules:

Sum of individual times         ...      428.839 sec (=   7.147 min)
GTO integral calculation        ...        4.770 sec (=   0.080 min)   1.1 %
SCF iterations                  ...      424.068 sec (=   7.068 min)  98.9 %
                             ****ORCA TERMINATED NORMALLY****
TOTAL RUN TIME: 0 days 0 hours 7 minutes 9 seconds 468 msec
