
                                 *****************
                                 * O   R   C   A *
                                 *****************

           --- An Ab Initio, DFT and Semiempirical electronic structure package ---

                  #######################################################
                  #                        -***-                        #
                  #          Department of theory and spectroscopy      #
                  #               Directorship: Frank Neese             #
                  #        Max Planck Institute fuer Kohlenforschung    #
                  #                Kaiser Wilhelm Platz 1               #
                  #                 D-45470 Muelheim/Ruhr               #
                  #                      Germany                        #
                  #                                                     #
                  #                  All rights reserved                #
                  #                        -***-                        #
                  #######################################################


                         Program Version 4.2.0 -  RELEASE  -


 With contributions from (in alphabetic order):
   Daniel Aravena         : Magnetic Suceptibility
   Michael Atanasov       : Ab Initio Ligand Field Theory (pilot matlab implementation)
   Alexander A. Auer      : GIAO ZORA, VPT2
   Ute Becker             : Parallelization
   Giovanni Bistoni       : ED, misc. LED, open-shell LED, HFLED
   Martin Brehm           : Molecular dynamics
   Dmytro Bykov           : SCF Hessian
   Vijay G. Chilkuri      : MRCI spin determinant printing, contributions to CSF-ICE
   Dipayan Datta          : RHF DLPNO-CCSD density
   Achintya Kumar Dutta   : EOM-CC, STEOM-CC
   Dmitry Ganyushin       : Spin-Orbit,Spin-Spin,Magnetic field MRCI
   Miquel Garcia          : C-PCM Hessian, Gaussian charge scheme
   Yang Guo               : DLPNO-NEVPT2, CIM, IAO-localization
   Andreas Hansen         : Spin unrestricted coupled pair/coupled cluster methods
   Benjamin Helmich-Paris : CASSCF linear response (MC-RPA)
   Lee Huntington         : MR-EOM, pCC
   Robert Izsak           : Overlap fitted RIJCOSX, COSX-SCS-MP3, EOM
   Christian Kollmar      : KDIIS, OOCD, Brueckner-CCSD(T), CCSD density
   Simone Kossmann        : Meta GGA functionals, TD-DFT gradient, OOMP2, MP2 Hessian
   Martin Krupicka        : AUTO-CI
   Lucas Lang             : DCDCAS
   Dagmar Lenk            : GEPOL surface, SMD
   Dimitrios Liakos       : Extrapolation schemes; Compound Job, initial MDCI parallelization
   Dimitrios Manganas     : Further ROCIS development; embedding schemes
   Dimitrios Pantazis     : SARC Basis sets
   Taras Petrenko         : DFT Hessian,TD-DFT gradient, ASA, ECA, R-Raman, ABS, FL, XAS/XES, NRVS
   Peter Pinski           : DLPNO-MP2, DLPNO-MP2 Gradient
   Christoph Reimann      : Effective Core Potentials
   Marius Retegan         : Local ZFS, SOC
   Christoph Riplinger    : Optimizer, TS searches, QM/MM, DLPNO-CCSD(T), (RO)-DLPNO pert. Triples
   Tobias Risthaus        : Range-separated hybrids, TD-DFT gradient, RPA, STAB
   Michael Roemelt        : Original ROCIS implementation
   Masaaki Saitow         : Open-shell DLPNO-CCSD energy and density
   Barbara Sandhoefer     : DKH picture change effects
   Avijit Sen             : IP-ROCIS
   Kantharuban Sivalingam : CASSCF convergence, NEVPT2, FIC-MRCI
   Bernardo de Souza      : ESD, SOC TD-DFT
   Georgi Stoychev        : AutoAux, RI-MP2 NMR
   Willem Van den Heuvel  : Paramagnetic NMR
   Boris Wezisla          : Elementary symmetry handling
   Frank Wennmohs         : Technical directorship


 We gratefully acknowledge several colleagues who have allowed us to
 interface, adapt or use parts of their codes:
   Stefan Grimme, W. Hujo, H. Kruse,             : VdW corrections, initial TS optimization,
                  C. Bannwarth                     DFT functionals, gCP, sTDA/sTD-DF
   Ed Valeev, F. Pavosevic, A. Kumar             : LibInt (2-el integral package), F12 methods
   Garnet Chan, S. Sharma, J. Yang, R. Olivares  : DMRG
   Ulf Ekstrom                                   : XCFun DFT Library
   Mihaly Kallay                                 : mrcc  (arbitrary order and MRCC methods)
   Andreas Klamt, Michael Diedenhofen            : otool_cosmo (COSMO solvation model)
   Jiri Pittner, Ondrej Demel                    : Mk-CCSD
   Frank Weinhold                                : gennbo (NPA and NBO analysis)
   Christopher J. Cramer and Donald G. Truhlar   : smd solvation model
   Lars Goerigk                                  : TD-DFT with DH, B97 family of functionals
   V. Asgeirsson, H. Jonsson                     : NEB implementation
   FAccTs GmbH                                   : IRC, NEB, NEB-TS, Multilevel, MM, QM/MM, CI optimization
   S Lehtola, MJT Oliveira, MAL Marques          : LibXC Library


 Your calculation uses the libint2 library for the computation of 2-el integrals
 For citations please refer to: http://libint.valeyev.net

 Your ORCA version has been built with support for libXC version: 4.2.3
 For citations please refer to: https://tddft.org/programs/libxc/

 This ORCA versions uses:
   CBLAS   interface :  Fast vector & matrix operations
   LAPACKE interface :  Fast linear algebra routines
   SCALAPACK package :  Parallel linear algebra routines


Your calculation utilizes the DFT-NL dispersion correction.
Cite in your paper:
Vydrov, O. A.; Van Voorhis, T. J. Chem. Phys. 2010, 133, 244103
Hujo, W.; Grimme, S. J. Chem. Theory Comput. 2011, 7, 3866 
   

----- Orbital basis set information -----
Your calculation utilizes the basis: aug-cc-pVTZ 
    H, B-Ne : Obtained from the ccRepo (grant-hill.group.shef.ac.uk/ccrepo) Feb. 2017
              R. A. Kendall, T. H. Dunning, Jr., R. J. Harrison, J. Chem. Phys. 96, 6796 (1992)
         He : Obtained from the ccRepo (grant-hill.group.shef.ac.uk/ccrepo) Feb. 2017
              D. E. Woon, T. H. Dunning, Jr., J. Chem. Phys. 100, 2975 (1994)
  Li-Be, Na : Obtained from the ccRepo (grant-hill.group.shef.ac.uk/ccrepo) Feb. 2017
              B. P. Prascher, D. E. Woon, K. A. Peterson, T. H. Dunning, Jr., A. K. Wilson, Theor. Chem. Acc. 128, 69 (2011)
         Mg : Obtained from the Peterson Research Group Website (tyr0.chem.wsu.edu/~kipeters) Feb. 2017
              B. P. Prascher, D. E. Woon, K. A. Peterson, T. H. Dunning, Jr., A. K. Wilson, Theor. Chem. Acc. 128, 69 (2011)
      Al-Ar : Obtained from the ccRepo (grant-hill.group.shef.ac.uk/ccrepo) Feb. 2017
              D. E. Woon, T. H. Dunning, Jr., J. Chem. Phys. 98, 1358 (1993)
      Sc-Zn : Obtained from the ccRepo (grant-hill.group.shef.ac.uk/ccrepo) Feb. 2017
              N. B. Balabanov, K. A. Peterson, J. Chem. Phys. 123, 064107 (2005)
              N. B. Balabanov, K. A. Peterson, J. Chem. Phys. 125, 074110 (2006)
      Ga-Kr : Obtained from the ccRepo (grant-hill.group.shef.ac.uk/ccrepo) Feb. 2017
              A. K. Wilson, D. E. Woon, K. A. Peterson, T. H. Dunning, Jr., J. Chem. Phys. 110, 7667 (1999)
     Ag, Au : Obtained from the Peterson Research Group Website (tyr0.chem.wsu.edu/~kipeters) Feb. 2017
              K. A. Peterson, C. Puzzarini, Theor. Chem. Acc. 114, 283 (2005)

----- AuxJK basis set information -----
Your calculation utilizes the auxiliary basis: def2/JK
   H-Ba, Hf-Rn: F. Weigend, J. Comput. Chem. 29, 167 (2008).

================================================================================
                                        WARNINGS
                       Please study these warnings very carefully!
================================================================================


WARNING: your system is open-shell and RHF/RKS was chosen
  ===> : WILL SWITCH to UHF/UKS


INFO   : the flag for use of LIBINT has been found!

================================================================================
                                       INPUT FILE
================================================================================
NAME = 63_V.in
|  1> #
|  2> # 63_V wb97x-v/aug-cc-pvtz
|  3> #
|  4> ! wb97x-v aug-cc-pvtz def2/jk grid4 nofinalgrid
|  5> 
|  6> *xyz 0 4
|  7> V 0.0 0.0 0.0
|  8> *
|  9> 
| 10> %pal
| 11> nprocs 24
| 12> end
| 13> 
| 14> 
| 15>                          ****END OF INPUT****
================================================================================

                       ****************************
                       * Single Point Calculation *
                       ****************************

---------------------------------
CARTESIAN COORDINATES (ANGSTROEM)
---------------------------------
  V      0.000000    0.000000    0.000000

----------------------------
CARTESIAN COORDINATES (A.U.)
----------------------------
  NO LB      ZA    FRAG     MASS         X           Y           Z
   0 V    23.0000    0    50.940    0.000000    0.000000    0.000000

--------------------------------
INTERNAL COORDINATES (ANGSTROEM)
--------------------------------
 V      0   0   0     0.000000000000     0.00000000     0.00000000

---------------------------
INTERNAL COORDINATES (A.U.)
---------------------------
 V      0   0   0     0.000000000000     0.00000000     0.00000000

---------------------
BASIS SET INFORMATION
---------------------
There are 1 groups of distinct atoms

 Group   1 Type V   : 116s77p23d3f2g contracted to 8s7p5d3f2g pattern {19191919191911/151515151511/77711/111/11}

Atom   0V    basis set group =>   1
----------------------------------
AUXILIARY/JK BASIS SET INFORMATION
----------------------------------
There are 1 groups of distinct atoms

 Group   1 Type V   : 19s14p12d10f7g3h1i contracted to 16s13p11d9f5g3h1i pattern {4111111111111111/2111111111111/21111111111/211111111/31111/111/1}

Atom   0V    basis set group =>   1


           ************************************************************
           *        Program running with 24 parallel MPI-processes    *
           *              working on a common directory               *
           ************************************************************
------------------------------------------------------------------------------
                           ORCA GTO INTEGRAL CALCULATION
------------------------------------------------------------------------------

                         BASIS SET STATISTICS AND STARTUP INFO

 # of primitive gaussian shells          ...  221
 # of primitive gaussian functions       ...  501
 # of contracted shells                  ...   25
 # of contracted basis functions         ...   93
 Highest angular momentum                ...    4
 Maximum contraction depth               ...   19
 Integral package used                   ... LIBINT
 Integral threshhold            Thresh   ...  1.000e-10
 Primitive cut-off              TCut     ...  1.000e-11


------------------------------ INTEGRAL EVALUATION ----------------------------


 * One electron integrals 
 Pre-screening matrix                    ... done
 Shell pair data                         ... done (   0.001 sec)



           ************************************************************
           *        Program running with 24 parallel MPI-processes    *
           *              working on a common directory               *
           ************************************************************
-------------------------------------------------------------------------------
                                 ORCA SCF
-------------------------------------------------------------------------------

------------
SCF SETTINGS
------------
Hamiltonian:
 Density Functional     Method          .... DFT(GTOs)
 Exchange Functional    Exchange        .... WB97X-V
 Correlation Functional Correlation     .... WB97X-V
 Gradients option       PostSCFGGA      .... off
 Hybrid DFT is turned on
   Fraction HF Exchange ScalHFX         ....  0.167000
   Scaling of DF-GGA-X  ScalDFX         ....  0.000000
   Scaling of DF-GGA-C  ScalDFC         ....  1.000000
   Scaling of DF-LDA-C  ScalLDAC        ....  1.000000
   Perturbative correction              ....  0.000000
   Density functional embedding theory  .... OFF
 Long-range corrected/Screened/Range-Separated Hybrid DFT is turned on
   Amount of maximum screened exact exchange              ....  0.833000
   Range separation parameter mu (erf(mu*r12)/r12)        ....  0.300000
   NL short-range parameter             ....  6.000000
   NL long-range parameter              ....  0.010000


General Settings:
 Integral files         IntName         .... 63_V
 Hartree-Fock type      HFTyp           .... UHF
 Total Charge           Charge          ....    0
 Multiplicity           Mult            ....    4
 Number of Electrons    NEL             ....   23
 Basis Dimension        Dim             ....   93
 Nuclear Repulsion      ENuc            ....      0.0000000000 Eh

Convergence Acceleration:
 DIIS                   CNVDIIS         .... on
   Start iteration      DIISMaxIt       ....    12
   Startup error        DIISStart       ....  0.200000
   # of expansion vecs  DIISMaxEq       ....     5
   Bias factor          DIISBfac        ....   1.050
   Max. coefficient     DIISMaxC        ....  10.000
 Newton-Raphson         CNVNR           .... off
 SOSCF                  CNVSOSCF        .... off
 Level Shifting         CNVShift        .... on
   Level shift para.    LevelShift      ....    0.2500
   Turn off err/grad.   ShiftErr        ....    0.0010
 Zerner damping         CNVZerner       .... off
 Static damping         CNVDamp         .... on
   Fraction old density DampFac         ....    0.7000
   Max. Damping (<1)    DampMax         ....    0.9800
   Min. Damping (>=0)   DampMin         ....    0.0000
   Turn off err/grad.   DampErr         ....    0.1000
 Fernandez-Rico         CNVRico         .... off

SCF Procedure:
 Maximum # iterations   MaxIter         ....   125
 SCF integral mode      SCFMode         .... Direct
   Integral package                     .... LIBINT
 Reset frequency        DirectResetFreq ....    20
 Integral Threshold     Thresh          ....  1.000e-10 Eh
 Primitive CutOff       TCut            ....  1.000e-11 Eh

Convergence Tolerance:
 Convergence Check Mode ConvCheckMode   .... Total+1el-Energy
 Convergence forced     ConvForced      .... 0
 Energy Change          TolE            ....  1.000e-06 Eh
 1-El. energy change                    ....  1.000e-03 Eh
 DIIS Error             TolErr          ....  1.000e-06


Diagonalization of the overlap matrix:
Smallest eigenvalue                        ... 1.570e-04
Time for diagonalization                   ...    0.003 sec
Threshold for overlap eigenvalues          ... 1.000e-08
Number of eigenvalues below threshold      ... 0
Time for construction of square roots      ...    0.002 sec
Total time needed                          ...    0.005 sec

-------------------
DFT GRID GENERATION
-------------------

General Integration Accuracy     IntAcc      ...  4.670
Radial Grid Type                 RadialGrid  ... Gauss-Chebyshev
Angular Grid (max. acc.)         AngularGrid ... Lebedev-302
Angular grid pruning method      GridPruning ... 3 (G Style)
Weight generation scheme         WeightScheme... Becke
Basis function cutoff            BFCut       ...    1.0000e-10
Integration weight cutoff        WCut        ...    1.0000e-14
Grids for H and He will be reduced by one unit

# of grid points (after initial pruning)     ...   9664 (   0.0 sec)
# of grid points (after weights+screening)   ...   9664 (   0.0 sec)
Grid point division into batches done        ...    0.1 sec
Reduced shell lists constructed in    0.1 sec

Total number of grid points                  ...     9664
Total number of batches                      ...      152
Average number of points per batch           ...       63
Average number of grid points per atom       ...     9664
Average number of shells per batch           ...    11.75 (47.00%)
Average number of basis functions per batch  ...    28.50 (30.65%)
Average number of large shells per batch     ...     5.88 (50.00%)
Average number of large basis fcns per batch ...    16.88 (59.21%)
Maximum spatial batch extension              ...  27.95, 22.27, 22.27 au
Average spatial batch extension              ...   0.96,  0.88,  0.86 au

Time for grid setup =    0.124 sec

------------------------------
INITIAL GUESS: MODEL POTENTIAL
------------------------------
Loading Hartree-Fock densities                     ... done
Calculating cut-offs                               ... done
Setting up the integral package                    ... done
Initializing the effective Hamiltonian             ... done
Starting the Coulomb interaction                   ... done (   0.0 sec)
Reading the grid                                   ... done
Mapping shells                                     ... done
Starting the XC term evaluation                    ... done (   0.0 sec)
  promolecular density results
     # of electrons  =     23.000003052
     EX              =    -33.382266879
     EC              =     -1.282215785
     EX+EC           =    -34.664482664
Transforming the Hamiltonian                       ... done (   0.0 sec)
Diagonalizing the Hamiltonian                      ... done (   0.0 sec)
Back transforming the eigenvectors                 ... done (   0.0 sec)
Now organizing SCF variables                       ... done
                      ------------------
                      INITIAL GUESS DONE (   0.2 sec)
                      ------------------
--------------
SCF ITERATIONS
--------------
ITER       Energy         Delta-E        Max-DP      RMS-DP      [F,P]     Damp
               ***  Starting incremental Fock matrix formation  ***
  0   -940.7139444532   0.000000000000 1.42449092  0.04626850  0.8285584 0.7000
  1   -942.3650053379  -1.651060884792 0.45440840  0.01286316  0.2407940 0.7000
  2   -942.8751731898  -0.510167851835 0.48292250  0.01445383  0.3260917 0.7000
  3   -943.0987795766  -0.223606386769 0.30922620  0.01020342  0.3490030 0.7000
  4   -943.2518158374  -0.153036260817 0.22505045  0.00722201  0.2869083 0.7000
  5   -943.3715985155  -0.119782678128 0.17488586  0.00516119  0.2144075 0.7000
                               ***Turning on DIIS***
  6   -943.4643248808  -0.092726365284 0.12895704  0.00368871  0.1522995 0.7000
  7   -943.5346297857  -0.070304904956 0.08665396  0.00277520  0.1026836 0.7000
  8   -943.5874317319  -0.052801946201 0.19235704  0.00674337  0.0743877 0.0000
  9   -943.7265085094  -0.139076777461 0.03371123  0.00050771  0.0267687 0.0000
 10   -943.7302069891  -0.003698479664 0.02198441  0.00031822  0.0317248 0.0000
 11   -943.7329757386  -0.002768749568 0.00836498  0.00016074  0.0346162 0.0000
 12   -943.7337002101  -0.000724471484 0.00731481  0.00009983  0.0341448 0.0000
 13   -943.7344569871  -0.000756776952 0.00465061  0.00011908  0.0343139 0.0000
 14   -943.7342621380   0.000194849114 0.01386566  0.00022818  0.0329582 0.0000
 15   -943.7363728876  -0.002110749624 0.01298389  0.00022055  0.0351840 0.0000
 16   -943.7384803237  -0.002107436099 0.01754208  0.00045257  0.0372937 0.0000
 17   -943.7387532280  -0.000272904308 0.02988682  0.00055947  0.0395606 0.0000
 18   -943.7445144277  -0.005761199721 0.02441292  0.00036416  0.0460934 0.0000
 19   -943.7492345102  -0.004720082539 0.00560053  0.00010828  0.0502440 0.0000
               *** Restarting incremental Fock matrix formation ***
                                   *** Resetting DIIS ***
 20   -943.7495032405  -0.000268730274 0.05950308  0.00087693  0.0497653 0.0000
 21   -943.7600468254  -0.010543584897 0.02582919  0.00034330  0.0529122 0.0000
 22   -943.7639172062  -0.003870380798 0.02013970  0.00022063  0.0493968 0.0000
 23   -943.7670222414  -0.003105035217 0.01233897  0.00013331  0.0477796 0.0000
 24   -943.7688919506  -0.001869709164 0.00759721  0.00008233  0.0466193 0.0000
 25   -943.7700594264  -0.001167475799 0.03592597  0.00054288  0.0459362 0.0000
 26   -943.7772760646  -0.007216638191 0.03825338  0.00081590  0.0492980 0.0000
 27   -943.7857940937  -0.008518029082 0.07308153  0.00093208  0.0573010 0.0000
 28   -943.7989784490  -0.013184355353 0.08974927  0.00106366  0.0561117 0.0000
 29   -943.8150807230  -0.016102273973 0.16405173  0.00192081  0.0542131 0.0000
 30   -943.8393728468  -0.024292123780 0.06283617  0.00102410  0.0508298 0.0000
 31   -943.8489146658  -0.009541819033 0.11061601  0.00166931  0.0323703 0.0000
 32   -943.8559924890  -0.007077823195 0.03755190  0.00059712  0.0302551 0.0000
 33   -943.8588411403  -0.002848651345 0.02824450  0.00040693  0.0198625 0.0000
 34   -943.8604329888  -0.001591848417 0.02661650  0.00044153  0.0118693 0.0000
 35   -943.8612471177  -0.000814128978 0.03052811  0.00039806  0.0079563 0.0000
 36   -943.8619291365  -0.000682018786 0.03403011  0.00040635  0.0057801 0.0000
 37   -943.8626537716  -0.000724635070 0.03082566  0.00034871  0.0049171 0.0000
 38   -943.8632905182  -0.000636746565 0.03203478  0.00037102  0.0043702 0.0000
 39   -943.8639246561  -0.000634137935 0.03290093  0.00036848  0.0040264 0.0000
               *** Restarting incremental Fock matrix formation ***
                                   *** Resetting DIIS ***
 40   -943.8645469589  -0.000622302849 0.01116943  0.00014872  0.0036003 0.0000
 41   -943.8647752662  -0.000228307283 0.00648619  0.00009577  0.0031090 0.0000
 42   -943.8649025936  -0.000127327361 0.00355544  0.00004002  0.0031132 0.0000
 43   -943.8649652270  -0.000062633367 0.00167795  0.00001826  0.0032552 0.0000
 44   -943.8649915122  -0.000026285205 0.00080541  0.00000853  0.0036298 0.0000
 45   -943.8650032753  -0.000011763153 0.00123317  0.00002223  0.0038222 0.0000
 46   -943.8649834564   0.000019818909 0.00358781  0.00008863  0.0037625 0.0000
 47   -943.8650713040  -0.000087847597 0.01115061  0.00013289  0.0033666 0.0000
 48   -943.8652852519  -0.000213947921 0.01184009  0.00014163  0.0038116 0.0000
 49   -943.8654918597  -0.000206607739 0.01175593  0.00014478  0.0039956 0.0000
 50   -943.8656848059  -0.000192946209 0.01265927  0.00015902  0.0040957 0.0000
 51   -943.8658817442  -0.000196938332 0.01501090  0.00019069  0.0041803 0.0000
 52   -943.8661015705  -0.000219826322 0.00906568  0.00010404  0.0042421 0.0000
 53   -943.8662234477  -0.000121877157 0.03626892  0.00056954  0.0038853 0.0000
 54   -943.8666541880  -0.000430740359 0.01037544  0.00027418  0.0048573 0.0000
 55   -943.8666324678   0.000021720260 0.02885610  0.00048066  0.0033690 0.0000
 56   -943.8669388538  -0.000306385997 0.02828828  0.00038600  0.0040251 0.0000
 57   -943.8671776742  -0.000238820423 0.01053191  0.00014427  0.0042188 0.0000
 58   -943.8672852884  -0.000107614167 0.03215656  0.00054103  0.0027776 0.0000
 59   -943.8674334256  -0.000148137239 0.00810601  0.00020615  0.0056575 0.0000
               *** Restarting incremental Fock matrix formation ***
                                   *** Resetting DIIS ***
 60   -943.8674913903  -0.000057964711 0.00194681  0.00002645  0.0017173 0.0000
 61   -943.8675009368  -0.000009546455 0.00137092  0.00004045  0.0014642 0.0000
 62   -943.8675074252  -0.000006488436 0.00215094  0.00002956  0.0014325 0.0000
 63   -943.8675168112  -0.000009385980 0.00343375  0.00004539  0.0013799 0.0000
 64   -943.8675308082  -0.000013996987 0.00469089  0.00006296  0.0012919 0.0000
 65   -943.8675482926  -0.000017484381 0.00170423  0.00002798  0.0011650 0.0000
 66   -943.8675542245  -0.000005931913 0.01016102  0.00017343  0.0010208 0.0000
 67   -943.8675831427  -0.000028918278 0.00340534  0.00004972  0.0013206 0.0000
 68   -943.8675939919  -0.000010849123 0.01465223  0.00020194  0.0006938 0.0000
 69   -943.8676218157  -0.000027823800 0.00605081  0.00008831  0.0001824 0.0000
 70   -943.8676285463  -0.000006730675 0.00201598  0.00002919  0.0000834 0.0000
 71   -943.8676304370  -0.000001890636 0.00055484  0.00000876  0.0001016 0.0000
                 **** Energy Check signals convergence ****

               *****************************************************
               *                     SUCCESS                       *
               *           SCF CONVERGED AFTER  72 CYCLES          *
               *****************************************************


Setting up the DFT-NL grid :

General Integration Accuracy     IntAcc      ...  4.340
Radial Grid Type                 RadialGrid  ... Gauss-Chebyshev
Angular Grid (max. acc.)         AngularGrid ... Lebedev-110
Angular grid pruning method      GridPruning ... 3 (G Style)
Weight generation scheme         WeightScheme... Becke
Basis function cutoff            BFCut       ...    1.0000e-10
Integration weight cutoff        WCut        ...    1.0000e-14
Grids for H and He will be reduced by one unit

# of grid points (after initial pruning)     ...   2972 (   0.0 sec)
# of grid points (after weights+screening)   ...   2972 (   0.0 sec)
Grid point division into batches done        ...    0.0 sec
Reduced shell lists constructed in    0.0 sec

Total number of grid points                  ...     2972
Total number of batches                      ...       47
Average number of points per batch           ...       63
Average number of grid points per atom       ...     2972
Average number of shells per batch           ...    15.33 (61.33%)
Average number of basis functions per batch  ...    51.33 (55.20%)
Average number of large shells per batch     ...    12.00 (78.26%)
Average number of large basis fcns per batch ...    37.33 (72.73%)
Maximum spatial batch extension              ...  18.71, 28.73, 28.73 au
Average spatial batch extension              ...   0.80,  1.22,  1.22 au

Final grid set up in    0.0 sec

-------------------------------------------------------------------------------
                         DFT-NL dispersion correction                          
-------------------------------------------------------------------------------

SC Energy -943.867631036 
NL    Energy 0.097424836 
SC+NL Energy -943.770206200 
NL done in    0.0 sec
-------------------------------------------------------------------------------

----------------
TOTAL SCF ENERGY
----------------

Total Energy       :         -943.77020620 Eh          -25681.29292 eV

Components:
Nuclear Repulsion  :            0.00000000 Eh               0.00000 eV
Electronic Energy  :         -943.77020620 Eh          -25681.29292 eV
One Electron Energy:        -1295.04356924 Eh          -35239.92708 eV
Two Electron Energy:          351.27336304 Eh            9558.63416 eV

Virial components:
Potential Energy   :        -1886.36058845 Eh          -51330.48120 eV
Kinetic Energy     :          942.59038225 Eh           25649.18828 eV
Virial Ratio       :            2.00125168


DFT components:
N(Alpha)           :       12.999998314580 electrons
N(Beta)            :        9.999998327026 electrons
N(Total)           :       22.999996641606 electrons
E(X)               :      -33.493940461522 Eh       
E(C)               :       -1.258697006755 Eh       
NL Energy, E(C,NL) :        0.097424836041 Eh       
E(XC)              :      -34.655212632237 Eh       
DFET-embed. en.    :        0.000000000000 Eh       

---------------
SCF CONVERGENCE
---------------

  Last Energy change         ...   -5.9895e-07  Tolerance :   1.0000e-06
  Last MAX-Density change    ...    1.2416e-04  Tolerance :   1.0000e-05
  Last RMS-Density change    ...    1.7289e-06  Tolerance :   1.0000e-06
  Last DIIS Error            ...    9.6830e-05  Tolerance :   1.0000e-06

             **** THE GBW FILE WAS UPDATED (63_V.gbw) ****
             **** DENSITY FILE WAS UPDATED (63_V.scfp) ****
             **** ENERGY FILE WAS UPDATED (63_V.en.tmp) ****
----------------------
UHF SPIN CONTAMINATION
----------------------

Warning: in a DFT calculation there is little theoretical justification to 
         calculate <S**2> as in Hartree-Fock theory. We will do it anyways
         but you should keep in mind that the values have only limited relevance

Expectation value of <S**2>     :     3.944731
Ideal value S*(S+1) for S=1.5   :     3.750000
Deviation                       :     0.194731

             **** THE GBW FILE WAS UPDATED (63_V.gbw) ****
             **** DENSITY FILE WAS UPDATED (63_V.scfp) ****
----------------
ORBITAL ENERGIES
----------------
                 SPIN UP ORBITALS
  NO   OCC          E(Eh)            E(eV) 
   0   1.0000    -196.806443     -5355.3756 
   1   1.0000     -22.329995      -607.6300 
   2   1.0000     -18.825258      -512.2613 
   3   1.0000     -18.825140      -512.2581 
   4   1.0000     -18.821118      -512.1486 
   5   1.0000      -2.806928       -76.3804 
   6   1.0000      -1.838621       -50.0314 
   7   1.0000      -1.836721       -49.9797 
   8   1.0000      -1.835762       -49.9536 
   9   1.0000      -0.377236       -10.2651 
  10   1.0000      -0.375343       -10.2136 
  11   1.0000      -0.373933       -10.1752 
  12   1.0000      -0.266663        -7.2563 
  13   0.0000      -0.013768        -0.3746 
  14   0.0000      -0.000715        -0.0195 
  15   0.0000       0.010213         0.2779 
  16   0.0000       0.010559         0.2873 
  17   0.0000       0.012093         0.3291 
  18   0.0000       0.026905         0.7321 
  19   0.0000       0.049863         1.3569 
  20   0.0000       0.050166         1.3651 
  21   0.0000       0.051544         1.4026 
  22   0.0000       0.070596         1.9210 
  23   0.0000       0.070736         1.9248 
  24   0.0000       0.071097         1.9346 
  25   0.0000       0.072043         1.9604 
  26   0.0000       0.073091         1.9889 
  27   0.0000       0.132941         3.6175 
  28   0.0000       0.195270         5.3136 
  29   0.0000       0.195533         5.3207 
  30   0.0000       0.196871         5.3571 
  31   0.0000       0.230012         6.2589 
  32   0.0000       0.230734         6.2786 
  33   0.0000       0.232303         6.3213 
  34   0.0000       0.236404         6.4329 
  35   0.0000       0.241732         6.5779 
  36   0.0000       0.459949        12.5158 
  37   0.0000       0.462805        12.5936 
  38   0.0000       0.463171        12.6035 
  39   0.0000       0.463463        12.6115 
  40   0.0000       0.464568        12.6415 
  41   0.0000       0.466826        12.7030 
  42   0.0000       0.467079        12.7099 
  43   0.0000       0.469000        12.7621 
  44   0.0000       0.661598        18.0030 
  45   0.0000       0.661614        18.0034 
  46   0.0000       0.661676        18.0051 
  47   0.0000       0.771180        20.9849 
  48   0.0000       0.772191        21.0124 
  49   0.0000       0.772807        21.0292 
  50   0.0000       0.788474        21.4555 
  51   0.0000       0.792796        21.5731 
  52   0.0000       1.426462        38.8160 
  53   0.0000       1.439448        39.1694 
  54   0.0000       1.440034        39.1853 
  55   0.0000       1.441240        39.2181 
  56   0.0000       1.451306        39.4920 
  57   0.0000       1.452816        39.5331 
  58   0.0000       1.453968        39.5645 
  59   0.0000       1.711256        46.5656 
  60   0.0000       1.711260        46.5658 
  61   0.0000       1.711544        46.5735 
  62   0.0000       1.711793        46.5802 
  63   0.0000       1.716158        46.6990 
  64   0.0000       1.717276        46.7295 
  65   0.0000       1.718079        46.7513 
  66   0.0000       1.718138        46.7529 
  67   0.0000       1.718322        46.7579 
  68   0.0000       2.232859        60.7592 
  69   0.0000       2.235336        60.8266 
  70   0.0000       2.235449        60.8297 
  71   0.0000       2.236117        60.8478 
  72   0.0000       2.827114        76.9297 
  73   0.0000       2.828651        76.9715 
  74   0.0000       2.829806        77.0029 
  75   0.0000       2.863970        77.9326 
  76   0.0000       2.865956        77.9866 
  77   0.0000       4.866004       132.4107 
  78   0.0000       4.881243       132.8254 
  79   0.0000       4.881882       132.8427 
  80   0.0000       4.883069       132.8751 
  81   0.0000       4.896711       133.2463 
  82   0.0000       4.900133       133.3394 
  83   0.0000       4.900558       133.3509 
  84   0.0000       5.206241       141.6690 
  85   0.0000       5.206368       141.6725 
  86   0.0000       5.206693       141.6813 
  87   0.0000       5.218999       142.0162 
  88   0.0000       5.220494       142.0569 
  89   0.0000       5.221116       142.0738 
  90   0.0000       5.222039       142.0989 
  91   0.0000       5.223141       142.1289 
  92   0.0000       5.234615       142.4411 

                 SPIN DOWN ORBITALS
  NO   OCC          E(Eh)            E(eV) 
   0   1.0000    -196.806253     -5355.3704 
   1   1.0000     -22.291964      -606.5952 
   2   1.0000     -18.794273      -511.4182 
   3   1.0000     -18.793563      -511.3988 
   4   1.0000     -18.789438      -511.2866 
   5   1.0000      -2.694927       -73.3327 
   6   1.0000      -1.716580       -46.7105 
   7   1.0000      -1.714593       -46.6565 
   8   1.0000      -1.707568       -46.4653 
   9   1.0000      -0.241375        -6.5681 
  10   0.0000       0.010381         0.2825 
  11   0.0000       0.012620         0.3434 
  12   0.0000       0.013314         0.3623 
  13   0.0000       0.025136         0.6840 
  14   0.0000       0.039621         1.0781 
  15   0.0000       0.041598         1.1319 
  16   0.0000       0.051442         1.3998 
  17   0.0000       0.052224         1.4211 
  18   0.0000       0.053145         1.4462 
  19   0.0000       0.053480         1.4553 
  20   0.0000       0.053509         1.4560 
  21   0.0000       0.054214         1.4752 
  22   0.0000       0.075855         2.0641 
  23   0.0000       0.076368         2.0781 
  24   0.0000       0.081481         2.2172 
  25   0.0000       0.082072         2.2333 
  26   0.0000       0.082101         2.2341 
  27   0.0000       0.137255         3.7349 
  28   0.0000       0.201663         5.4875 
  29   0.0000       0.204147         5.5551 
  30   0.0000       0.205164         5.5828 
  31   0.0000       0.249026         6.7763 
  32   0.0000       0.249673         6.7940 
  33   0.0000       0.254127         6.9152 
  34   0.0000       0.254606         6.9282 
  35   0.0000       0.254629         6.9288 
  36   0.0000       0.468326        12.7438 
  37   0.0000       0.468787        12.7563 
  38   0.0000       0.469548        12.7770 
  39   0.0000       0.470269        12.7967 
  40   0.0000       0.470982        12.8161 
  41   0.0000       0.471344        12.8259 
  42   0.0000       0.471381        12.8269 
  43   0.0000       0.487897        13.2764 
  44   0.0000       0.683034        18.5863 
  45   0.0000       0.685476        18.6528 
  46   0.0000       0.686983        18.6938 
  47   0.0000       0.811390        22.0791 
  48   0.0000       0.812612        22.1123 
  49   0.0000       0.819964        22.3123 
  50   0.0000       0.820976        22.3399 
  51   0.0000       0.821063        22.3423 
  52   0.0000       1.484241        40.3883 
  53   0.0000       1.485264        40.4161 
  54   0.0000       1.487424        40.4749 
  55   0.0000       1.489800        40.5395 
  56   0.0000       1.491920        40.5972 
  57   0.0000       1.492394        40.6101 
  58   0.0000       1.494390        40.6644 
  59   0.0000       1.729020        47.0490 
  60   0.0000       1.729227        47.0547 
  61   0.0000       1.730931        47.1010 
  62   0.0000       1.731506        47.1167 
  63   0.0000       1.732741        47.1503 
  64   0.0000       1.734180        47.1894 
  65   0.0000       1.734443        47.1966 
  66   0.0000       1.735347        47.2212 
  67   0.0000       1.735434        47.2236 
  68   0.0000       2.291904        62.3659 
  69   0.0000       2.291976        62.3678 
  70   0.0000       2.293821        62.4181 
  71   0.0000       2.294137        62.4266 
  72   0.0000       2.908436        79.1426 
  73   0.0000       2.912049        79.2409 
  74   0.0000       2.926212        79.6263 
  75   0.0000       2.926649        79.6382 
  76   0.0000       2.927759        79.6684 
  77   0.0000       4.967097       135.1616 
  78   0.0000       4.968464       135.1988 
  79   0.0000       4.973285       135.3300 
  80   0.0000       4.983873       135.6181 
  81   0.0000       4.985696       135.6677 
  82   0.0000       4.986007       135.6762 
  83   0.0000       5.004044       136.1670 
  84   0.0000       5.276832       143.5899 
  85   0.0000       5.279453       143.6612 
  86   0.0000       5.282470       143.7433 
  87   0.0000       5.284852       143.8081 
  88   0.0000       5.285155       143.8164 
  89   0.0000       5.287641       143.8840 
  90   0.0000       5.297008       144.1389 
  91   0.0000       5.297261       144.1458 
  92   0.0000       5.298236       144.1723 

                    ********************************
                    * MULLIKEN POPULATION ANALYSIS *
                    ********************************

--------------------------------------------
MULLIKEN ATOMIC CHARGES AND SPIN POPULATIONS
--------------------------------------------
   0 V :   -0.000000    3.000000
Sum of atomic charges         :   -0.0000000
Sum of atomic spin populations:    3.0000000

-----------------------------------------------------
MULLIKEN REDUCED ORBITAL CHARGES AND SPIN POPULATIONS
-----------------------------------------------------
CHARGE
  0 V s       :     7.865672  s :     7.865672
      pz      :     3.999932  p :    11.999779
      px      :     3.999927
      py      :     3.999921
      dz2     :     0.260300  d :     3.134282
      dxz     :     0.993018
      dyz     :     0.825965
      dx2y2   :     0.058182
      dxy     :     0.996817
      f0      :     0.000055  f :     0.000221
      f+1     :     0.000024
      f-1     :     0.000032
      f+2     :     0.000014
      f-2     :     0.000000
      f+3     :     0.000049
      f-3     :     0.000046
      g0      :     0.000006  g :     0.000046
      g+1     :     0.000002
      g-1     :     0.000005
      g+2     :     0.000001
      g-2     :     0.000003
      g+3     :     0.000003
      g-3     :     0.000005
      g+4     :     0.000022
      g-4     :     0.000001

SPIN
  0 V s       :    -0.118524  s :    -0.118524
      pz      :    -0.000050  p :    -0.000148
      px      :    -0.000050
      py      :    -0.000048
      dz2     :     0.247027  d :     3.118491
      dxz     :     0.992921
      dyz     :     0.824264
      dx2y2   :     0.057462
      dxy     :     0.996817
      f0      :     0.000039  f :     0.000148
      f+1     :     0.000013
      f-1     :     0.000021
      f+2     :     0.000008
      f-2     :     0.000000
      f+3     :     0.000037
      f-3     :     0.000029
      g0      :     0.000002  g :     0.000033
      g+1     :     0.000001
      g-1     :     0.000002
      g+2     :     0.000000
      g-2     :     0.000003
      g+3     :     0.000003
      g-3     :     0.000004
      g+4     :     0.000016
      g-4     :     0.000001


                     *******************************
                     * LOEWDIN POPULATION ANALYSIS *
                     *******************************

-------------------------------------------
LOEWDIN ATOMIC CHARGES AND SPIN POPULATIONS
-------------------------------------------
   0 V :   -0.000000    3.000000

----------------------------------------------------
LOEWDIN REDUCED ORBITAL CHARGES AND SPIN POPULATIONS
----------------------------------------------------
CHARGE
  0 V s       :     7.865672  s :     7.865672
      pz      :     3.999932  p :    11.999779
      px      :     3.999927
      py      :     3.999921
      dz2     :     0.260300  d :     3.134282
      dxz     :     0.993018
      dyz     :     0.825965
      dx2y2   :     0.058182
      dxy     :     0.996817
      f0      :     0.000055  f :     0.000221
      f+1     :     0.000024
      f-1     :     0.000032
      f+2     :     0.000014
      f-2     :     0.000000
      f+3     :     0.000049
      f-3     :     0.000046
      g0      :     0.000006  g :     0.000046
      g+1     :     0.000002
      g-1     :     0.000005
      g+2     :     0.000001
      g-2     :     0.000003
      g+3     :     0.000003
      g-3     :     0.000005
      g+4     :     0.000022
      g-4     :     0.000001

SPIN
  0 V s       :    -0.118524  s :    -0.118524
      pz      :    -0.000050  p :    -0.000148
      px      :    -0.000050
      py      :    -0.000048
      dz2     :     0.247027  d :     3.118491
      dxz     :     0.992921
      dyz     :     0.824264
      dx2y2   :     0.057462
      dxy     :     0.996817
      f0      :     0.000039  f :     0.000148
      f+1     :     0.000013
      f-1     :     0.000021
      f+2     :     0.000008
      f-2     :     0.000000
      f+3     :     0.000037
      f-3     :     0.000029
      g0      :     0.000002  g :     0.000033
      g+1     :     0.000001
      g-1     :     0.000002
      g+2     :     0.000000
      g-2     :     0.000003
      g+3     :     0.000003
      g-3     :     0.000004
      g+4     :     0.000016
      g-4     :     0.000001


                      *****************************
                      * MAYER POPULATION ANALYSIS *
                      *****************************

  NA   - Mulliken gross atomic population
  ZA   - Total nuclear charge
  QA   - Mulliken gross atomic charge
  VA   - Mayer's total valence
  BVA  - Mayer's bonded valence
  FA   - Mayer's free valence

  ATOM       NA         ZA         QA         VA         BVA        FA
  0 V     23.0000    23.0000    -0.0000     3.3895     0.0000     3.3895

  Mayer bond orders larger than 0.100000


-------
TIMINGS
-------

Total SCF time: 0 days 0 hours 12 min 39 sec 

Total time                  ....     759.162 sec
Sum of individual times     ....     758.756 sec  ( 99.9%)

Fock matrix formation       ....     758.217 sec  ( 99.9%)
  XC integration            ....       0.938 sec  (  0.1% of F)
    Basis function eval.    ....       0.217 sec  ( 23.1% of XC)
    Density eval.           ....       0.086 sec  (  9.2% of XC)
    XC-Functional eval.     ....       0.053 sec  (  5.6% of XC)
    XC-Potential eval.      ....       0.176 sec  ( 18.8% of XC)
Diagonalization             ....       0.172 sec  (  0.0%)
Density matrix formation    ....       0.030 sec  (  0.0%)
Population analysis         ....       0.004 sec  (  0.0%)
Initial guess               ....       0.119 sec  (  0.0%)
Orbital Transformation      ....       0.000 sec  (  0.0%)
Orbital Orthonormalization  ....       0.000 sec  (  0.0%)
DIIS solution               ....       0.078 sec  (  0.0%)
Grid generation             ....       0.136 sec  (  0.0%)

-------------------------   --------------------
FINAL SINGLE POINT ENERGY      -943.770206199889
-------------------------   --------------------


                            ***************************************
                            *     ORCA property calculations      *
                            ***************************************

                                    ---------------------
                                    Active property flags
                                    ---------------------
   (+) Dipole Moment


------------------------------------------------------------------------------
                       ORCA ELECTRIC PROPERTIES CALCULATION
------------------------------------------------------------------------------

Dipole Moment Calculation                       ... on
Quadrupole Moment Calculation                   ... off
Polarizability Calculation                      ... off
GBWName                                         ... 63_V.gbw
Electron density file                           ... 63_V.scfp
The origin for moment calculation is the CENTER OF MASS  = ( 0.000000,  0.000000  0.000000)

-------------
DIPOLE MOMENT
-------------
                                X             Y             Z
Electronic contribution:      0.00000       0.00000       0.00000
Nuclear contribution   :      0.00000       0.00000       0.00000
                        -----------------------------------------
Total Dipole Moment    :      0.00000       0.00000       0.00000
                        -----------------------------------------
Magnitude (a.u.)       :      0.00000
Magnitude (Debye)      :      0.00000



--------------------
Rotational spectrum 
--------------------
 
Rotational constants in cm-1:     0.000000     0.000000     0.000000 
Rotational constants in MHz :     0.000000     0.000000     0.000000 

 Dipole components along the rotational axes: 
x,y,z [a.u.] :     0.000000     0.000000     0.000000 
x,y,z [Debye]:     0.000000     0.000000     0.000000 

 

Timings for individual modules:

Sum of individual times         ...      762.485 sec (=  12.708 min)
GTO integral calculation        ...        2.801 sec (=   0.047 min)   0.4 %
SCF iterations                  ...      759.684 sec (=  12.661 min)  99.6 %
                             ****ORCA TERMINATED NORMALLY****
TOTAL RUN TIME: 0 days 0 hours 12 minutes 43 seconds 66 msec
