
                                 *****************
                                 * O   R   C   A *
                                 *****************

           --- An Ab Initio, DFT and Semiempirical electronic structure package ---

                  #######################################################
                  #                        -***-                        #
                  #          Department of theory and spectroscopy      #
                  #               Directorship: Frank Neese             #
                  #        Max Planck Institute fuer Kohlenforschung    #
                  #                Kaiser Wilhelm Platz 1               #
                  #                 D-45470 Muelheim/Ruhr               #
                  #                      Germany                        #
                  #                                                     #
                  #                  All rights reserved                #
                  #                        -***-                        #
                  #######################################################


                         Program Version 4.2.0 -  RELEASE  -


 With contributions from (in alphabetic order):
   Daniel Aravena         : Magnetic Suceptibility
   Michael Atanasov       : Ab Initio Ligand Field Theory (pilot matlab implementation)
   Alexander A. Auer      : GIAO ZORA, VPT2
   Ute Becker             : Parallelization
   Giovanni Bistoni       : ED, misc. LED, open-shell LED, HFLED
   Martin Brehm           : Molecular dynamics
   Dmytro Bykov           : SCF Hessian
   Vijay G. Chilkuri      : MRCI spin determinant printing, contributions to CSF-ICE
   Dipayan Datta          : RHF DLPNO-CCSD density
   Achintya Kumar Dutta   : EOM-CC, STEOM-CC
   Dmitry Ganyushin       : Spin-Orbit,Spin-Spin,Magnetic field MRCI
   Miquel Garcia          : C-PCM Hessian, Gaussian charge scheme
   Yang Guo               : DLPNO-NEVPT2, CIM, IAO-localization
   Andreas Hansen         : Spin unrestricted coupled pair/coupled cluster methods
   Benjamin Helmich-Paris : CASSCF linear response (MC-RPA)
   Lee Huntington         : MR-EOM, pCC
   Robert Izsak           : Overlap fitted RIJCOSX, COSX-SCS-MP3, EOM
   Christian Kollmar      : KDIIS, OOCD, Brueckner-CCSD(T), CCSD density
   Simone Kossmann        : Meta GGA functionals, TD-DFT gradient, OOMP2, MP2 Hessian
   Martin Krupicka        : AUTO-CI
   Lucas Lang             : DCDCAS
   Dagmar Lenk            : GEPOL surface, SMD
   Dimitrios Liakos       : Extrapolation schemes; Compound Job, initial MDCI parallelization
   Dimitrios Manganas     : Further ROCIS development; embedding schemes
   Dimitrios Pantazis     : SARC Basis sets
   Taras Petrenko         : DFT Hessian,TD-DFT gradient, ASA, ECA, R-Raman, ABS, FL, XAS/XES, NRVS
   Peter Pinski           : DLPNO-MP2, DLPNO-MP2 Gradient
   Christoph Reimann      : Effective Core Potentials
   Marius Retegan         : Local ZFS, SOC
   Christoph Riplinger    : Optimizer, TS searches, QM/MM, DLPNO-CCSD(T), (RO)-DLPNO pert. Triples
   Tobias Risthaus        : Range-separated hybrids, TD-DFT gradient, RPA, STAB
   Michael Roemelt        : Original ROCIS implementation
   Masaaki Saitow         : Open-shell DLPNO-CCSD energy and density
   Barbara Sandhoefer     : DKH picture change effects
   Avijit Sen             : IP-ROCIS
   Kantharuban Sivalingam : CASSCF convergence, NEVPT2, FIC-MRCI
   Bernardo de Souza      : ESD, SOC TD-DFT
   Georgi Stoychev        : AutoAux, RI-MP2 NMR
   Willem Van den Heuvel  : Paramagnetic NMR
   Boris Wezisla          : Elementary symmetry handling
   Frank Wennmohs         : Technical directorship


 We gratefully acknowledge several colleagues who have allowed us to
 interface, adapt or use parts of their codes:
   Stefan Grimme, W. Hujo, H. Kruse,             : VdW corrections, initial TS optimization,
                  C. Bannwarth                     DFT functionals, gCP, sTDA/sTD-DF
   Ed Valeev, F. Pavosevic, A. Kumar             : LibInt (2-el integral package), F12 methods
   Garnet Chan, S. Sharma, J. Yang, R. Olivares  : DMRG
   Ulf Ekstrom                                   : XCFun DFT Library
   Mihaly Kallay                                 : mrcc  (arbitrary order and MRCC methods)
   Andreas Klamt, Michael Diedenhofen            : otool_cosmo (COSMO solvation model)
   Jiri Pittner, Ondrej Demel                    : Mk-CCSD
   Frank Weinhold                                : gennbo (NPA and NBO analysis)
   Christopher J. Cramer and Donald G. Truhlar   : smd solvation model
   Lars Goerigk                                  : TD-DFT with DH, B97 family of functionals
   V. Asgeirsson, H. Jonsson                     : NEB implementation
   FAccTs GmbH                                   : IRC, NEB, NEB-TS, Multilevel, MM, QM/MM, CI optimization
   S Lehtola, MJT Oliveira, MAL Marques          : LibXC Library


 Your calculation uses the libint2 library for the computation of 2-el integrals
 For citations please refer to: http://libint.valeyev.net

 Your ORCA version has been built with support for libXC version: 4.2.3
 For citations please refer to: https://tddft.org/programs/libxc/

 This ORCA versions uses:
   CBLAS   interface :  Fast vector & matrix operations
   LAPACKE interface :  Fast linear algebra routines
   SCALAPACK package :  Parallel linear algebra routines


Your calculation utilizes the DFT-NL dispersion correction.
Cite in your paper:
Vydrov, O. A.; Van Voorhis, T. J. Chem. Phys. 2010, 133, 244103
Hujo, W.; Grimme, S. J. Chem. Theory Comput. 2011, 7, 3866 
   

----- Orbital basis set information -----
Your calculation utilizes the basis: aug-cc-pVTZ 
    H, B-Ne : Obtained from the ccRepo (grant-hill.group.shef.ac.uk/ccrepo) Feb. 2017
              R. A. Kendall, T. H. Dunning, Jr., R. J. Harrison, J. Chem. Phys. 96, 6796 (1992)
         He : Obtained from the ccRepo (grant-hill.group.shef.ac.uk/ccrepo) Feb. 2017
              D. E. Woon, T. H. Dunning, Jr., J. Chem. Phys. 100, 2975 (1994)
  Li-Be, Na : Obtained from the ccRepo (grant-hill.group.shef.ac.uk/ccrepo) Feb. 2017
              B. P. Prascher, D. E. Woon, K. A. Peterson, T. H. Dunning, Jr., A. K. Wilson, Theor. Chem. Acc. 128, 69 (2011)
         Mg : Obtained from the Peterson Research Group Website (tyr0.chem.wsu.edu/~kipeters) Feb. 2017
              B. P. Prascher, D. E. Woon, K. A. Peterson, T. H. Dunning, Jr., A. K. Wilson, Theor. Chem. Acc. 128, 69 (2011)
      Al-Ar : Obtained from the ccRepo (grant-hill.group.shef.ac.uk/ccrepo) Feb. 2017
              D. E. Woon, T. H. Dunning, Jr., J. Chem. Phys. 98, 1358 (1993)
      Sc-Zn : Obtained from the ccRepo (grant-hill.group.shef.ac.uk/ccrepo) Feb. 2017
              N. B. Balabanov, K. A. Peterson, J. Chem. Phys. 123, 064107 (2005)
              N. B. Balabanov, K. A. Peterson, J. Chem. Phys. 125, 074110 (2006)
      Ga-Kr : Obtained from the ccRepo (grant-hill.group.shef.ac.uk/ccrepo) Feb. 2017
              A. K. Wilson, D. E. Woon, K. A. Peterson, T. H. Dunning, Jr., J. Chem. Phys. 110, 7667 (1999)
     Ag, Au : Obtained from the Peterson Research Group Website (tyr0.chem.wsu.edu/~kipeters) Feb. 2017
              K. A. Peterson, C. Puzzarini, Theor. Chem. Acc. 114, 283 (2005)

----- AuxJK basis set information -----
Your calculation utilizes the auxiliary basis: def2/JK
   H-Ba, Hf-Rn: F. Weigend, J. Comput. Chem. 29, 167 (2008).

================================================================================
                                        WARNINGS
                       Please study these warnings very carefully!
================================================================================


WARNING: your system is open-shell and RHF/RKS was chosen
  ===> : WILL SWITCH to UHF/UKS


INFO   : the flag for use of LIBINT has been found!

================================================================================
                                       INPUT FILE
================================================================================
NAME = 64_Cr.in
|  1> #
|  2> # 64_Cr wb97x-v/aug-cc-pvtz
|  3> #
|  4> ! wb97x-v aug-cc-pvtz def2/jk grid4 nofinalgrid
|  5> 
|  6> *xyz 0 7
|  7> Cr 0.0 0.0 0.0
|  8> *
|  9> 
| 10> %pal
| 11> nprocs 24
| 12> end
| 13> 
| 14> 
| 15>                          ****END OF INPUT****
================================================================================

                       ****************************
                       * Single Point Calculation *
                       ****************************

---------------------------------
CARTESIAN COORDINATES (ANGSTROEM)
---------------------------------
  Cr     0.000000    0.000000    0.000000

----------------------------
CARTESIAN COORDINATES (A.U.)
----------------------------
  NO LB      ZA    FRAG     MASS         X           Y           Z
   0 Cr   24.0000    0    52.000    0.000000    0.000000    0.000000

--------------------------------
INTERNAL COORDINATES (ANGSTROEM)
--------------------------------
 Cr     0   0   0     0.000000000000     0.00000000     0.00000000

---------------------------
INTERNAL COORDINATES (A.U.)
---------------------------
 Cr     0   0   0     0.000000000000     0.00000000     0.00000000

---------------------
BASIS SET INFORMATION
---------------------
There are 1 groups of distinct atoms

 Group   1 Type Cr  : 116s77p23d3f2g contracted to 8s7p5d3f2g pattern {19191919191911/151515151511/77711/111/11}

Atom   0Cr   basis set group =>   1
----------------------------------
AUXILIARY/JK BASIS SET INFORMATION
----------------------------------
There are 1 groups of distinct atoms

 Group   1 Type Cr  : 19s14p12d10f7g3h1i contracted to 16s13p11d9f5g3h1i pattern {4111111111111111/2111111111111/21111111111/211111111/31111/111/1}

Atom   0Cr   basis set group =>   1


           ************************************************************
           *        Program running with 24 parallel MPI-processes    *
           *              working on a common directory               *
           ************************************************************
------------------------------------------------------------------------------
                           ORCA GTO INTEGRAL CALCULATION
------------------------------------------------------------------------------

                         BASIS SET STATISTICS AND STARTUP INFO

 # of primitive gaussian shells          ...  221
 # of primitive gaussian functions       ...  501
 # of contracted shells                  ...   25
 # of contracted basis functions         ...   93
 Highest angular momentum                ...    4
 Maximum contraction depth               ...   19
 Integral package used                   ... LIBINT
 Integral threshhold            Thresh   ...  1.000e-10
 Primitive cut-off              TCut     ...  1.000e-11


------------------------------ INTEGRAL EVALUATION ----------------------------


 * One electron integrals 
 Pre-screening matrix                    ... done
 Shell pair data                         ... done (   0.001 sec)



           ************************************************************
           *        Program running with 24 parallel MPI-processes    *
           *              working on a common directory               *
           ************************************************************
-------------------------------------------------------------------------------
                                 ORCA SCF
-------------------------------------------------------------------------------

------------
SCF SETTINGS
------------
Hamiltonian:
 Density Functional     Method          .... DFT(GTOs)
 Exchange Functional    Exchange        .... WB97X-V
 Correlation Functional Correlation     .... WB97X-V
 Gradients option       PostSCFGGA      .... off
 Hybrid DFT is turned on
   Fraction HF Exchange ScalHFX         ....  0.167000
   Scaling of DF-GGA-X  ScalDFX         ....  0.000000
   Scaling of DF-GGA-C  ScalDFC         ....  1.000000
   Scaling of DF-LDA-C  ScalLDAC        ....  1.000000
   Perturbative correction              ....  0.000000
   Density functional embedding theory  .... OFF
 Long-range corrected/Screened/Range-Separated Hybrid DFT is turned on
   Amount of maximum screened exact exchange              ....  0.833000
   Range separation parameter mu (erf(mu*r12)/r12)        ....  0.300000
   NL short-range parameter             ....  6.000000
   NL long-range parameter              ....  0.010000


General Settings:
 Integral files         IntName         .... 64_Cr
 Hartree-Fock type      HFTyp           .... UHF
 Total Charge           Charge          ....    0
 Multiplicity           Mult            ....    7
 Number of Electrons    NEL             ....   24
 Basis Dimension        Dim             ....   93
 Nuclear Repulsion      ENuc            ....      0.0000000000 Eh

Convergence Acceleration:
 DIIS                   CNVDIIS         .... on
   Start iteration      DIISMaxIt       ....    12
   Startup error        DIISStart       ....  0.200000
   # of expansion vecs  DIISMaxEq       ....     5
   Bias factor          DIISBfac        ....   1.050
   Max. coefficient     DIISMaxC        ....  10.000
 Newton-Raphson         CNVNR           .... off
 SOSCF                  CNVSOSCF        .... off
 Level Shifting         CNVShift        .... on
   Level shift para.    LevelShift      ....    0.2500
   Turn off err/grad.   ShiftErr        ....    0.0010
 Zerner damping         CNVZerner       .... off
 Static damping         CNVDamp         .... on
   Fraction old density DampFac         ....    0.7000
   Max. Damping (<1)    DampMax         ....    0.9800
   Min. Damping (>=0)   DampMin         ....    0.0000
   Turn off err/grad.   DampErr         ....    0.1000
 Fernandez-Rico         CNVRico         .... off

SCF Procedure:
 Maximum # iterations   MaxIter         ....   125
 SCF integral mode      SCFMode         .... Direct
   Integral package                     .... LIBINT
 Reset frequency        DirectResetFreq ....    20
 Integral Threshold     Thresh          ....  1.000e-10 Eh
 Primitive CutOff       TCut            ....  1.000e-11 Eh

Convergence Tolerance:
 Convergence Check Mode ConvCheckMode   .... Total+1el-Energy
 Convergence forced     ConvForced      .... 0
 Energy Change          TolE            ....  1.000e-06 Eh
 1-El. energy change                    ....  1.000e-03 Eh
 DIIS Error             TolErr          ....  1.000e-06


Diagonalization of the overlap matrix:
Smallest eigenvalue                        ... 1.748e-04
Time for diagonalization                   ...    0.002 sec
Threshold for overlap eigenvalues          ... 1.000e-08
Number of eigenvalues below threshold      ... 0
Time for construction of square roots      ...    0.001 sec
Total time needed                          ...    0.003 sec

-------------------
DFT GRID GENERATION
-------------------

General Integration Accuracy     IntAcc      ...  4.670
Radial Grid Type                 RadialGrid  ... Gauss-Chebyshev
Angular Grid (max. acc.)         AngularGrid ... Lebedev-302
Angular grid pruning method      GridPruning ... 3 (G Style)
Weight generation scheme         WeightScheme... Becke
Basis function cutoff            BFCut       ...    1.0000e-10
Integration weight cutoff        WCut        ...    1.0000e-14
Grids for H and He will be reduced by one unit

# of grid points (after initial pruning)     ...   9664 (   0.0 sec)
# of grid points (after weights+screening)   ...   9664 (   0.0 sec)
Grid point division into batches done        ...    0.1 sec
Reduced shell lists constructed in    0.1 sec

Total number of grid points                  ...     9664
Total number of batches                      ...      152
Average number of points per batch           ...       63
Average number of grid points per atom       ...     9664
Average number of shells per batch           ...    10.62 (42.50%)
Average number of basis functions per batch  ...    26.62 (28.63%)
Average number of large shells per batch     ...     4.62 (43.53%)
Average number of large basis fcns per batch ...    12.38 (46.48%)
Maximum spatial batch extension              ...  27.95, 22.27, 22.27 au
Average spatial batch extension              ...   0.96,  0.88,  0.86 au

Time for grid setup =    0.126 sec

------------------------------
INITIAL GUESS: MODEL POTENTIAL
------------------------------
Loading Hartree-Fock densities                     ... done
Calculating cut-offs                               ... done
Setting up the integral package                    ... done
Initializing the effective Hamiltonian             ... done
Starting the Coulomb interaction                   ... done (   0.0 sec)
Reading the grid                                   ... done
Mapping shells                                     ... done
Starting the XC term evaluation                    ... done (   0.0 sec)
  promolecular density results
     # of electrons  =     24.000004859
     EX              =    -35.930623625
     EC              =     -1.362221229
     EX+EC           =    -37.292844854
Transforming the Hamiltonian                       ... done (   0.0 sec)
Diagonalizing the Hamiltonian                      ... done (   0.0 sec)
Back transforming the eigenvectors                 ... done (   0.0 sec)
Now organizing SCF variables                       ... done
                      ------------------
                      INITIAL GUESS DONE (   0.2 sec)
                      ------------------
--------------
SCF ITERATIONS
--------------
ITER       Energy         Delta-E        Max-DP      RMS-DP      [F,P]     Damp
               ***  Starting incremental Fock matrix formation  ***
  0  -1039.3771317102   0.000000000000 1.51136588  0.05018696  0.9992762 0.7000
  1  -1041.9624248527  -2.585293142515 0.75255970  0.01398691  0.3523410 0.7000
                               ***Turning on DIIS***
  2  -1042.9670483324  -1.004623479688 0.54503822  0.01674791  0.1713829 0.7000
  3  -1043.4481364860  -0.481088153585 0.38370452  0.01179732  0.1888089 0.7000
  4  -1043.6993962649  -0.251259778910 0.26017253  0.00800729  0.2462482 0.7000
  5  -1043.8212249941  -0.121828729251 0.18064841  0.00540307  0.2984046 0.7000
  6  -1043.8711934252  -0.049968431071 0.12644570  0.00373369  0.3437534 0.7000
  7  -1043.8934717537  -0.022278328464 0.08854415  0.00263200  0.3751904 0.7000
  8  -1043.9070163857  -0.013544632061 0.07325856  0.00226898  0.3946062 0.7000
  9  -1043.9430635353  -0.036047149556 0.07638169  0.00269938  0.3888579 0.7000
 10  -1044.0118908077  -0.068827272375 0.15134024  0.00418861  0.3491702 0.7000
 11  -1044.1614453752  -0.149554567569 0.09021581  0.00214206  0.1739547 0.7000
 12  -1044.2416800702  -0.080234695011 0.06226867  0.00152701  0.1113055 0.7000
 13  -1044.2915098803  -0.049829810057 0.14526240  0.00352687  0.0754688 0.0000
 14  -1044.3998458268  -0.108335946487 0.04379242  0.00041501  0.0100902 0.0000
 15  -1044.4002875231  -0.000441696274 0.03387325  0.00030848  0.0051051 0.0000
 16  -1044.4004788350  -0.000191311960 0.02009670  0.00018079  0.0030791 0.0000
 17  -1044.4005453791  -0.000066544124 0.01323642  0.00011880  0.0018349 0.0000
 18  -1044.4005718960  -0.000026516805 0.00977599  0.00008991  0.0009859 0.0000
 19  -1044.4005815890  -0.000009693069 0.00112964  0.00001379  0.0000901 0.0000
               *** Restarting incremental Fock matrix formation ***
                                   *** Resetting DIIS ***
 20  -1044.4005817517  -0.000000162662 0.00031090  0.00000405  0.0000545 0.0000
 21  -1044.4005817674  -0.000000015748 0.00006561  0.00000200  0.0000392 0.0000
                 **** Energy Check signals convergence ****

               *****************************************************
               *                     SUCCESS                       *
               *           SCF CONVERGED AFTER  22 CYCLES          *
               *****************************************************


Setting up the DFT-NL grid :

General Integration Accuracy     IntAcc      ...  4.340
Radial Grid Type                 RadialGrid  ... Gauss-Chebyshev
Angular Grid (max. acc.)         AngularGrid ... Lebedev-110
Angular grid pruning method      GridPruning ... 3 (G Style)
Weight generation scheme         WeightScheme... Becke
Basis function cutoff            BFCut       ...    1.0000e-10
Integration weight cutoff        WCut        ...    1.0000e-14
Grids for H and He will be reduced by one unit

# of grid points (after initial pruning)     ...   2972 (   0.0 sec)
# of grid points (after weights+screening)   ...   2972 (   0.0 sec)
Grid point division into batches done        ...    0.0 sec
Reduced shell lists constructed in    0.0 sec

Total number of grid points                  ...     2972
Total number of batches                      ...       47
Average number of points per batch           ...       63
Average number of grid points per atom       ...     2972
Average number of shells per batch           ...    14.00 (56.00%)
Average number of basis functions per batch  ...    40.67 (43.73%)
Average number of large shells per batch     ...    10.00 (71.43%)
Average number of large basis fcns per batch ...    30.00 (73.77%)
Maximum spatial batch extension              ...  18.71, 28.73, 28.73 au
Average spatial batch extension              ...   0.80,  1.22,  1.22 au

Final grid set up in    0.0 sec

-------------------------------------------------------------------------------
                         DFT-NL dispersion correction                          
-------------------------------------------------------------------------------

SC Energy -1044.400581770 
NL    Energy 0.101964460 
SC+NL Energy -1044.298617310 
NL done in    0.0 sec
-------------------------------------------------------------------------------

----------------
TOTAL SCF ENERGY
----------------

Total Energy       :        -1044.29861731 Eh          -28416.81006 eV

Components:
Nuclear Repulsion  :            0.00000000 Eh               0.00000 eV
Electronic Energy  :        -1044.29861731 Eh          -28416.81006 eV
One Electron Energy:        -1439.12549453 Eh          -39160.59559 eV
Two Electron Energy:          394.82687722 Eh           10743.78553 eV

Virial components:
Potential Energy   :        -2087.03949213 Eh          -56791.23179 eV
Kinetic Energy     :         1042.74087482 Eh           28374.42173 eV
Virial Ratio       :            2.00149389


DFT components:
N(Alpha)           :       14.999999294370 electrons
N(Beta)            :        8.999999306185 electrons
N(Total)           :       23.999998600554 electrons
E(X)               :      -36.239965391271 Eh       
E(C)               :       -1.306803558031 Eh       
NL Energy, E(C,NL) :        0.101964460138 Eh       
E(XC)              :      -37.444804489164 Eh       
DFET-embed. en.    :        0.000000000000 Eh       

---------------
SCF CONVERGENCE
---------------

  Last Energy change         ...   -3.0673e-09  Tolerance :   1.0000e-06
  Last MAX-Density change    ...    9.9715e-05  Tolerance :   1.0000e-05
  Last RMS-Density change    ...    1.2143e-06  Tolerance :   1.0000e-06
  Last DIIS Error            ...    1.4399e-05  Tolerance :   1.0000e-06

             **** THE GBW FILE WAS UPDATED (64_Cr.gbw) ****
             **** DENSITY FILE WAS UPDATED (64_Cr.scfp) ****
             **** ENERGY FILE WAS UPDATED (64_Cr.en.tmp) ****
----------------------
UHF SPIN CONTAMINATION
----------------------

Warning: in a DFT calculation there is little theoretical justification to 
         calculate <S**2> as in Hartree-Fock theory. We will do it anyways
         but you should keep in mind that the values have only limited relevance

Expectation value of <S**2>     :    12.000127
Ideal value S*(S+1) for S=3.0   :    12.000000
Deviation                       :     0.000127

             **** THE GBW FILE WAS UPDATED (64_Cr.gbw) ****
             **** DENSITY FILE WAS UPDATED (64_Cr.scfp) ****
----------------
ORBITAL ENERGIES
----------------
                 SPIN UP ORBITALS
  NO   OCC          E(Eh)            E(eV) 
   0   1.0000    -215.526973     -5864.7871 
   1   1.0000     -24.649353      -670.7430 
   2   1.0000     -20.930913      -569.5591 
   3   1.0000     -20.930913      -569.5591 
   4   1.0000     -20.930912      -569.5591 
   5   1.0000      -2.954095       -80.3850 
   6   1.0000      -1.911126       -52.0044 
   7   1.0000      -1.911126       -52.0044 
   8   1.0000      -1.911126       -52.0044 
   9   1.0000      -0.284710        -7.7474 
  10   1.0000      -0.284700        -7.7471 
  11   1.0000      -0.284700        -7.7471 
  12   1.0000      -0.284698        -7.7470 
  13   1.0000      -0.284698        -7.7470 
  14   1.0000      -0.238690        -6.4951 
  15   0.0000       0.014535         0.3955 
  16   0.0000       0.014535         0.3955 
  17   0.0000       0.014535         0.3955 
  18   0.0000       0.029237         0.7956 
  19   0.0000       0.058682         1.5968 
  20   0.0000       0.058682         1.5968 
  21   0.0000       0.058682         1.5968 
  22   0.0000       0.078197         2.1279 
  23   0.0000       0.078197         2.1279 
  24   0.0000       0.078198         2.1279 
  25   0.0000       0.078198         2.1279 
  26   0.0000       0.078198         2.1279 
  27   0.0000       0.197063         5.3624 
  28   0.0000       0.215326         5.8593 
  29   0.0000       0.215326         5.8593 
  30   0.0000       0.215326         5.8593 
  31   0.0000       0.280969         7.6456 
  32   0.0000       0.280970         7.6456 
  33   0.0000       0.280970         7.6456 
  34   0.0000       0.280971         7.6456 
  35   0.0000       0.280971         7.6456 
  36   0.0000       0.629515        17.1300 
  37   0.0000       0.629516        17.1300 
  38   0.0000       0.629517        17.1300 
  39   0.0000       0.629517        17.1300 
  40   0.0000       0.629518        17.1301 
  41   0.0000       0.629518        17.1301 
  42   0.0000       0.629520        17.1301 
  43   0.0000       0.713656        19.4196 
  44   0.0000       0.713656        19.4196 
  45   0.0000       0.713656        19.4196 
  46   0.0000       0.943341        25.6696 
  47   0.0000       0.943342        25.6696 
  48   0.0000       0.943342        25.6696 
  49   0.0000       0.943342        25.6696 
  50   0.0000       0.943342        25.6696 
  51   0.0000       1.411666        38.4134 
  52   0.0000       1.907727        51.9119 
  53   0.0000       1.907727        51.9119 
  54   0.0000       1.907727        51.9119 
  55   0.0000       1.907727        51.9119 
  56   0.0000       1.907727        51.9119 
  57   0.0000       1.907728        51.9119 
  58   0.0000       1.907728        51.9119 
  59   0.0000       2.299023        62.5596 
  60   0.0000       2.299023        62.5596 
  61   0.0000       2.299024        62.5596 
  62   0.0000       2.299024        62.5596 
  63   0.0000       2.299024        62.5596 
  64   0.0000       2.299024        62.5596 
  65   0.0000       2.299025        62.5596 
  66   0.0000       2.299025        62.5596 
  67   0.0000       2.299025        62.5597 
  68   0.0000       2.439716        66.3881 
  69   0.0000       2.439716        66.3881 
  70   0.0000       2.439716        66.3881 
  71   0.0000       3.452772        93.9547 
  72   0.0000       3.452774        93.9548 
  73   0.0000       3.452774        93.9548 
  74   0.0000       3.452775        93.9548 
  75   0.0000       3.452776        93.9548 
  76   0.0000       6.297924       171.3752 
  77   0.0000       6.297924       171.3752 
  78   0.0000       6.297924       171.3752 
  79   0.0000       6.297925       171.3752 
  80   0.0000       6.297925       171.3753 
  81   0.0000       6.297926       171.3753 
  82   0.0000       6.297926       171.3753 
  83   0.0000       6.763892       184.0549 
  84   0.0000       6.763892       184.0549 
  85   0.0000       6.763893       184.0549 
  86   0.0000       6.763893       184.0549 
  87   0.0000       6.763893       184.0549 
  88   0.0000       6.763893       184.0549 
  89   0.0000       6.763893       184.0549 
  90   0.0000       6.763893       184.0549 
  91   0.0000       6.763893       184.0549 
  92   0.0000       7.417123       201.8302 

                 SPIN DOWN ORBITALS
  NO   OCC          E(Eh)            E(eV) 
   0   1.0000    -215.525663     -5864.7515 
   1   1.0000     -24.585937      -669.0173 
   2   1.0000     -20.879341      -568.1558 
   3   1.0000     -20.879341      -568.1557 
   4   1.0000     -20.879339      -568.1557 
   5   1.0000      -2.774658       -75.5023 
   6   1.0000      -1.713638       -46.6305 
   7   1.0000      -1.713638       -46.6305 
   8   1.0000      -1.713634       -46.6304 
   9   0.0000       0.026612         0.7241 
  10   0.0000       0.036783         1.0009 
  11   0.0000       0.036784         1.0009 
  12   0.0000       0.036784         1.0009 
  13   0.0000       0.079838         2.1725 
  14   0.0000       0.097456         2.6519 
  15   0.0000       0.097457         2.6519 
  16   0.0000       0.097458         2.6520 
  17   0.0000       0.097458         2.6520 
  18   0.0000       0.097458         2.6520 
  19   0.0000       0.124304         3.3825 
  20   0.0000       0.124304         3.3825 
  21   0.0000       0.124309         3.3826 
  22   0.0000       0.195311         5.3147 
  23   0.0000       0.195311         5.3147 
  24   0.0000       0.195311         5.3147 
  25   0.0000       0.195312         5.3147 
  26   0.0000       0.195313         5.3147 
  27   0.0000       0.265263         7.2182 
  28   0.0000       0.296077         8.0567 
  29   0.0000       0.296078         8.0567 
  30   0.0000       0.296081         8.0568 
  31   0.0000       0.377615        10.2754 
  32   0.0000       0.377615        10.2754 
  33   0.0000       0.377615        10.2754 
  34   0.0000       0.377616        10.2754 
  35   0.0000       0.377616        10.2754 
  36   0.0000       0.734727        19.9929 
  37   0.0000       0.734728        19.9930 
  38   0.0000       0.734728        19.9930 
  39   0.0000       0.734730        19.9930 
  40   0.0000       0.734730        19.9930 
  41   0.0000       0.734730        19.9930 
  42   0.0000       0.734730        19.9930 
  43   0.0000       0.793992        21.6056 
  44   0.0000       0.793992        21.6056 
  45   0.0000       0.793992        21.6056 
  46   0.0000       1.058058        28.7912 
  47   0.0000       1.058058        28.7912 
  48   0.0000       1.058058        28.7912 
  49   0.0000       1.058058        28.7912 
  50   0.0000       1.058058        28.7912 
  51   0.0000       1.523594        41.4591 
  52   0.0000       2.010561        54.7101 
  53   0.0000       2.010561        54.7101 
  54   0.0000       2.010561        54.7101 
  55   0.0000       2.010561        54.7101 
  56   0.0000       2.010561        54.7101 
  57   0.0000       2.010561        54.7101 
  58   0.0000       2.010561        54.7101 
  59   0.0000       2.379090        64.7383 
  60   0.0000       2.379091        64.7383 
  61   0.0000       2.379091        64.7383 
  62   0.0000       2.379091        64.7384 
  63   0.0000       2.379091        64.7384 
  64   0.0000       2.379092        64.7384 
  65   0.0000       2.379092        64.7384 
  66   0.0000       2.379092        64.7384 
  67   0.0000       2.379092        64.7384 
  68   0.0000       2.560043        69.6623 
  69   0.0000       2.560044        69.6623 
  70   0.0000       2.560045        69.6624 
  71   0.0000       3.592972        97.7697 
  72   0.0000       3.592972        97.7697 
  73   0.0000       3.592972        97.7697 
  74   0.0000       3.592972        97.7697 
  75   0.0000       3.592974        97.7698 
  76   0.0000       6.453071       175.5970 
  77   0.0000       6.453071       175.5970 
  78   0.0000       6.453071       175.5970 
  79   0.0000       6.453071       175.5970 
  80   0.0000       6.453074       175.5971 
  81   0.0000       6.453074       175.5971 
  82   0.0000       6.453076       175.5971 
  83   0.0000       6.887710       187.4241 
  84   0.0000       6.887710       187.4241 
  85   0.0000       6.887710       187.4241 
  86   0.0000       6.887710       187.4241 
  87   0.0000       6.887711       187.4241 
  88   0.0000       6.887711       187.4241 
  89   0.0000       6.887712       187.4242 
  90   0.0000       6.887712       187.4242 
  91   0.0000       6.887713       187.4242 
  92   0.0000       7.541843       205.2240 

                    ********************************
                    * MULLIKEN POPULATION ANALYSIS *
                    ********************************

--------------------------------------------
MULLIKEN ATOMIC CHARGES AND SPIN POPULATIONS
--------------------------------------------
   0 Cr:   -0.000000    6.000000
Sum of atomic charges         :   -0.0000000
Sum of atomic spin populations:    6.0000000

-----------------------------------------------------
MULLIKEN REDUCED ORBITAL CHARGES AND SPIN POPULATIONS
-----------------------------------------------------
CHARGE
  0 Crs       :     7.000000  s :     7.000000
      pz      :     4.000000  p :    12.000000
      px      :     4.000000
      py      :     4.000000
      dz2     :     1.000000  d :     5.000000
      dxz     :     1.000000
      dyz     :     1.000000
      dx2y2   :     1.000000
      dxy     :     1.000000
      f0      :     0.000000  f :     0.000000
      f+1     :     0.000000
      f-1     :     0.000000
      f+2     :     0.000000
      f-2     :     0.000000
      f+3     :     0.000000
      f-3     :     0.000000
      g0      :     0.000000  g :     0.000000
      g+1     :     0.000000
      g-1     :     0.000000
      g+2     :     0.000000
      g-2     :     0.000000
      g+3     :     0.000000
      g-3     :     0.000000
      g+4     :     0.000000
      g-4     :     0.000000

SPIN
  0 Crs       :     1.000000  s :     1.000000
      pz      :    -0.000000  p :    -0.000000
      px      :     0.000000
      py      :    -0.000000
      dz2     :     1.000000  d :     5.000000
      dxz     :     1.000000
      dyz     :     1.000000
      dx2y2   :     1.000000
      dxy     :     1.000000
      f0      :     0.000000  f :     0.000000
      f+1     :    -0.000000
      f-1     :     0.000000
      f+2     :     0.000000
      f-2     :     0.000000
      f+3     :     0.000000
      f-3     :     0.000000
      g0      :     0.000000  g :     0.000000
      g+1     :     0.000000
      g-1     :     0.000000
      g+2     :     0.000000
      g-2     :     0.000000
      g+3     :     0.000000
      g-3     :     0.000000
      g+4     :     0.000000
      g-4     :     0.000000


                     *******************************
                     * LOEWDIN POPULATION ANALYSIS *
                     *******************************

-------------------------------------------
LOEWDIN ATOMIC CHARGES AND SPIN POPULATIONS
-------------------------------------------
   0 Cr:   -0.000000    6.000000

----------------------------------------------------
LOEWDIN REDUCED ORBITAL CHARGES AND SPIN POPULATIONS
----------------------------------------------------
CHARGE
  0 Crs       :     7.000000  s :     7.000000
      pz      :     4.000000  p :    12.000000
      px      :     4.000000
      py      :     4.000000
      dz2     :     1.000000  d :     5.000000
      dxz     :     1.000000
      dyz     :     1.000000
      dx2y2   :     1.000000
      dxy     :     1.000000
      f0      :     0.000000  f :     0.000000
      f+1     :     0.000000
      f-1     :     0.000000
      f+2     :     0.000000
      f-2     :     0.000000
      f+3     :     0.000000
      f-3     :     0.000000
      g0      :     0.000000  g :     0.000000
      g+1     :     0.000000
      g-1     :     0.000000
      g+2     :     0.000000
      g-2     :     0.000000
      g+3     :     0.000000
      g-3     :     0.000000
      g+4     :     0.000000
      g-4     :     0.000000

SPIN
  0 Crs       :     1.000000  s :     1.000000
      pz      :    -0.000000  p :    -0.000000
      px      :     0.000000
      py      :    -0.000000
      dz2     :     1.000000  d :     5.000000
      dxz     :     1.000000
      dyz     :     1.000000
      dx2y2   :     1.000000
      dxy     :     1.000000
      f0      :     0.000000  f :     0.000000
      f+1     :    -0.000000
      f-1     :     0.000000
      f+2     :     0.000000
      f-2     :     0.000000
      f+3     :     0.000000
      f-3     :     0.000000
      g0      :     0.000000  g :     0.000000
      g+1     :     0.000000
      g-1     :     0.000000
      g+2     :     0.000000
      g-2     :     0.000000
      g+3     :     0.000000
      g-3     :     0.000000
      g+4     :     0.000000
      g-4     :     0.000000


                      *****************************
                      * MAYER POPULATION ANALYSIS *
                      *****************************

  NA   - Mulliken gross atomic population
  ZA   - Total nuclear charge
  QA   - Mulliken gross atomic charge
  VA   - Mayer's total valence
  BVA  - Mayer's bonded valence
  FA   - Mayer's free valence

  ATOM       NA         ZA         QA         VA         BVA        FA
  0 Cr    24.0000    24.0000    -0.0000     6.0003     0.0000     6.0003

  Mayer bond orders larger than 0.100000


-------
TIMINGS
-------

Total SCF time: 0 days 0 hours 3 min 50 sec 

Total time                  ....     230.151 sec
Sum of individual times     ....     229.736 sec  ( 99.8%)

Fock matrix formation       ....     229.402 sec  ( 99.7%)
  XC integration            ....       0.345 sec  (  0.2% of F)
    Basis function eval.    ....       0.066 sec  ( 19.2% of XC)
    Density eval.           ....       0.029 sec  (  8.4% of XC)
    XC-Functional eval.     ....       0.016 sec  (  4.6% of XC)
    XC-Potential eval.      ....       0.054 sec  ( 15.8% of XC)
Diagonalization             ....       0.055 sec  (  0.0%)
Density matrix formation    ....       0.010 sec  (  0.0%)
Population analysis         ....       0.004 sec  (  0.0%)
Initial guess               ....       0.103 sec  (  0.0%)
Orbital Transformation      ....       0.000 sec  (  0.0%)
Orbital Orthonormalization  ....       0.000 sec  (  0.0%)
DIIS solution               ....       0.024 sec  (  0.0%)
Grid generation             ....       0.138 sec  (  0.1%)

-------------------------   --------------------
FINAL SINGLE POINT ENERGY     -1044.298617310362
-------------------------   --------------------


                            ***************************************
                            *     ORCA property calculations      *
                            ***************************************

                                    ---------------------
                                    Active property flags
                                    ---------------------
   (+) Dipole Moment


------------------------------------------------------------------------------
                       ORCA ELECTRIC PROPERTIES CALCULATION
------------------------------------------------------------------------------

Dipole Moment Calculation                       ... on
Quadrupole Moment Calculation                   ... off
Polarizability Calculation                      ... off
GBWName                                         ... 64_Cr.gbw
Electron density file                           ... 64_Cr.scfp
The origin for moment calculation is the CENTER OF MASS  = ( 0.000000,  0.000000  0.000000)

-------------
DIPOLE MOMENT
-------------
                                X             Y             Z
Electronic contribution:      0.00000      -0.00000      -0.00000
Nuclear contribution   :      0.00000       0.00000       0.00000
                        -----------------------------------------
Total Dipole Moment    :      0.00000      -0.00000      -0.00000
                        -----------------------------------------
Magnitude (a.u.)       :      0.00000
Magnitude (Debye)      :      0.00000



--------------------
Rotational spectrum 
--------------------
 
Rotational constants in cm-1:     0.000000     0.000000     0.000000 
Rotational constants in MHz :     0.000000     0.000000     0.000000 

 Dipole components along the rotational axes: 
x,y,z [a.u.] :     0.000000    -0.000000    -0.000000 
x,y,z [Debye]:     0.000000    -0.000000    -0.000000 

 

Timings for individual modules:

Sum of individual times         ...      233.783 sec (=   3.896 min)
GTO integral calculation        ...        2.986 sec (=   0.050 min)   1.3 %
SCF iterations                  ...      230.798 sec (=   3.847 min)  98.7 %
                             ****ORCA TERMINATED NORMALLY****
TOTAL RUN TIME: 0 days 0 hours 3 minutes 54 seconds 419 msec
