
                                 *****************
                                 * O   R   C   A *
                                 *****************

           --- An Ab Initio, DFT and Semiempirical electronic structure package ---

                  #######################################################
                  #                        -***-                        #
                  #          Department of theory and spectroscopy      #
                  #               Directorship: Frank Neese             #
                  #        Max Planck Institute fuer Kohlenforschung    #
                  #                Kaiser Wilhelm Platz 1               #
                  #                 D-45470 Muelheim/Ruhr               #
                  #                      Germany                        #
                  #                                                     #
                  #                  All rights reserved                #
                  #                        -***-                        #
                  #######################################################


                         Program Version 4.2.0 -  RELEASE  -


 With contributions from (in alphabetic order):
   Daniel Aravena         : Magnetic Suceptibility
   Michael Atanasov       : Ab Initio Ligand Field Theory (pilot matlab implementation)
   Alexander A. Auer      : GIAO ZORA, VPT2
   Ute Becker             : Parallelization
   Giovanni Bistoni       : ED, misc. LED, open-shell LED, HFLED
   Martin Brehm           : Molecular dynamics
   Dmytro Bykov           : SCF Hessian
   Vijay G. Chilkuri      : MRCI spin determinant printing, contributions to CSF-ICE
   Dipayan Datta          : RHF DLPNO-CCSD density
   Achintya Kumar Dutta   : EOM-CC, STEOM-CC
   Dmitry Ganyushin       : Spin-Orbit,Spin-Spin,Magnetic field MRCI
   Miquel Garcia          : C-PCM Hessian, Gaussian charge scheme
   Yang Guo               : DLPNO-NEVPT2, CIM, IAO-localization
   Andreas Hansen         : Spin unrestricted coupled pair/coupled cluster methods
   Benjamin Helmich-Paris : CASSCF linear response (MC-RPA)
   Lee Huntington         : MR-EOM, pCC
   Robert Izsak           : Overlap fitted RIJCOSX, COSX-SCS-MP3, EOM
   Christian Kollmar      : KDIIS, OOCD, Brueckner-CCSD(T), CCSD density
   Simone Kossmann        : Meta GGA functionals, TD-DFT gradient, OOMP2, MP2 Hessian
   Martin Krupicka        : AUTO-CI
   Lucas Lang             : DCDCAS
   Dagmar Lenk            : GEPOL surface, SMD
   Dimitrios Liakos       : Extrapolation schemes; Compound Job, initial MDCI parallelization
   Dimitrios Manganas     : Further ROCIS development; embedding schemes
   Dimitrios Pantazis     : SARC Basis sets
   Taras Petrenko         : DFT Hessian,TD-DFT gradient, ASA, ECA, R-Raman, ABS, FL, XAS/XES, NRVS
   Peter Pinski           : DLPNO-MP2, DLPNO-MP2 Gradient
   Christoph Reimann      : Effective Core Potentials
   Marius Retegan         : Local ZFS, SOC
   Christoph Riplinger    : Optimizer, TS searches, QM/MM, DLPNO-CCSD(T), (RO)-DLPNO pert. Triples
   Tobias Risthaus        : Range-separated hybrids, TD-DFT gradient, RPA, STAB
   Michael Roemelt        : Original ROCIS implementation
   Masaaki Saitow         : Open-shell DLPNO-CCSD energy and density
   Barbara Sandhoefer     : DKH picture change effects
   Avijit Sen             : IP-ROCIS
   Kantharuban Sivalingam : CASSCF convergence, NEVPT2, FIC-MRCI
   Bernardo de Souza      : ESD, SOC TD-DFT
   Georgi Stoychev        : AutoAux, RI-MP2 NMR
   Willem Van den Heuvel  : Paramagnetic NMR
   Boris Wezisla          : Elementary symmetry handling
   Frank Wennmohs         : Technical directorship


 We gratefully acknowledge several colleagues who have allowed us to
 interface, adapt or use parts of their codes:
   Stefan Grimme, W. Hujo, H. Kruse,             : VdW corrections, initial TS optimization,
                  C. Bannwarth                     DFT functionals, gCP, sTDA/sTD-DF
   Ed Valeev, F. Pavosevic, A. Kumar             : LibInt (2-el integral package), F12 methods
   Garnet Chan, S. Sharma, J. Yang, R. Olivares  : DMRG
   Ulf Ekstrom                                   : XCFun DFT Library
   Mihaly Kallay                                 : mrcc  (arbitrary order and MRCC methods)
   Andreas Klamt, Michael Diedenhofen            : otool_cosmo (COSMO solvation model)
   Jiri Pittner, Ondrej Demel                    : Mk-CCSD
   Frank Weinhold                                : gennbo (NPA and NBO analysis)
   Christopher J. Cramer and Donald G. Truhlar   : smd solvation model
   Lars Goerigk                                  : TD-DFT with DH, B97 family of functionals
   V. Asgeirsson, H. Jonsson                     : NEB implementation
   FAccTs GmbH                                   : IRC, NEB, NEB-TS, Multilevel, MM, QM/MM, CI optimization
   S Lehtola, MJT Oliveira, MAL Marques          : LibXC Library


 Your calculation uses the libint2 library for the computation of 2-el integrals
 For citations please refer to: http://libint.valeyev.net

 Your ORCA version has been built with support for libXC version: 4.2.3
 For citations please refer to: https://tddft.org/programs/libxc/

 This ORCA versions uses:
   CBLAS   interface :  Fast vector & matrix operations
   LAPACKE interface :  Fast linear algebra routines
   SCALAPACK package :  Parallel linear algebra routines


Your calculation utilizes the DFT-NL dispersion correction.
Cite in your paper:
Vydrov, O. A.; Van Voorhis, T. J. Chem. Phys. 2010, 133, 244103
Hujo, W.; Grimme, S. J. Chem. Theory Comput. 2011, 7, 3866 
   

----- Orbital basis set information -----
Your calculation utilizes the basis: aug-cc-pVTZ 
    H, B-Ne : Obtained from the ccRepo (grant-hill.group.shef.ac.uk/ccrepo) Feb. 2017
              R. A. Kendall, T. H. Dunning, Jr., R. J. Harrison, J. Chem. Phys. 96, 6796 (1992)
         He : Obtained from the ccRepo (grant-hill.group.shef.ac.uk/ccrepo) Feb. 2017
              D. E. Woon, T. H. Dunning, Jr., J. Chem. Phys. 100, 2975 (1994)
  Li-Be, Na : Obtained from the ccRepo (grant-hill.group.shef.ac.uk/ccrepo) Feb. 2017
              B. P. Prascher, D. E. Woon, K. A. Peterson, T. H. Dunning, Jr., A. K. Wilson, Theor. Chem. Acc. 128, 69 (2011)
         Mg : Obtained from the Peterson Research Group Website (tyr0.chem.wsu.edu/~kipeters) Feb. 2017
              B. P. Prascher, D. E. Woon, K. A. Peterson, T. H. Dunning, Jr., A. K. Wilson, Theor. Chem. Acc. 128, 69 (2011)
      Al-Ar : Obtained from the ccRepo (grant-hill.group.shef.ac.uk/ccrepo) Feb. 2017
              D. E. Woon, T. H. Dunning, Jr., J. Chem. Phys. 98, 1358 (1993)
      Sc-Zn : Obtained from the ccRepo (grant-hill.group.shef.ac.uk/ccrepo) Feb. 2017
              N. B. Balabanov, K. A. Peterson, J. Chem. Phys. 123, 064107 (2005)
              N. B. Balabanov, K. A. Peterson, J. Chem. Phys. 125, 074110 (2006)
      Ga-Kr : Obtained from the ccRepo (grant-hill.group.shef.ac.uk/ccrepo) Feb. 2017
              A. K. Wilson, D. E. Woon, K. A. Peterson, T. H. Dunning, Jr., J. Chem. Phys. 110, 7667 (1999)
     Ag, Au : Obtained from the Peterson Research Group Website (tyr0.chem.wsu.edu/~kipeters) Feb. 2017
              K. A. Peterson, C. Puzzarini, Theor. Chem. Acc. 114, 283 (2005)

----- AuxJK basis set information -----
Your calculation utilizes the auxiliary basis: def2/JK
   H-Ba, Hf-Rn: F. Weigend, J. Comput. Chem. 29, 167 (2008).

================================================================================
                                        WARNINGS
                       Please study these warnings very carefully!
================================================================================


WARNING: your system is open-shell and RHF/RKS was chosen
  ===> : WILL SWITCH to UHF/UKS


INFO   : the flag for use of LIBINT has been found!

================================================================================
                                       INPUT FILE
================================================================================
NAME = 68_Ni.in
|  1> #
|  2> # 68_Ni wb97x-v/aug-cc-pvtz
|  3> #
|  4> ! wb97x-v aug-cc-pvtz def2/jk grid4 nofinalgrid
|  5> 
|  6> *xyz 0 3
|  7> Ni 0.0 0.0 0.0
|  8> *
|  9> 
| 10> %pal
| 11> nprocs 24
| 12> end
| 13> 
| 14> 
| 15>                          ****END OF INPUT****
================================================================================

                       ****************************
                       * Single Point Calculation *
                       ****************************

---------------------------------
CARTESIAN COORDINATES (ANGSTROEM)
---------------------------------
  Ni     0.000000    0.000000    0.000000

----------------------------
CARTESIAN COORDINATES (A.U.)
----------------------------
  NO LB      ZA    FRAG     MASS         X           Y           Z
   0 Ni   28.0000    0    58.700    0.000000    0.000000    0.000000

--------------------------------
INTERNAL COORDINATES (ANGSTROEM)
--------------------------------
 Ni     0   0   0     0.000000000000     0.00000000     0.00000000

---------------------------
INTERNAL COORDINATES (A.U.)
---------------------------
 Ni     0   0   0     0.000000000000     0.00000000     0.00000000

---------------------
BASIS SET INFORMATION
---------------------
There are 1 groups of distinct atoms

 Group   1 Type Ni  : 116s77p23d3f2g contracted to 8s7p5d3f2g pattern {19191919191911/151515151511/77711/111/11}

Atom   0Ni   basis set group =>   1
----------------------------------
AUXILIARY/JK BASIS SET INFORMATION
----------------------------------
There are 1 groups of distinct atoms

 Group   1 Type Ni  : 19s14p12d10f7g3h1i contracted to 16s13p11d9f5g3h1i pattern {4111111111111111/2111111111111/21111111111/211111111/31111/111/1}

Atom   0Ni   basis set group =>   1


           ************************************************************
           *        Program running with 24 parallel MPI-processes    *
           *              working on a common directory               *
           ************************************************************
------------------------------------------------------------------------------
                           ORCA GTO INTEGRAL CALCULATION
------------------------------------------------------------------------------

                         BASIS SET STATISTICS AND STARTUP INFO

 # of primitive gaussian shells          ...  221
 # of primitive gaussian functions       ...  501
 # of contracted shells                  ...   25
 # of contracted basis functions         ...   93
 Highest angular momentum                ...    4
 Maximum contraction depth               ...   19
 Integral package used                   ... LIBINT
 Integral threshhold            Thresh   ...  1.000e-10
 Primitive cut-off              TCut     ...  1.000e-11


------------------------------ INTEGRAL EVALUATION ----------------------------


 * One electron integrals 
 Pre-screening matrix                    ... done
 Shell pair data                         ... done (   0.001 sec)



           ************************************************************
           *        Program running with 24 parallel MPI-processes    *
           *              working on a common directory               *
           ************************************************************
-------------------------------------------------------------------------------
                                 ORCA SCF
-------------------------------------------------------------------------------

------------
SCF SETTINGS
------------
Hamiltonian:
 Density Functional     Method          .... DFT(GTOs)
 Exchange Functional    Exchange        .... WB97X-V
 Correlation Functional Correlation     .... WB97X-V
 Gradients option       PostSCFGGA      .... off
 Hybrid DFT is turned on
   Fraction HF Exchange ScalHFX         ....  0.167000
   Scaling of DF-GGA-X  ScalDFX         ....  0.000000
   Scaling of DF-GGA-C  ScalDFC         ....  1.000000
   Scaling of DF-LDA-C  ScalLDAC        ....  1.000000
   Perturbative correction              ....  0.000000
   Density functional embedding theory  .... OFF
 Long-range corrected/Screened/Range-Separated Hybrid DFT is turned on
   Amount of maximum screened exact exchange              ....  0.833000
   Range separation parameter mu (erf(mu*r12)/r12)        ....  0.300000
   NL short-range parameter             ....  6.000000
   NL long-range parameter              ....  0.010000


General Settings:
 Integral files         IntName         .... 68_Ni
 Hartree-Fock type      HFTyp           .... UHF
 Total Charge           Charge          ....    0
 Multiplicity           Mult            ....    3
 Number of Electrons    NEL             ....   28
 Basis Dimension        Dim             ....   93
 Nuclear Repulsion      ENuc            ....      0.0000000000 Eh

Convergence Acceleration:
 DIIS                   CNVDIIS         .... on
   Start iteration      DIISMaxIt       ....    12
   Startup error        DIISStart       ....  0.200000
   # of expansion vecs  DIISMaxEq       ....     5
   Bias factor          DIISBfac        ....   1.050
   Max. coefficient     DIISMaxC        ....  10.000
 Newton-Raphson         CNVNR           .... off
 SOSCF                  CNVSOSCF        .... off
 Level Shifting         CNVShift        .... on
   Level shift para.    LevelShift      ....    0.2500
   Turn off err/grad.   ShiftErr        ....    0.0010
 Zerner damping         CNVZerner       .... off
 Static damping         CNVDamp         .... on
   Fraction old density DampFac         ....    0.7000
   Max. Damping (<1)    DampMax         ....    0.9800
   Min. Damping (>=0)   DampMin         ....    0.0000
   Turn off err/grad.   DampErr         ....    0.1000
 Fernandez-Rico         CNVRico         .... off

SCF Procedure:
 Maximum # iterations   MaxIter         ....   125
 SCF integral mode      SCFMode         .... Direct
   Integral package                     .... LIBINT
 Reset frequency        DirectResetFreq ....    20
 Integral Threshold     Thresh          ....  1.000e-10 Eh
 Primitive CutOff       TCut            ....  1.000e-11 Eh

Convergence Tolerance:
 Convergence Check Mode ConvCheckMode   .... Total+1el-Energy
 Convergence forced     ConvForced      .... 0
 Energy Change          TolE            ....  1.000e-06 Eh
 1-El. energy change                    ....  1.000e-03 Eh
 DIIS Error             TolErr          ....  1.000e-06


Diagonalization of the overlap matrix:
Smallest eigenvalue                        ... 8.106e-04
Time for diagonalization                   ...    0.002 sec
Threshold for overlap eigenvalues          ... 1.000e-08
Number of eigenvalues below threshold      ... 0
Time for construction of square roots      ...    0.001 sec
Total time needed                          ...    0.004 sec

-------------------
DFT GRID GENERATION
-------------------

General Integration Accuracy     IntAcc      ...  4.670
Radial Grid Type                 RadialGrid  ... Gauss-Chebyshev
Angular Grid (max. acc.)         AngularGrid ... Lebedev-302
Angular grid pruning method      GridPruning ... 3 (G Style)
Weight generation scheme         WeightScheme... Becke
Basis function cutoff            BFCut       ...    1.0000e-10
Integration weight cutoff        WCut        ...    1.0000e-14
Grids for H and He will be reduced by one unit

# of grid points (after initial pruning)     ...   9664 (   0.0 sec)
# of grid points (after weights+screening)   ...   9664 (   0.0 sec)
Grid point division into batches done        ...    0.1 sec
Reduced shell lists constructed in    0.1 sec

Total number of grid points                  ...     9664
Total number of batches                      ...      152
Average number of points per batch           ...       63
Average number of grid points per atom       ...     9664
Average number of shells per batch           ...    11.38 (45.50%)
Average number of basis functions per batch  ...    27.12 (29.17%)
Average number of large shells per batch     ...     4.62 (40.66%)
Average number of large basis fcns per batch ...    11.62 (42.86%)
Maximum spatial batch extension              ...  22.45, 20.42, 20.42 au
Average spatial batch extension              ...   0.85,  0.81,  0.79 au

Time for grid setup =    0.123 sec

------------------------------
INITIAL GUESS: MODEL POTENTIAL
------------------------------
Loading Hartree-Fock densities                     ... done
Calculating cut-offs                               ... done
Setting up the integral package                    ... done
Initializing the effective Hamiltonian             ... done
Starting the Coulomb interaction                   ... done (   0.0 sec)
Reading the grid                                   ... done
Mapping shells                                     ... done
Starting the XC term evaluation                    ... done (   0.0 sec)
  promolecular density results
     # of electrons  =     28.000038162
     EX              =    -47.215396628
     EC              =     -1.697253106
     EX+EC           =    -48.912649734
Transforming the Hamiltonian                       ... done (   0.0 sec)
Diagonalizing the Hamiltonian                      ... done (   0.0 sec)
Back transforming the eigenvectors                 ... done (   0.0 sec)
Now organizing SCF variables                       ... done
                      ------------------
                      INITIAL GUESS DONE (   0.2 sec)
                      ------------------
--------------
SCF ITERATIONS
--------------
ITER       Energy         Delta-E        Max-DP      RMS-DP      [F,P]     Damp
               ***  Starting incremental Fock matrix formation  ***
  0  -1507.0639535474   0.000000000000 0.25397243  0.00412386  1.1704264 0.7000
  1  -1507.6718542560  -0.607900708607 0.19900299  0.00197953  0.3149317 0.7000
  2  -1507.8412819966  -0.169427740631 0.15354703  0.00160212  0.2333189 0.7000
  3  -1507.9533466220  -0.112064625403 0.10898304  0.00120082  0.2250877 0.7000
                               ***Turning on DIIS***
  4  -1508.0401435102  -0.086796888155 0.07475784  0.00084205  0.1534070 0.7000
  5  -1508.1042854038  -0.064141893644 0.17108857  0.00216422  0.0947320 0.0000
  6  -1508.2664448034  -0.162159399630 0.02078254  0.00038779  0.0162597 0.0000
  7  -1508.2668227571  -0.000377953713 0.01610609  0.00017589  0.0209502 0.0000
  8  -1508.2671536119  -0.000330854799 0.00801446  0.00010406  0.0027431 0.0000
  9  -1508.2672008551  -0.000047243176 0.00892251  0.00008944  0.0014285 0.0000
 10  -1508.2672224839  -0.000021628818 0.00630193  0.00005820  0.0010278 0.0000
 11  -1508.2672318042  -0.000009320252 0.00544483  0.00005442  0.0009882 0.0000
 12  -1508.2672422822  -0.000010477977 0.00398569  0.00003397  0.0009319 0.0000
 13  -1508.2672518801  -0.000009597949 0.00689622  0.00005596  0.0008842 0.0000
 14  -1508.2672672534  -0.000015373330 0.01871253  0.00015186  0.0008024 0.0000
 15  -1508.2673014654  -0.000034211909 0.00033396  0.00000340  0.0005640 0.0000
 16  -1508.2673020936  -0.000000628234 0.03250796  0.00026896  0.0005739 0.0000
 17  -1508.2673328052  -0.000030711595 0.00199186  0.00001662  0.0012574 0.0000
 18  -1508.2673325213   0.000000283860 0.00490609  0.00004142  0.0008829 0.0000
 19  -1508.2673303043   0.000002217048 0.00702778  0.00005932  0.0003509 0.0000
               *** Restarting incremental Fock matrix formation ***
                                   *** Resetting DIIS ***
 20  -1508.2673342089  -0.000003904587 0.00033317  0.00000362  0.0001811 0.0000
 21  -1508.2673343253  -0.000000116432 0.00015140  0.00000184  0.0003631 0.0000
                 **** Energy Check signals convergence ****

               *****************************************************
               *                     SUCCESS                       *
               *           SCF CONVERGED AFTER  22 CYCLES          *
               *****************************************************


Setting up the DFT-NL grid :

General Integration Accuracy     IntAcc      ...  4.340
Radial Grid Type                 RadialGrid  ... Gauss-Chebyshev
Angular Grid (max. acc.)         AngularGrid ... Lebedev-110
Angular grid pruning method      GridPruning ... 3 (G Style)
Weight generation scheme         WeightScheme... Becke
Basis function cutoff            BFCut       ...    1.0000e-10
Integration weight cutoff        WCut        ...    1.0000e-14
Grids for H and He will be reduced by one unit

# of grid points (after initial pruning)     ...   2912 (   0.0 sec)
# of grid points (after weights+screening)   ...   2912 (   0.0 sec)
Grid point division into batches done        ...    0.0 sec
Reduced shell lists constructed in    0.0 sec

Total number of grid points                  ...     2912
Total number of batches                      ...       46
Average number of points per batch           ...       63
Average number of grid points per atom       ...     2912
Average number of shells per batch           ...    14.00 (56.00%)
Average number of basis functions per batch  ...    40.67 (43.73%)
Average number of large shells per batch     ...     8.67 (61.90%)
Average number of large basis fcns per batch ...    20.67 (50.82%)
Maximum spatial batch extension              ...  17.39, 26.34, 26.34 au
Average spatial batch extension              ...   0.76,  1.15,  1.15 au

Final grid set up in    0.0 sec

-------------------------------------------------------------------------------
                         DFT-NL dispersion correction                          
-------------------------------------------------------------------------------

SC Energy -1508.267334451 
NL    Energy 0.119592540 
SC+NL Energy -1508.147741911 
NL done in    0.0 sec
-------------------------------------------------------------------------------

----------------
TOTAL SCF ENERGY
----------------

Total Energy       :        -1508.14774191 Eh          -41038.78643 eV

Components:
Nuclear Repulsion  :            0.00000000 Eh               0.00000 eV
Electronic Energy  :        -1508.14774191 Eh          -41038.78643 eV
One Electron Energy:        -2097.83319788 Eh          -57084.94346 eV
Two Electron Energy:          589.68545597 Eh           16046.15703 eV

Virial components:
Potential Energy   :        -3014.53564314 Eh          -82029.68516 eV
Kinetic Energy     :         1506.38790123 Eh           40990.89873 eV
Virial Ratio       :            2.00116825


DFT components:
N(Alpha)           :       15.000004674111 electrons
N(Beta)            :       13.000004666327 electrons
N(Total)           :       28.000009340438 electrons
E(X)               :      -47.380650467420 Eh       
E(C)               :       -1.694231362965 Eh       
NL Energy, E(C,NL) :        0.119592539972 Eh       
E(XC)              :      -48.955289290414 Eh       
DFET-embed. en.    :        0.000000000000 Eh       

---------------
SCF CONVERGENCE
---------------

  Last Energy change         ...   -1.2577e-07  Tolerance :   1.0000e-06
  Last MAX-Density change    ...    4.6651e-04  Tolerance :   1.0000e-05
  Last RMS-Density change    ...    4.0065e-06  Tolerance :   1.0000e-06
  Last DIIS Error            ...    1.4172e-04  Tolerance :   1.0000e-06

             **** THE GBW FILE WAS UPDATED (68_Ni.gbw) ****
             **** DENSITY FILE WAS UPDATED (68_Ni.scfp) ****
             **** ENERGY FILE WAS UPDATED (68_Ni.en.tmp) ****
----------------------
UHF SPIN CONTAMINATION
----------------------

Warning: in a DFT calculation there is little theoretical justification to 
         calculate <S**2> as in Hartree-Fock theory. We will do it anyways
         but you should keep in mind that the values have only limited relevance

Expectation value of <S**2>     :     2.000675
Ideal value S*(S+1) for S=1.0   :     2.000000
Deviation                       :     0.000675

             **** THE GBW FILE WAS UPDATED (68_Ni.gbw) ****
             **** DENSITY FILE WAS UPDATED (68_Ni.scfp) ****
----------------
ORBITAL ENERGIES
----------------
                 SPIN UP ORBITALS
  NO   OCC          E(Eh)            E(eV) 
   0   1.0000    -299.646111     -8153.7852 
   1   1.0000     -35.752375      -972.8716 
   2   1.0000     -31.179497      -848.4372 
   3   1.0000     -31.179329      -848.4327 
   4   1.0000     -31.145124      -847.5019 
   5   1.0000      -4.089100      -111.2701 
   6   1.0000      -2.702864       -73.5487 
   7   1.0000      -2.702535       -73.5397 
   8   1.0000      -2.635913       -71.7268 
   9   1.0000      -0.411190       -11.1891 
  10   1.0000      -0.373606       -10.1663 
  11   1.0000      -0.348087        -9.4719 
  12   1.0000      -0.347958        -9.4684 
  13   1.0000      -0.339457        -9.2371 
  14   1.0000      -0.262093        -7.1319 
  15   0.0000       0.020793         0.5658 
  16   0.0000       0.020805         0.5661 
  17   0.0000       0.022026         0.5994 
  18   0.0000       0.031434         0.8554 
  19   0.0000       0.076263         2.0752 
  20   0.0000       0.076286         2.0759 
  21   0.0000       0.079248         2.1565 
  22   0.0000       0.124104         3.3770 
  23   0.0000       0.124649         3.3919 
  24   0.0000       0.125311         3.4099 
  25   0.0000       0.125319         3.4101 
  26   0.0000       0.125550         3.4164 
  27   0.0000       0.179418         4.8822 
  28   0.0000       0.283089         7.7033 
  29   0.0000       0.283130         7.7044 
  30   0.0000       0.288808         7.8589 
  31   0.0000       0.441812        12.0223 
  32   0.0000       0.445348        12.1185 
  33   0.0000       0.449962        12.2441 
  34   0.0000       0.449992        12.2449 
  35   0.0000       0.451568        12.2878 
  36   0.0000       0.691583        18.8189 
  37   0.0000       1.012393        27.5486 
  38   0.0000       1.012489        27.5512 
  39   0.0000       1.027755        27.9666 
  40   0.0000       1.375053        37.4171 
  41   0.0000       1.375057        37.4172 
  42   0.0000       1.380336        37.5608 
  43   0.0000       1.382310        37.6146 
  44   0.0000       1.384805        37.6825 
  45   0.0000       1.384846        37.6836 
  46   0.0000       1.385837        37.7106 
  47   0.0000       1.529538        41.6208 
  48   0.0000       1.542996        41.9871 
  49   0.0000       1.555482        42.3268 
  50   0.0000       1.555556        42.3288 
  51   0.0000       1.559843        42.4455 
  52   0.0000       3.632906        98.8564 
  53   0.0000       3.962121       107.8148 
  54   0.0000       3.962205       107.8171 
  55   0.0000       3.980031       108.3022 
  56   0.0000       3.995517       108.7236 
  57   0.0000       3.996985       108.7635 
  58   0.0000       3.997060       108.7655 
  59   0.0000       4.000113       108.8486 
  60   0.0000       4.033660       109.7615 
  61   0.0000       4.033825       109.7660 
  62   0.0000       4.072466       110.8174 
  63   0.0000       5.158658       140.3742 
  64   0.0000       5.158988       140.3832 
  65   0.0000       5.172391       140.7479 
  66   0.0000       5.172448       140.7495 
  67   0.0000       5.177753       140.8938 
  68   0.0000       5.186926       141.1434 
  69   0.0000       5.188077       141.1747 
  70   0.0000       5.188115       141.1758 
  71   0.0000       5.188845       141.1957 
  72   0.0000       5.749942       156.4639 
  73   0.0000       5.778953       157.2533 
  74   0.0000       5.801573       157.8688 
  75   0.0000       5.801686       157.8719 
  76   0.0000       5.809248       158.0777 
  77   0.0000      12.525190       340.8277 
  78   0.0000      12.525266       340.8298 
  79   0.0000      12.556617       341.6829 
  80   0.0000      12.586389       342.4931 
  81   0.0000      12.593749       342.6933 
  82   0.0000      12.593835       342.6957 
  83   0.0000      12.597484       342.7950 
  84   0.0000      14.091857       383.4589 
  85   0.0000      14.093063       383.4918 
  86   0.0000      14.121661       384.2699 
  87   0.0000      14.121781       384.2732 
  88   0.0000      14.132126       384.5547 
  89   0.0000      14.155379       385.1874 
  90   0.0000      14.156600       385.2207 
  91   0.0000      14.156630       385.2215 
  92   0.0000      14.157482       385.2447 

                 SPIN DOWN ORBITALS
  NO   OCC          E(Eh)            E(eV) 
   0   1.0000    -299.644681     -8153.7463 
   1   1.0000     -35.729595      -972.2517 
   2   1.0000     -31.155734      -847.7906 
   3   1.0000     -31.155657      -847.7885 
   4   1.0000     -31.138379      -847.3184 
   5   1.0000      -4.038464      -109.8922 
   6   1.0000      -2.630848       -71.5890 
   7   1.0000      -2.630799       -71.5877 
   8   1.0000      -2.618833       -71.2621 
   9   1.0000      -0.352706        -9.5976 
  10   1.0000      -0.319432        -8.6922 
  11   1.0000      -0.319266        -8.6877 
  12   1.0000      -0.305435        -8.3113 
  13   0.0000      -0.030173        -0.8211 
  14   0.0000       0.033616         0.9147 
  15   0.0000       0.033620         0.9148 
  16   0.0000       0.034832         0.9478 
  17   0.0000       0.044403         1.2083 
  18   0.0000       0.070460         1.9173 
  19   0.0000       0.092905         2.5281 
  20   0.0000       0.092906         2.5281 
  21   0.0000       0.096416         2.6236 
  22   0.0000       0.134587         3.6623 
  23   0.0000       0.136412         3.7119 
  24   0.0000       0.136416         3.7121 
  25   0.0000       0.137044         3.7292 
  26   0.0000       0.141555         3.8519 
  27   0.0000       0.200080         5.4445 
  28   0.0000       0.302150         8.2219 
  29   0.0000       0.302171         8.2225 
  30   0.0000       0.307292         8.3618 
  31   0.0000       0.449045        12.2191 
  32   0.0000       0.453735        12.3467 
  33   0.0000       0.453758        12.3474 
  34   0.0000       0.455549        12.3961 
  35   0.0000       0.460281        12.5249 
  36   0.0000       0.707788        19.2599 
  37   0.0000       1.031983        28.0817 
  38   0.0000       1.032023        28.0828 
  39   0.0000       1.040757        28.3204 
  40   0.0000       1.396911        38.0119 
  41   0.0000       1.397166        38.0188 
  42   0.0000       1.397187        38.0194 
  43   0.0000       1.402408        38.1615 
  44   0.0000       1.402467        38.1631 
  45   0.0000       1.402922        38.1755 
  46   0.0000       1.402997        38.1775 
  47   0.0000       1.559558        42.4377 
  48   0.0000       1.576329        42.8941 
  49   0.0000       1.576413        42.8964 
  50   0.0000       1.582511        43.0623 
  51   0.0000       1.589067        43.2407 
  52   0.0000       3.663860        99.6987 
  53   0.0000       4.003160       108.9315 
  54   0.0000       4.004512       108.9683 
  55   0.0000       4.004539       108.9691 
  56   0.0000       4.020927       109.4150 
  57   0.0000       4.022488       109.4575 
  58   0.0000       4.024696       109.5176 
  59   0.0000       4.024710       109.5179 
  60   0.0000       4.069773       110.7442 
  61   0.0000       4.069860       110.7465 
  62   0.0000       4.085890       111.1827 
  63   0.0000       5.196325       141.3992 
  64   0.0000       5.196332       141.3994 
  65   0.0000       5.197411       141.4287 
  66   0.0000       5.197417       141.4289 
  67   0.0000       5.198932       141.4701 
  68   0.0000       5.212845       141.8487 
  69   0.0000       5.212955       141.8517 
  70   0.0000       5.213024       141.8536 
  71   0.0000       5.213945       141.8786 
  72   0.0000       5.795514       157.7039 
  73   0.0000       5.824012       158.4794 
  74   0.0000       5.824155       158.4833 
  75   0.0000       5.835290       158.7863 
  76   0.0000       5.843637       159.0134 
  77   0.0000      12.599806       342.8582 
  78   0.0000      12.600038       342.8645 
  79   0.0000      12.600059       342.8650 
  80   0.0000      12.624532       343.5310 
  81   0.0000      12.627640       343.6155 
  82   0.0000      12.628835       343.6481 
  83   0.0000      12.628896       343.6497 
  84   0.0000      14.148395       384.9974 
  85   0.0000      14.150768       385.0620 
  86   0.0000      14.158013       385.2591 
  87   0.0000      14.158043       385.2599 
  88   0.0000      14.163845       385.4178 
  89   0.0000      14.176513       385.7625 
  90   0.0000      14.178548       385.8179 
  91   0.0000      14.178687       385.8217 
  92   0.0000      14.180726       385.8772 

                    ********************************
                    * MULLIKEN POPULATION ANALYSIS *
                    ********************************

--------------------------------------------
MULLIKEN ATOMIC CHARGES AND SPIN POPULATIONS
--------------------------------------------
   0 Ni:   -0.000000    2.000000
Sum of atomic charges         :   -0.0000000
Sum of atomic spin populations:    2.0000000

-----------------------------------------------------
MULLIKEN REDUCED ORBITAL CHARGES AND SPIN POPULATIONS
-----------------------------------------------------
CHARGE
  0 Nis       :     7.011374  s :     7.011374
      pz      :     3.999973  p :    11.999884
      px      :     3.999955
      py      :     3.999955
      dz2     :     1.988595  d :     8.988556
      dxz     :     1.999985
      dyz     :     1.999984
      dx2y2   :     0.999997
      dxy     :     1.999994
      f0      :     0.000027  f :     0.000116
      f+1     :     0.000019
      f-1     :     0.000019
      f+2     :     0.000000
      f-2     :     0.000000
      f+3     :     0.000026
      f-3     :     0.000025
      g0      :     0.000014  g :     0.000070
      g+1     :     0.000012
      g-1     :     0.000012
      g+2     :     0.000009
      g-2     :     0.000006
      g+3     :     0.000002
      g-3     :     0.000002
      g+4     :     0.000012
      g-4     :     0.000000

SPIN
  0 Nis       :     0.988332  s :     0.988332
      pz      :    -0.000013  p :    -0.000021
      px      :    -0.000004
      py      :    -0.000004
      dz2     :     0.011667  d :     1.011638
      dxz     :    -0.000007
      dyz     :    -0.000006
      dx2y2   :     0.999985
      dxy     :    -0.000002
      f0      :     0.000013  f :     0.000021
      f+1     :     0.000018
      f-1     :     0.000018
      f+2     :    -0.000000
      f-2     :    -0.000000
      f+3     :    -0.000014
      f-3     :    -0.000014
      g0      :     0.000007  g :     0.000030
      g+1     :     0.000007
      g-1     :     0.000007
      g+2     :     0.000009
      g-2     :     0.000002
      g+3     :    -0.000000
      g-3     :    -0.000000
      g+4     :    -0.000002
      g-4     :     0.000000


                     *******************************
                     * LOEWDIN POPULATION ANALYSIS *
                     *******************************

-------------------------------------------
LOEWDIN ATOMIC CHARGES AND SPIN POPULATIONS
-------------------------------------------
   0 Ni:   -0.000000    2.000000

----------------------------------------------------
LOEWDIN REDUCED ORBITAL CHARGES AND SPIN POPULATIONS
----------------------------------------------------
CHARGE
  0 Nis       :     7.011374  s :     7.011374
      pz      :     3.999973  p :    11.999884
      px      :     3.999955
      py      :     3.999955
      dz2     :     1.988595  d :     8.988556
      dxz     :     1.999985
      dyz     :     1.999984
      dx2y2   :     0.999997
      dxy     :     1.999994
      f0      :     0.000027  f :     0.000116
      f+1     :     0.000019
      f-1     :     0.000019
      f+2     :     0.000000
      f-2     :     0.000000
      f+3     :     0.000026
      f-3     :     0.000025
      g0      :     0.000014  g :     0.000070
      g+1     :     0.000012
      g-1     :     0.000012
      g+2     :     0.000009
      g-2     :     0.000006
      g+3     :     0.000002
      g-3     :     0.000002
      g+4     :     0.000012
      g-4     :     0.000000

SPIN
  0 Nis       :     0.988332  s :     0.988332
      pz      :    -0.000013  p :    -0.000021
      px      :    -0.000004
      py      :    -0.000004
      dz2     :     0.011667  d :     1.011638
      dxz     :    -0.000007
      dyz     :    -0.000006
      dx2y2   :     0.999985
      dxy     :    -0.000002
      f0      :     0.000013  f :     0.000021
      f+1     :     0.000018
      f-1     :     0.000018
      f+2     :    -0.000000
      f-2     :    -0.000000
      f+3     :    -0.000014
      f-3     :    -0.000014
      g0      :     0.000007  g :     0.000030
      g+1     :     0.000007
      g-1     :     0.000007
      g+2     :     0.000009
      g-2     :     0.000002
      g+3     :    -0.000000
      g-3     :    -0.000000
      g+4     :    -0.000002
      g-4     :     0.000000


                      *****************************
                      * MAYER POPULATION ANALYSIS *
                      *****************************

  NA   - Mulliken gross atomic population
  ZA   - Total nuclear charge
  QA   - Mulliken gross atomic charge
  VA   - Mayer's total valence
  BVA  - Mayer's bonded valence
  FA   - Mayer's free valence

  ATOM       NA         ZA         QA         VA         BVA        FA
  0 Ni    28.0000    28.0000    -0.0000     2.0014     0.0000     2.0014

  Mayer bond orders larger than 0.100000


-------
TIMINGS
-------

Total SCF time: 0 days 0 hours 3 min 57 sec 

Total time                  ....     237.477 sec
Sum of individual times     ....     237.076 sec  ( 99.8%)

Fock matrix formation       ....     236.763 sec  ( 99.7%)
  XC integration            ....       0.292 sec  (  0.1% of F)
    Basis function eval.    ....       0.065 sec  ( 22.1% of XC)
    Density eval.           ....       0.026 sec  (  9.0% of XC)
    XC-Functional eval.     ....       0.016 sec  (  5.5% of XC)
    XC-Potential eval.      ....       0.049 sec  ( 16.7% of XC)
Diagonalization             ....       0.053 sec  (  0.0%)
Density matrix formation    ....       0.010 sec  (  0.0%)
Population analysis         ....       0.005 sec  (  0.0%)
Initial guess               ....       0.091 sec  (  0.0%)
Orbital Transformation      ....       0.000 sec  (  0.0%)
Orbital Orthonormalization  ....       0.000 sec  (  0.0%)
DIIS solution               ....       0.022 sec  (  0.0%)
Grid generation             ....       0.134 sec  (  0.1%)

-------------------------   --------------------
FINAL SINGLE POINT ENERGY     -1508.147741911092
-------------------------   --------------------


                            ***************************************
                            *     ORCA property calculations      *
                            ***************************************

                                    ---------------------
                                    Active property flags
                                    ---------------------
   (+) Dipole Moment


------------------------------------------------------------------------------
                       ORCA ELECTRIC PROPERTIES CALCULATION
------------------------------------------------------------------------------

Dipole Moment Calculation                       ... on
Quadrupole Moment Calculation                   ... off
Polarizability Calculation                      ... off
GBWName                                         ... 68_Ni.gbw
Electron density file                           ... 68_Ni.scfp
The origin for moment calculation is the CENTER OF MASS  = ( 0.000000,  0.000000  0.000000)

-------------
DIPOLE MOMENT
-------------
                                X             Y             Z
Electronic contribution:      0.00000      -0.00000       0.00000
Nuclear contribution   :      0.00000       0.00000       0.00000
                        -----------------------------------------
Total Dipole Moment    :      0.00000      -0.00000       0.00000
                        -----------------------------------------
Magnitude (a.u.)       :      0.00000
Magnitude (Debye)      :      0.00000



--------------------
Rotational spectrum 
--------------------
 
Rotational constants in cm-1:     0.000000     0.000000     0.000000 
Rotational constants in MHz :     0.000000     0.000000     0.000000 

 Dipole components along the rotational axes: 
x,y,z [a.u.] :     0.000000    -0.000000     0.000000 
x,y,z [Debye]:     0.000000    -0.000000     0.000000 

 

Timings for individual modules:

Sum of individual times         ...      241.013 sec (=   4.017 min)
GTO integral calculation        ...        2.897 sec (=   0.048 min)   1.2 %
SCF iterations                  ...      238.116 sec (=   3.969 min)  98.8 %
                             ****ORCA TERMINATED NORMALLY****
TOTAL RUN TIME: 0 days 0 hours 4 minutes 1 seconds 613 msec
