
                                 *****************
                                 * O   R   C   A *
                                 *****************

           --- An Ab Initio, DFT and Semiempirical electronic structure package ---

                  #######################################################
                  #                        -***-                        #
                  #          Department of theory and spectroscopy      #
                  #               Directorship: Frank Neese             #
                  #        Max Planck Institute fuer Kohlenforschung    #
                  #                Kaiser Wilhelm Platz 1               #
                  #                 D-45470 Muelheim/Ruhr               #
                  #                      Germany                        #
                  #                                                     #
                  #                  All rights reserved                #
                  #                        -***-                        #
                  #######################################################


                         Program Version 4.2.0 -  RELEASE  -


 With contributions from (in alphabetic order):
   Daniel Aravena         : Magnetic Suceptibility
   Michael Atanasov       : Ab Initio Ligand Field Theory (pilot matlab implementation)
   Alexander A. Auer      : GIAO ZORA, VPT2
   Ute Becker             : Parallelization
   Giovanni Bistoni       : ED, misc. LED, open-shell LED, HFLED
   Martin Brehm           : Molecular dynamics
   Dmytro Bykov           : SCF Hessian
   Vijay G. Chilkuri      : MRCI spin determinant printing, contributions to CSF-ICE
   Dipayan Datta          : RHF DLPNO-CCSD density
   Achintya Kumar Dutta   : EOM-CC, STEOM-CC
   Dmitry Ganyushin       : Spin-Orbit,Spin-Spin,Magnetic field MRCI
   Miquel Garcia          : C-PCM Hessian, Gaussian charge scheme
   Yang Guo               : DLPNO-NEVPT2, CIM, IAO-localization
   Andreas Hansen         : Spin unrestricted coupled pair/coupled cluster methods
   Benjamin Helmich-Paris : CASSCF linear response (MC-RPA)
   Lee Huntington         : MR-EOM, pCC
   Robert Izsak           : Overlap fitted RIJCOSX, COSX-SCS-MP3, EOM
   Christian Kollmar      : KDIIS, OOCD, Brueckner-CCSD(T), CCSD density
   Simone Kossmann        : Meta GGA functionals, TD-DFT gradient, OOMP2, MP2 Hessian
   Martin Krupicka        : AUTO-CI
   Lucas Lang             : DCDCAS
   Dagmar Lenk            : GEPOL surface, SMD
   Dimitrios Liakos       : Extrapolation schemes; Compound Job, initial MDCI parallelization
   Dimitrios Manganas     : Further ROCIS development; embedding schemes
   Dimitrios Pantazis     : SARC Basis sets
   Taras Petrenko         : DFT Hessian,TD-DFT gradient, ASA, ECA, R-Raman, ABS, FL, XAS/XES, NRVS
   Peter Pinski           : DLPNO-MP2, DLPNO-MP2 Gradient
   Christoph Reimann      : Effective Core Potentials
   Marius Retegan         : Local ZFS, SOC
   Christoph Riplinger    : Optimizer, TS searches, QM/MM, DLPNO-CCSD(T), (RO)-DLPNO pert. Triples
   Tobias Risthaus        : Range-separated hybrids, TD-DFT gradient, RPA, STAB
   Michael Roemelt        : Original ROCIS implementation
   Masaaki Saitow         : Open-shell DLPNO-CCSD energy and density
   Barbara Sandhoefer     : DKH picture change effects
   Avijit Sen             : IP-ROCIS
   Kantharuban Sivalingam : CASSCF convergence, NEVPT2, FIC-MRCI
   Bernardo de Souza      : ESD, SOC TD-DFT
   Georgi Stoychev        : AutoAux, RI-MP2 NMR
   Willem Van den Heuvel  : Paramagnetic NMR
   Boris Wezisla          : Elementary symmetry handling
   Frank Wennmohs         : Technical directorship


 We gratefully acknowledge several colleagues who have allowed us to
 interface, adapt or use parts of their codes:
   Stefan Grimme, W. Hujo, H. Kruse,             : VdW corrections, initial TS optimization,
                  C. Bannwarth                     DFT functionals, gCP, sTDA/sTD-DF
   Ed Valeev, F. Pavosevic, A. Kumar             : LibInt (2-el integral package), F12 methods
   Garnet Chan, S. Sharma, J. Yang, R. Olivares  : DMRG
   Ulf Ekstrom                                   : XCFun DFT Library
   Mihaly Kallay                                 : mrcc  (arbitrary order and MRCC methods)
   Andreas Klamt, Michael Diedenhofen            : otool_cosmo (COSMO solvation model)
   Jiri Pittner, Ondrej Demel                    : Mk-CCSD
   Frank Weinhold                                : gennbo (NPA and NBO analysis)
   Christopher J. Cramer and Donald G. Truhlar   : smd solvation model
   Lars Goerigk                                  : TD-DFT with DH, B97 family of functionals
   V. Asgeirsson, H. Jonsson                     : NEB implementation
   FAccTs GmbH                                   : IRC, NEB, NEB-TS, Multilevel, MM, QM/MM, CI optimization
   S Lehtola, MJT Oliveira, MAL Marques          : LibXC Library


 Your calculation uses the libint2 library for the computation of 2-el integrals
 For citations please refer to: http://libint.valeyev.net

 Your ORCA version has been built with support for libXC version: 4.2.3
 For citations please refer to: https://tddft.org/programs/libxc/

 This ORCA versions uses:
   CBLAS   interface :  Fast vector & matrix operations
   LAPACKE interface :  Fast linear algebra routines
   SCALAPACK package :  Parallel linear algebra routines


Your calculation utilizes the DFT-NL dispersion correction.
Cite in your paper:
Vydrov, O. A.; Van Voorhis, T. J. Chem. Phys. 2010, 133, 244103
Hujo, W.; Grimme, S. J. Chem. Theory Comput. 2011, 7, 3866 
   

----- Orbital basis set information -----
Your calculation utilizes the basis: aug-cc-pVTZ 
    H, B-Ne : Obtained from the ccRepo (grant-hill.group.shef.ac.uk/ccrepo) Feb. 2017
              R. A. Kendall, T. H. Dunning, Jr., R. J. Harrison, J. Chem. Phys. 96, 6796 (1992)
         He : Obtained from the ccRepo (grant-hill.group.shef.ac.uk/ccrepo) Feb. 2017
              D. E. Woon, T. H. Dunning, Jr., J. Chem. Phys. 100, 2975 (1994)
  Li-Be, Na : Obtained from the ccRepo (grant-hill.group.shef.ac.uk/ccrepo) Feb. 2017
              B. P. Prascher, D. E. Woon, K. A. Peterson, T. H. Dunning, Jr., A. K. Wilson, Theor. Chem. Acc. 128, 69 (2011)
         Mg : Obtained from the Peterson Research Group Website (tyr0.chem.wsu.edu/~kipeters) Feb. 2017
              B. P. Prascher, D. E. Woon, K. A. Peterson, T. H. Dunning, Jr., A. K. Wilson, Theor. Chem. Acc. 128, 69 (2011)
      Al-Ar : Obtained from the ccRepo (grant-hill.group.shef.ac.uk/ccrepo) Feb. 2017
              D. E. Woon, T. H. Dunning, Jr., J. Chem. Phys. 98, 1358 (1993)
      Sc-Zn : Obtained from the ccRepo (grant-hill.group.shef.ac.uk/ccrepo) Feb. 2017
              N. B. Balabanov, K. A. Peterson, J. Chem. Phys. 123, 064107 (2005)
              N. B. Balabanov, K. A. Peterson, J. Chem. Phys. 125, 074110 (2006)
      Ga-Kr : Obtained from the ccRepo (grant-hill.group.shef.ac.uk/ccrepo) Feb. 2017
              A. K. Wilson, D. E. Woon, K. A. Peterson, T. H. Dunning, Jr., J. Chem. Phys. 110, 7667 (1999)
     Ag, Au : Obtained from the Peterson Research Group Website (tyr0.chem.wsu.edu/~kipeters) Feb. 2017
              K. A. Peterson, C. Puzzarini, Theor. Chem. Acc. 114, 283 (2005)

----- AuxJK basis set information -----
Your calculation utilizes the auxiliary basis: def2/JK
   H-Ba, Hf-Rn: F. Weigend, J. Comput. Chem. 29, 167 (2008).

================================================================================
                                        WARNINGS
                       Please study these warnings very carefully!
================================================================================


WARNING: your system is open-shell and RHF/RKS was chosen
  ===> : WILL SWITCH to UHF/UKS


INFO   : the flag for use of LIBINT has been found!

================================================================================
                                       INPUT FILE
================================================================================
NAME = 69_Cu.in
|  1> #
|  2> # 69_Cu wb97x-v/aug-cc-pvtz
|  3> #
|  4> ! wb97x-v aug-cc-pvtz def2/jk grid4 nofinalgrid
|  5> 
|  6> *xyz 0 2
|  7> Cu 0.0 0.0 0.0
|  8> *
|  9> 
| 10> %pal
| 11> nprocs 24
| 12> end
| 13> 
| 14> 
| 15>                          ****END OF INPUT****
================================================================================

                       ****************************
                       * Single Point Calculation *
                       ****************************

---------------------------------
CARTESIAN COORDINATES (ANGSTROEM)
---------------------------------
  Cu     0.000000    0.000000    0.000000

----------------------------
CARTESIAN COORDINATES (A.U.)
----------------------------
  NO LB      ZA    FRAG     MASS         X           Y           Z
   0 Cu   29.0000    0    63.550    0.000000    0.000000    0.000000

--------------------------------
INTERNAL COORDINATES (ANGSTROEM)
--------------------------------
 Cu     0   0   0     0.000000000000     0.00000000     0.00000000

---------------------------
INTERNAL COORDINATES (A.U.)
---------------------------
 Cu     0   0   0     0.000000000000     0.00000000     0.00000000

---------------------
BASIS SET INFORMATION
---------------------
There are 1 groups of distinct atoms

 Group   1 Type Cu  : 116s77p23d3f2g contracted to 8s7p5d3f2g pattern {19191919191911/151515151511/77711/111/11}

Atom   0Cu   basis set group =>   1
----------------------------------
AUXILIARY/JK BASIS SET INFORMATION
----------------------------------
There are 1 groups of distinct atoms

 Group   1 Type Cu  : 19s14p12d10f7g3h1i contracted to 16s13p11d9f5g3h1i pattern {4111111111111111/2111111111111/21111111111/211111111/31111/111/1}

Atom   0Cu   basis set group =>   1


           ************************************************************
           *        Program running with 24 parallel MPI-processes    *
           *              working on a common directory               *
           ************************************************************
------------------------------------------------------------------------------
                           ORCA GTO INTEGRAL CALCULATION
------------------------------------------------------------------------------

                         BASIS SET STATISTICS AND STARTUP INFO

 # of primitive gaussian shells          ...  221
 # of primitive gaussian functions       ...  501
 # of contracted shells                  ...   25
 # of contracted basis functions         ...   93
 Highest angular momentum                ...    4
 Maximum contraction depth               ...   19
 Integral package used                   ... LIBINT
 Integral threshhold            Thresh   ...  1.000e-10
 Primitive cut-off              TCut     ...  1.000e-11


------------------------------ INTEGRAL EVALUATION ----------------------------


 * One electron integrals 
 Pre-screening matrix                    ... done
 Shell pair data                         ... done (   0.001 sec)



           ************************************************************
           *        Program running with 24 parallel MPI-processes    *
           *              working on a common directory               *
           ************************************************************
-------------------------------------------------------------------------------
                                 ORCA SCF
-------------------------------------------------------------------------------

------------
SCF SETTINGS
------------
Hamiltonian:
 Density Functional     Method          .... DFT(GTOs)
 Exchange Functional    Exchange        .... WB97X-V
 Correlation Functional Correlation     .... WB97X-V
 Gradients option       PostSCFGGA      .... off
 Hybrid DFT is turned on
   Fraction HF Exchange ScalHFX         ....  0.167000
   Scaling of DF-GGA-X  ScalDFX         ....  0.000000
   Scaling of DF-GGA-C  ScalDFC         ....  1.000000
   Scaling of DF-LDA-C  ScalLDAC        ....  1.000000
   Perturbative correction              ....  0.000000
   Density functional embedding theory  .... OFF
 Long-range corrected/Screened/Range-Separated Hybrid DFT is turned on
   Amount of maximum screened exact exchange              ....  0.833000
   Range separation parameter mu (erf(mu*r12)/r12)        ....  0.300000
   NL short-range parameter             ....  6.000000
   NL long-range parameter              ....  0.010000


General Settings:
 Integral files         IntName         .... 69_Cu
 Hartree-Fock type      HFTyp           .... UHF
 Total Charge           Charge          ....    0
 Multiplicity           Mult            ....    2
 Number of Electrons    NEL             ....   29
 Basis Dimension        Dim             ....   93
 Nuclear Repulsion      ENuc            ....      0.0000000000 Eh

Convergence Acceleration:
 DIIS                   CNVDIIS         .... on
   Start iteration      DIISMaxIt       ....    12
   Startup error        DIISStart       ....  0.200000
   # of expansion vecs  DIISMaxEq       ....     5
   Bias factor          DIISBfac        ....   1.050
   Max. coefficient     DIISMaxC        ....  10.000
 Newton-Raphson         CNVNR           .... off
 SOSCF                  CNVSOSCF        .... off
 Level Shifting         CNVShift        .... on
   Level shift para.    LevelShift      ....    0.2500
   Turn off err/grad.   ShiftErr        ....    0.0010
 Zerner damping         CNVZerner       .... off
 Static damping         CNVDamp         .... on
   Fraction old density DampFac         ....    0.7000
   Max. Damping (<1)    DampMax         ....    0.9800
   Min. Damping (>=0)   DampMin         ....    0.0000
   Turn off err/grad.   DampErr         ....    0.1000
 Fernandez-Rico         CNVRico         .... off

SCF Procedure:
 Maximum # iterations   MaxIter         ....   125
 SCF integral mode      SCFMode         .... Direct
   Integral package                     .... LIBINT
 Reset frequency        DirectResetFreq ....    20
 Integral Threshold     Thresh          ....  1.000e-10 Eh
 Primitive CutOff       TCut            ....  1.000e-11 Eh

Convergence Tolerance:
 Convergence Check Mode ConvCheckMode   .... Total+1el-Energy
 Convergence forced     ConvForced      .... 0
 Energy Change          TolE            ....  1.000e-06 Eh
 1-El. energy change                    ....  1.000e-03 Eh
 DIIS Error             TolErr          ....  1.000e-06


Diagonalization of the overlap matrix:
Smallest eigenvalue                        ... 9.090e-04
Time for diagonalization                   ...    0.003 sec
Threshold for overlap eigenvalues          ... 1.000e-08
Number of eigenvalues below threshold      ... 0
Time for construction of square roots      ...    0.001 sec
Total time needed                          ...    0.005 sec

-------------------
DFT GRID GENERATION
-------------------

General Integration Accuracy     IntAcc      ...  4.670
Radial Grid Type                 RadialGrid  ... Gauss-Chebyshev
Angular Grid (max. acc.)         AngularGrid ... Lebedev-302
Angular grid pruning method      GridPruning ... 3 (G Style)
Weight generation scheme         WeightScheme... Becke
Basis function cutoff            BFCut       ...    1.0000e-10
Integration weight cutoff        WCut        ...    1.0000e-14
Grids for H and He will be reduced by one unit

# of grid points (after initial pruning)     ...   9556 (   0.0 sec)
# of grid points (after weights+screening)   ...   9556 (   0.0 sec)
Grid point division into batches done        ...    0.1 sec
Reduced shell lists constructed in    0.1 sec

Total number of grid points                  ...     9556
Total number of batches                      ...      150
Average number of points per batch           ...       63
Average number of grid points per atom       ...     9556
Average number of shells per batch           ...     9.75 (39.00%)
Average number of basis functions per batch  ...    22.00 (23.66%)
Average number of large shells per batch     ...     4.50 (46.15%)
Average number of large basis fcns per batch ...    11.50 (52.27%)
Maximum spatial batch extension              ...  22.45, 20.42, 20.42 au
Average spatial batch extension              ...   0.87,  0.82,  0.80 au

Time for grid setup =    0.117 sec

------------------------------
INITIAL GUESS: MODEL POTENTIAL
------------------------------
Loading Hartree-Fock densities                     ... done
Calculating cut-offs                               ... done
Setting up the integral package                    ... done
Initializing the effective Hamiltonian             ... done
Starting the Coulomb interaction                   ... done (   0.0 sec)
Reading the grid                                   ... done
Mapping shells                                     ... done
Starting the XC term evaluation                    ... done (   0.0 sec)
  promolecular density results
     # of electrons  =     29.000019956
     EX              =    -50.336995560
     EC              =     -1.785205608
     EX+EC           =    -52.122201168
Transforming the Hamiltonian                       ... done (   0.0 sec)
Diagonalizing the Hamiltonian                      ... done (   0.0 sec)
Back transforming the eigenvectors                 ... done (   0.0 sec)
Now organizing SCF variables                       ... done
                      ------------------
                      INITIAL GUESS DONE (   0.2 sec)
                      ------------------
--------------
SCF ITERATIONS
--------------
ITER       Energy         Delta-E        Max-DP      RMS-DP      [F,P]     Damp
               ***  Starting incremental Fock matrix formation  ***
  0  -1639.1775819047   0.000000000000 0.18877088  0.00396408  1.2396714 0.7000
  1  -1639.8346370766  -0.657055171889 0.14834419  0.00186647  0.3018825 0.7000
  2  -1640.0171471068  -0.182510030183 0.10717890  0.00147327  0.2434084 0.7000
  3  -1640.1431957526  -0.126048645778 0.07183380  0.00106034  0.2149231 0.7000
                               ***Turning on DIIS***
  4  -1640.2397675225  -0.096571769963 0.04829256  0.00073165  0.1377693 0.7000
  5  -1640.3105209815  -0.070753458937 0.14031876  0.00189678  0.0853677 0.0000
  6  -1640.4877926135  -0.177271632004 0.02743855  0.00042553  0.0177407 0.0000
  7  -1640.4879520526  -0.000159439086 0.01906831  0.00018726  0.0297891 0.0000
  8  -1640.4885215460  -0.000569493453 0.00708518  0.00009125  0.0027174 0.0000
  9  -1640.4885584406  -0.000036894594 0.00886806  0.00008480  0.0014421 0.0000
 10  -1640.4885734160  -0.000014975430 0.01070281  0.00009090  0.0007284 0.0000
 11  -1640.4885782951  -0.000004879094 0.00193351  0.00001565  0.0001239 0.0000
                 **** Energy Check signals convergence ****

               *****************************************************
               *                     SUCCESS                       *
               *           SCF CONVERGED AFTER  12 CYCLES          *
               *****************************************************


Setting up the DFT-NL grid :

General Integration Accuracy     IntAcc      ...  4.340
Radial Grid Type                 RadialGrid  ... Gauss-Chebyshev
Angular Grid (max. acc.)         AngularGrid ... Lebedev-110
Angular grid pruning method      GridPruning ... 3 (G Style)
Weight generation scheme         WeightScheme... Becke
Basis function cutoff            BFCut       ...    1.0000e-10
Integration weight cutoff        WCut        ...    1.0000e-14
Grids for H and He will be reduced by one unit

# of grid points (after initial pruning)     ...   2912 (   0.0 sec)
# of grid points (after weights+screening)   ...   2912 (   0.0 sec)
Grid point division into batches done        ...    0.0 sec
Reduced shell lists constructed in    0.0 sec

Total number of grid points                  ...     2912
Total number of batches                      ...       46
Average number of points per batch           ...       63
Average number of grid points per atom       ...     2912
Average number of shells per batch           ...    12.00 (48.00%)
Average number of basis functions per batch  ...    30.67 (32.97%)
Average number of large shells per batch     ...     8.67 (72.22%)
Average number of large basis fcns per batch ...    20.67 (67.39%)
Maximum spatial batch extension              ...  17.39, 26.34, 26.34 au
Average spatial batch extension              ...   0.76,  1.15,  1.15 au

Final grid set up in    0.0 sec

-------------------------------------------------------------------------------
                         DFT-NL dispersion correction                          
-------------------------------------------------------------------------------

SC Energy -1640.488578443 
NL    Energy 0.124049315 
SC+NL Energy -1640.364529129 
NL done in    0.0 sec
-------------------------------------------------------------------------------

----------------
TOTAL SCF ENERGY
----------------

Total Energy       :        -1640.36452913 Eh          -44636.58812 eV

Components:
Nuclear Repulsion  :            0.00000000 Eh               0.00000 eV
Electronic Energy  :        -1640.36452913 Eh          -44636.58812 eV
One Electron Energy:        -2288.22410204 Eh          -62265.74335 eV
Two Electron Energy:          647.85957291 Eh           17629.15523 eV

Virial components:
Potential Energy   :        -3278.83592108 Eh          -89221.66135 eV
Kinetic Energy     :         1638.47139195 Eh           44585.07324 eV
Virial Ratio       :            2.00115543


DFT components:
N(Alpha)           :       15.000006665598 electrons
N(Beta)            :       14.000006660080 electrons
N(Total)           :       29.000013325678 electrons
E(X)               :      -50.474648509379 Eh       
E(C)               :       -1.789239274950 Eh       
NL Energy, E(C,NL) :        0.124049314774 Eh       
E(XC)              :      -52.139838469556 Eh       
DFET-embed. en.    :        0.000000000000 Eh       

---------------
SCF CONVERGENCE
---------------

  Last Energy change         ...   -1.4833e-07  Tolerance :   1.0000e-06
  Last MAX-Density change    ...    4.1191e-04  Tolerance :   1.0000e-05
  Last RMS-Density change    ...    3.7679e-06  Tolerance :   1.0000e-06
  Last DIIS Error            ...    3.0886e-05  Tolerance :   1.0000e-06

             **** THE GBW FILE WAS UPDATED (69_Cu.gbw) ****
             **** DENSITY FILE WAS UPDATED (69_Cu.scfp) ****
             **** ENERGY FILE WAS UPDATED (69_Cu.en.tmp) ****
----------------------
UHF SPIN CONTAMINATION
----------------------

Warning: in a DFT calculation there is little theoretical justification to 
         calculate <S**2> as in Hartree-Fock theory. We will do it anyways
         but you should keep in mind that the values have only limited relevance

Expectation value of <S**2>     :     0.750363
Ideal value S*(S+1) for S=0.5   :     0.750000
Deviation                       :     0.000363

             **** THE GBW FILE WAS UPDATED (69_Cu.gbw) ****
             **** DENSITY FILE WAS UPDATED (69_Cu.scfp) ****
----------------
ORBITAL ENERGIES
----------------
                 SPIN UP ORBITALS
  NO   OCC          E(Eh)            E(eV) 
   0   1.0000    -322.820962     -8784.4050 
   1   1.0000     -38.800102     -1055.8044 
   2   1.0000     -33.995996      -925.0781 
   3   1.0000     -33.995996      -925.0781 
   4   1.0000     -33.995991      -925.0779 
   5   1.0000      -4.371026      -118.9417 
   6   1.0000      -2.865532       -77.9751 
   7   1.0000      -2.865532       -77.9751 
   8   1.0000      -2.865526       -77.9749 
   9   1.0000      -0.364309        -9.9133 
  10   1.0000      -0.364305        -9.9133 
  11   1.0000      -0.364305        -9.9133 
  12   1.0000      -0.364304        -9.9132 
  13   1.0000      -0.364302        -9.9132 
  14   1.0000      -0.265672        -7.2293 
  15   0.0000       0.022476         0.6116 
  16   0.0000       0.022477         0.6116 
  17   0.0000       0.022477         0.6116 
  18   0.0000       0.032806         0.8927 
  19   0.0000       0.081555         2.2192 
  20   0.0000       0.081556         2.2192 
  21   0.0000       0.081556         2.2192 
  22   0.0000       0.187987         5.1154 
  23   0.0000       0.195298         5.3143 
  24   0.0000       0.195298         5.3143 
  25   0.0000       0.195298         5.3143 
  26   0.0000       0.195299         5.3143 
  27   0.0000       0.195299         5.3144 
  28   0.0000       0.301103         8.1934 
  29   0.0000       0.301104         8.1935 
  30   0.0000       0.301104         8.1935 
  31   0.0000       0.683153        18.5895 
  32   0.0000       0.683153        18.5895 
  33   0.0000       0.683153        18.5895 
  34   0.0000       0.683154        18.5896 
  35   0.0000       0.683154        18.5896 
  36   0.0000       0.726242        19.7621 
  37   0.0000       1.088712        29.6254 
  38   0.0000       1.088712        29.6254 
  39   0.0000       1.088713        29.6254 
  40   0.0000       1.560577        42.4654 
  41   0.0000       1.560577        42.4655 
  42   0.0000       1.560577        42.4655 
  43   0.0000       1.560578        42.4655 
  44   0.0000       1.560579        42.4655 
  45   0.0000       1.560579        42.4655 
  46   0.0000       1.560579        42.4655 
  47   0.0000       2.287531        62.2469 
  48   0.0000       2.287531        62.2469 
  49   0.0000       2.287532        62.2469 
  50   0.0000       2.287532        62.2469 
  51   0.0000       2.287532        62.2469 
  52   0.0000       3.907985       106.3417 
  53   0.0000       4.397568       119.6639 
  54   0.0000       4.397568       119.6639 
  55   0.0000       4.397571       119.6640 
  56   0.0000       4.510103       122.7261 
  57   0.0000       4.510103       122.7261 
  58   0.0000       4.510105       122.7262 
  59   0.0000       4.510105       122.7262 
  60   0.0000       4.510105       122.7262 
  61   0.0000       4.510105       122.7262 
  62   0.0000       4.510106       122.7262 
  63   0.0000       6.212623       169.0541 
  64   0.0000       6.212623       169.0541 
  65   0.0000       6.212624       169.0541 
  66   0.0000       6.212625       169.0541 
  67   0.0000       6.212625       169.0541 
  68   0.0000       6.212626       169.0541 
  69   0.0000       6.212626       169.0541 
  70   0.0000       6.212626       169.0541 
  71   0.0000       6.212626       169.0541 
  72   0.0000       8.082670       219.9406 
  73   0.0000       8.082671       219.9407 
  74   0.0000       8.082674       219.9407 
  75   0.0000       8.082674       219.9407 
  76   0.0000       8.082675       219.9408 
  77   0.0000      14.184137       385.9700 
  78   0.0000      14.184137       385.9700 
  79   0.0000      14.184141       385.9701 
  80   0.0000      14.184141       385.9701 
  81   0.0000      14.184144       385.9702 
  82   0.0000      14.184144       385.9702 
  83   0.0000      14.184144       385.9702 
  84   0.0000      16.660526       453.3560 
  85   0.0000      16.660526       453.3560 
  86   0.0000      16.660529       453.3561 
  87   0.0000      16.660529       453.3561 
  88   0.0000      16.660531       453.3561 
  89   0.0000      16.660532       453.3561 
  90   0.0000      16.660533       453.3561 
  91   0.0000      16.660533       453.3561 
  92   0.0000      16.660533       453.3562 

                 SPIN DOWN ORBITALS
  NO   OCC          E(Eh)            E(eV) 
   0   1.0000    -322.819762     -8784.3723 
   1   1.0000     -38.799788     -1055.7959 
   2   1.0000     -33.995904      -925.0756 
   3   1.0000     -33.995904      -925.0756 
   4   1.0000     -33.995899      -925.0754 
   5   1.0000      -4.369899      -118.9110 
   6   1.0000      -2.865240       -77.9671 
   7   1.0000      -2.865240       -77.9671 
   8   1.0000      -2.865233       -77.9670 
   9   1.0000      -0.361430        -9.8350 
  10   1.0000      -0.361428        -9.8349 
  11   1.0000      -0.361428        -9.8349 
  12   1.0000      -0.361427        -9.8349 
  13   1.0000      -0.361426        -9.8349 
  14   0.0000      -0.031545        -0.8584 
  15   0.0000       0.036399         0.9905 
  16   0.0000       0.036400         0.9905 
  17   0.0000       0.036402         0.9906 
  18   0.0000       0.046030         1.2525 
  19   0.0000       0.100867         2.7447 
  20   0.0000       0.100867         2.7447 
  21   0.0000       0.100872         2.7449 
  22   0.0000       0.206446         5.6177 
  23   0.0000       0.206456         5.6179 
  24   0.0000       0.206457         5.6180 
  25   0.0000       0.206457         5.6180 
  26   0.0000       0.206457         5.6180 
  27   0.0000       0.210572         5.7299 
  28   0.0000       0.320136         8.7114 
  29   0.0000       0.320137         8.7114 
  30   0.0000       0.320140         8.7114 
  31   0.0000       0.690964        18.8021 
  32   0.0000       0.690964        18.8021 
  33   0.0000       0.690964        18.8021 
  34   0.0000       0.690964        18.8021 
  35   0.0000       0.690964        18.8021 
  36   0.0000       0.736021        20.0281 
  37   0.0000       1.097884        29.8749 
  38   0.0000       1.097884        29.8749 
  39   0.0000       1.097887        29.8750 
  40   0.0000       1.577363        42.9222 
  41   0.0000       1.577363        42.9222 
  42   0.0000       1.577364        42.9223 
  43   0.0000       1.577364        42.9223 
  44   0.0000       1.577365        42.9223 
  45   0.0000       1.577365        42.9223 
  46   0.0000       1.577365        42.9223 
  47   0.0000       2.296421        62.4888 
  48   0.0000       2.296422        62.4888 
  49   0.0000       2.296424        62.4889 
  50   0.0000       2.296424        62.4889 
  51   0.0000       2.296424        62.4889 
  52   0.0000       3.913848       106.5012 
  53   0.0000       4.402212       119.7903 
  54   0.0000       4.402212       119.7903 
  55   0.0000       4.402216       119.7904 
  56   0.0000       4.513511       122.8189 
  57   0.0000       4.513511       122.8189 
  58   0.0000       4.513513       122.8189 
  59   0.0000       4.513513       122.8189 
  60   0.0000       4.513514       122.8190 
  61   0.0000       4.513514       122.8190 
  62   0.0000       4.513514       122.8190 
  63   0.0000       6.220614       169.2715 
  64   0.0000       6.220614       169.2715 
  65   0.0000       6.220615       169.2715 
  66   0.0000       6.220615       169.2715 
  67   0.0000       6.220616       169.2716 
  68   0.0000       6.220616       169.2716 
  69   0.0000       6.220616       169.2716 
  70   0.0000       6.220616       169.2716 
  71   0.0000       6.220617       169.2716 
  72   0.0000       8.084245       219.9835 
  73   0.0000       8.084245       219.9835 
  74   0.0000       8.084249       219.9836 
  75   0.0000       8.084249       219.9836 
  76   0.0000       8.084250       219.9836 
  77   0.0000      14.184766       385.9871 
  78   0.0000      14.184766       385.9871 
  79   0.0000      14.184770       385.9872 
  80   0.0000      14.184771       385.9872 
  81   0.0000      14.184773       385.9873 
  82   0.0000      14.184773       385.9873 
  83   0.0000      14.184774       385.9873 
  84   0.0000      16.661307       453.3772 
  85   0.0000      16.661307       453.3772 
  86   0.0000      16.661310       453.3773 
  87   0.0000      16.661310       453.3773 
  88   0.0000      16.661312       453.3774 
  89   0.0000      16.661313       453.3774 
  90   0.0000      16.661314       453.3774 
  91   0.0000      16.661314       453.3774 
  92   0.0000      16.661315       453.3774 

                    ********************************
                    * MULLIKEN POPULATION ANALYSIS *
                    ********************************

--------------------------------------------
MULLIKEN ATOMIC CHARGES AND SPIN POPULATIONS
--------------------------------------------
   0 Cu:    0.000000    1.000000
Sum of atomic charges         :    0.0000000
Sum of atomic spin populations:    1.0000000

-----------------------------------------------------
MULLIKEN REDUCED ORBITAL CHARGES AND SPIN POPULATIONS
-----------------------------------------------------
CHARGE
  0 Cus       :     7.000000  s :     7.000000
      pz      :     4.000000  p :    12.000000
      px      :     4.000000
      py      :     4.000000
      dz2     :     2.000000  d :    10.000000
      dxz     :     2.000000
      dyz     :     2.000000
      dx2y2   :     2.000000
      dxy     :     2.000000
      f0      :     0.000000  f :     0.000000
      f+1     :     0.000000
      f-1     :     0.000000
      f+2     :     0.000000
      f-2     :     0.000000
      f+3     :     0.000000
      f-3     :     0.000000
      g0      :     0.000000  g :     0.000000
      g+1     :     0.000000
      g-1     :     0.000000
      g+2     :     0.000000
      g-2     :     0.000000
      g+3     :     0.000000
      g-3     :     0.000000
      g+4     :     0.000000
      g-4     :     0.000000

SPIN
  0 Cus       :     1.000000  s :     1.000000
      pz      :     0.000000  p :     0.000000
      px      :     0.000000
      py      :     0.000000
      dz2     :     0.000000  d :     0.000000
      dxz     :     0.000000
      dyz     :     0.000000
      dx2y2   :     0.000000
      dxy     :     0.000000
      f0      :    -0.000000  f :    -0.000000
      f+1     :    -0.000000
      f-1     :    -0.000000
      f+2     :    -0.000000
      f-2     :     0.000000
      f+3     :     0.000000
      f-3     :     0.000000
      g0      :    -0.000000  g :    -0.000000
      g+1     :    -0.000000
      g-1     :    -0.000000
      g+2     :    -0.000000
      g-2     :    -0.000000
      g+3     :    -0.000000
      g-3     :    -0.000000
      g+4     :     0.000000
      g-4     :     0.000000


                     *******************************
                     * LOEWDIN POPULATION ANALYSIS *
                     *******************************

-------------------------------------------
LOEWDIN ATOMIC CHARGES AND SPIN POPULATIONS
-------------------------------------------
   0 Cu:    0.000000    1.000000

----------------------------------------------------
LOEWDIN REDUCED ORBITAL CHARGES AND SPIN POPULATIONS
----------------------------------------------------
CHARGE
  0 Cus       :     7.000000  s :     7.000000
      pz      :     4.000000  p :    12.000000
      px      :     4.000000
      py      :     4.000000
      dz2     :     2.000000  d :    10.000000
      dxz     :     2.000000
      dyz     :     2.000000
      dx2y2   :     2.000000
      dxy     :     2.000000
      f0      :     0.000000  f :     0.000000
      f+1     :     0.000000
      f-1     :     0.000000
      f+2     :     0.000000
      f-2     :     0.000000
      f+3     :     0.000000
      f-3     :     0.000000
      g0      :     0.000000  g :     0.000000
      g+1     :     0.000000
      g-1     :     0.000000
      g+2     :     0.000000
      g-2     :     0.000000
      g+3     :     0.000000
      g-3     :     0.000000
      g+4     :     0.000000
      g-4     :     0.000000

SPIN
  0 Cus       :     1.000000  s :     1.000000
      pz      :     0.000000  p :     0.000000
      px      :     0.000000
      py      :     0.000000
      dz2     :     0.000000  d :     0.000000
      dxz     :     0.000000
      dyz     :     0.000000
      dx2y2   :     0.000000
      dxy     :     0.000000
      f0      :    -0.000000  f :    -0.000000
      f+1     :    -0.000000
      f-1     :    -0.000000
      f+2     :    -0.000000
      f-2     :     0.000000
      f+3     :     0.000000
      f-3     :     0.000000
      g0      :    -0.000000  g :    -0.000000
      g+1     :    -0.000000
      g-1     :    -0.000000
      g+2     :    -0.000000
      g-2     :    -0.000000
      g+3     :    -0.000000
      g-3     :    -0.000000
      g+4     :     0.000000
      g-4     :     0.000000


                      *****************************
                      * MAYER POPULATION ANALYSIS *
                      *****************************

  NA   - Mulliken gross atomic population
  ZA   - Total nuclear charge
  QA   - Mulliken gross atomic charge
  VA   - Mayer's total valence
  BVA  - Mayer's bonded valence
  FA   - Mayer's free valence

  ATOM       NA         ZA         QA         VA         BVA        FA
  0 Cu    29.0000    29.0000     0.0000     1.0007     0.0000     1.0007

  Mayer bond orders larger than 0.100000


-------
TIMINGS
-------

Total SCF time: 0 days 0 hours 2 min 19 sec 

Total time                  ....     139.075 sec
Sum of individual times     ....     138.771 sec  ( 99.8%)

Fock matrix formation       ....     138.485 sec  ( 99.6%)
  XC integration            ....       0.158 sec  (  0.1% of F)
    Basis function eval.    ....       0.036 sec  ( 23.0% of XC)
    Density eval.           ....       0.016 sec  (  9.9% of XC)
    XC-Functional eval.     ....       0.009 sec  (  5.7% of XC)
    XC-Potential eval.      ....       0.028 sec  ( 17.5% of XC)
Diagonalization             ....       0.029 sec  (  0.0%)
Density matrix formation    ....       0.006 sec  (  0.0%)
Population analysis         ....       0.004 sec  (  0.0%)
Initial guess               ....       0.108 sec  (  0.1%)
Orbital Transformation      ....       0.000 sec  (  0.0%)
Orbital Orthonormalization  ....       0.000 sec  (  0.0%)
DIIS solution               ....       0.009 sec  (  0.0%)
Grid generation             ....       0.129 sec  (  0.1%)

-------------------------   --------------------
FINAL SINGLE POINT ENERGY     -1640.364529128695
-------------------------   --------------------


                            ***************************************
                            *     ORCA property calculations      *
                            ***************************************

                                    ---------------------
                                    Active property flags
                                    ---------------------
   (+) Dipole Moment


------------------------------------------------------------------------------
                       ORCA ELECTRIC PROPERTIES CALCULATION
------------------------------------------------------------------------------

Dipole Moment Calculation                       ... on
Quadrupole Moment Calculation                   ... off
Polarizability Calculation                      ... off
GBWName                                         ... 69_Cu.gbw
Electron density file                           ... 69_Cu.scfp
The origin for moment calculation is the CENTER OF MASS  = ( 0.000000,  0.000000  0.000000)

-------------
DIPOLE MOMENT
-------------
                                X             Y             Z
Electronic contribution:      0.00000       0.00000       0.00000
Nuclear contribution   :      0.00000       0.00000       0.00000
                        -----------------------------------------
Total Dipole Moment    :      0.00000       0.00000       0.00000
                        -----------------------------------------
Magnitude (a.u.)       :      0.00000
Magnitude (Debye)      :      0.00000



--------------------
Rotational spectrum 
--------------------
 
Rotational constants in cm-1:     0.000000     0.000000     0.000000 
Rotational constants in MHz :     0.000000     0.000000     0.000000 

 Dipole components along the rotational axes: 
x,y,z [a.u.] :     0.000000     0.000000     0.000000 
x,y,z [Debye]:     0.000000     0.000000     0.000000 

 

Timings for individual modules:

Sum of individual times         ...      142.576 sec (=   2.376 min)
GTO integral calculation        ...        2.917 sec (=   0.049 min)   2.0 %
SCF iterations                  ...      139.660 sec (=   2.328 min)  98.0 %
                             ****ORCA TERMINATED NORMALLY****
TOTAL RUN TIME: 0 days 0 hours 2 minutes 23 seconds 196 msec
