
                                 *****************
                                 * O   R   C   A *
                                 *****************

           --- An Ab Initio, DFT and Semiempirical electronic structure package ---

                  #######################################################
                  #                        -***-                        #
                  #          Department of theory and spectroscopy      #
                  #               Directorship: Frank Neese             #
                  #        Max Planck Institute fuer Kohlenforschung    #
                  #                Kaiser Wilhelm Platz 1               #
                  #                 D-45470 Muelheim/Ruhr               #
                  #                      Germany                        #
                  #                                                     #
                  #                  All rights reserved                #
                  #                        -***-                        #
                  #######################################################


                         Program Version 4.2.0 -  RELEASE  -


 With contributions from (in alphabetic order):
   Daniel Aravena         : Magnetic Suceptibility
   Michael Atanasov       : Ab Initio Ligand Field Theory (pilot matlab implementation)
   Alexander A. Auer      : GIAO ZORA, VPT2
   Ute Becker             : Parallelization
   Giovanni Bistoni       : ED, misc. LED, open-shell LED, HFLED
   Martin Brehm           : Molecular dynamics
   Dmytro Bykov           : SCF Hessian
   Vijay G. Chilkuri      : MRCI spin determinant printing, contributions to CSF-ICE
   Dipayan Datta          : RHF DLPNO-CCSD density
   Achintya Kumar Dutta   : EOM-CC, STEOM-CC
   Dmitry Ganyushin       : Spin-Orbit,Spin-Spin,Magnetic field MRCI
   Miquel Garcia          : C-PCM Hessian, Gaussian charge scheme
   Yang Guo               : DLPNO-NEVPT2, CIM, IAO-localization
   Andreas Hansen         : Spin unrestricted coupled pair/coupled cluster methods
   Benjamin Helmich-Paris : CASSCF linear response (MC-RPA)
   Lee Huntington         : MR-EOM, pCC
   Robert Izsak           : Overlap fitted RIJCOSX, COSX-SCS-MP3, EOM
   Christian Kollmar      : KDIIS, OOCD, Brueckner-CCSD(T), CCSD density
   Simone Kossmann        : Meta GGA functionals, TD-DFT gradient, OOMP2, MP2 Hessian
   Martin Krupicka        : AUTO-CI
   Lucas Lang             : DCDCAS
   Dagmar Lenk            : GEPOL surface, SMD
   Dimitrios Liakos       : Extrapolation schemes; Compound Job, initial MDCI parallelization
   Dimitrios Manganas     : Further ROCIS development; embedding schemes
   Dimitrios Pantazis     : SARC Basis sets
   Taras Petrenko         : DFT Hessian,TD-DFT gradient, ASA, ECA, R-Raman, ABS, FL, XAS/XES, NRVS
   Peter Pinski           : DLPNO-MP2, DLPNO-MP2 Gradient
   Christoph Reimann      : Effective Core Potentials
   Marius Retegan         : Local ZFS, SOC
   Christoph Riplinger    : Optimizer, TS searches, QM/MM, DLPNO-CCSD(T), (RO)-DLPNO pert. Triples
   Tobias Risthaus        : Range-separated hybrids, TD-DFT gradient, RPA, STAB
   Michael Roemelt        : Original ROCIS implementation
   Masaaki Saitow         : Open-shell DLPNO-CCSD energy and density
   Barbara Sandhoefer     : DKH picture change effects
   Avijit Sen             : IP-ROCIS
   Kantharuban Sivalingam : CASSCF convergence, NEVPT2, FIC-MRCI
   Bernardo de Souza      : ESD, SOC TD-DFT
   Georgi Stoychev        : AutoAux, RI-MP2 NMR
   Willem Van den Heuvel  : Paramagnetic NMR
   Boris Wezisla          : Elementary symmetry handling
   Frank Wennmohs         : Technical directorship


 We gratefully acknowledge several colleagues who have allowed us to
 interface, adapt or use parts of their codes:
   Stefan Grimme, W. Hujo, H. Kruse,             : VdW corrections, initial TS optimization,
                  C. Bannwarth                     DFT functionals, gCP, sTDA/sTD-DF
   Ed Valeev, F. Pavosevic, A. Kumar             : LibInt (2-el integral package), F12 methods
   Garnet Chan, S. Sharma, J. Yang, R. Olivares  : DMRG
   Ulf Ekstrom                                   : XCFun DFT Library
   Mihaly Kallay                                 : mrcc  (arbitrary order and MRCC methods)
   Andreas Klamt, Michael Diedenhofen            : otool_cosmo (COSMO solvation model)
   Jiri Pittner, Ondrej Demel                    : Mk-CCSD
   Frank Weinhold                                : gennbo (NPA and NBO analysis)
   Christopher J. Cramer and Donald G. Truhlar   : smd solvation model
   Lars Goerigk                                  : TD-DFT with DH, B97 family of functionals
   V. Asgeirsson, H. Jonsson                     : NEB implementation
   FAccTs GmbH                                   : IRC, NEB, NEB-TS, Multilevel, MM, QM/MM, CI optimization
   S Lehtola, MJT Oliveira, MAL Marques          : LibXC Library


 Your calculation uses the libint2 library for the computation of 2-el integrals
 For citations please refer to: http://libint.valeyev.net

 Your ORCA version has been built with support for libXC version: 4.2.3
 For citations please refer to: https://tddft.org/programs/libxc/

 This ORCA versions uses:
   CBLAS   interface :  Fast vector & matrix operations
   LAPACKE interface :  Fast linear algebra routines
   SCALAPACK package :  Parallel linear algebra routines


Your calculation utilizes the DFT-NL dispersion correction.
Cite in your paper:
Vydrov, O. A.; Van Voorhis, T. J. Chem. Phys. 2010, 133, 244103
Hujo, W.; Grimme, S. J. Chem. Theory Comput. 2011, 7, 3866 
   

----- Orbital basis set information -----
Your calculation utilizes the basis: aug-cc-pVTZ 
    H, B-Ne : Obtained from the ccRepo (grant-hill.group.shef.ac.uk/ccrepo) Feb. 2017
              R. A. Kendall, T. H. Dunning, Jr., R. J. Harrison, J. Chem. Phys. 96, 6796 (1992)
         He : Obtained from the ccRepo (grant-hill.group.shef.ac.uk/ccrepo) Feb. 2017
              D. E. Woon, T. H. Dunning, Jr., J. Chem. Phys. 100, 2975 (1994)
  Li-Be, Na : Obtained from the ccRepo (grant-hill.group.shef.ac.uk/ccrepo) Feb. 2017
              B. P. Prascher, D. E. Woon, K. A. Peterson, T. H. Dunning, Jr., A. K. Wilson, Theor. Chem. Acc. 128, 69 (2011)
         Mg : Obtained from the Peterson Research Group Website (tyr0.chem.wsu.edu/~kipeters) Feb. 2017
              B. P. Prascher, D. E. Woon, K. A. Peterson, T. H. Dunning, Jr., A. K. Wilson, Theor. Chem. Acc. 128, 69 (2011)
      Al-Ar : Obtained from the ccRepo (grant-hill.group.shef.ac.uk/ccrepo) Feb. 2017
              D. E. Woon, T. H. Dunning, Jr., J. Chem. Phys. 98, 1358 (1993)
      Sc-Zn : Obtained from the ccRepo (grant-hill.group.shef.ac.uk/ccrepo) Feb. 2017
              N. B. Balabanov, K. A. Peterson, J. Chem. Phys. 123, 064107 (2005)
              N. B. Balabanov, K. A. Peterson, J. Chem. Phys. 125, 074110 (2006)
      Ga-Kr : Obtained from the ccRepo (grant-hill.group.shef.ac.uk/ccrepo) Feb. 2017
              A. K. Wilson, D. E. Woon, K. A. Peterson, T. H. Dunning, Jr., J. Chem. Phys. 110, 7667 (1999)
     Ag, Au : Obtained from the Peterson Research Group Website (tyr0.chem.wsu.edu/~kipeters) Feb. 2017
              K. A. Peterson, C. Puzzarini, Theor. Chem. Acc. 114, 283 (2005)

----- AuxJK basis set information -----
Your calculation utilizes the auxiliary basis: def2/JK
   H-Ba, Hf-Rn: F. Weigend, J. Comput. Chem. 29, 167 (2008).

================================================================================
                                        WARNINGS
                       Please study these warnings very carefully!
================================================================================


WARNING: your system is open-shell and RHF/RKS was chosen
  ===> : WILL SWITCH to UHF/UKS


INFO   : the flag for use of LIBINT has been found!

================================================================================
                                       INPUT FILE
================================================================================
NAME = 76_S.in
|  1> #
|  2> # 76_S wb97x-v/aug-cc-pvtz
|  3> #
|  4> ! wb97x-v aug-cc-pvtz def2/jk grid4 nofinalgrid
|  5> 
|  6> *xyz 0 3
|  7> S 0.0 0.0 0.0
|  8> *
|  9> 
| 10> %pal
| 11> nprocs 24
| 12> end
| 13> 
| 14> 
| 15>                          ****END OF INPUT****
================================================================================

                       ****************************
                       * Single Point Calculation *
                       ****************************

---------------------------------
CARTESIAN COORDINATES (ANGSTROEM)
---------------------------------
  S      0.000000    0.000000    0.000000

----------------------------
CARTESIAN COORDINATES (A.U.)
----------------------------
  NO LB      ZA    FRAG     MASS         X           Y           Z
   0 S    16.0000    0    32.060    0.000000    0.000000    0.000000

--------------------------------
INTERNAL COORDINATES (ANGSTROEM)
--------------------------------
 S      0   0   0     0.000000000000     0.00000000     0.00000000

---------------------------
INTERNAL COORDINATES (A.U.)
---------------------------
 S      0   0   0     0.000000000000     0.00000000     0.00000000

---------------------
BASIS SET INFORMATION
---------------------
There are 1 groups of distinct atoms

 Group   1 Type S   : 42s17p3d2f contracted to 6s5p3d2f pattern {131313111/77111/111/11}

Atom   0S    basis set group =>   1
----------------------------------
AUXILIARY/JK BASIS SET INFORMATION
----------------------------------
There are 1 groups of distinct atoms

 Group   1 Type S   : 16s12p10d4f1g contracted to 13s11p9d4f1g pattern {4111111111111/21111111111/211111111/1111/1}

Atom   0S    basis set group =>   1


           ************************************************************
           *        Program running with 24 parallel MPI-processes    *
           *              working on a common directory               *
           ************************************************************
------------------------------------------------------------------------------
                           ORCA GTO INTEGRAL CALCULATION
------------------------------------------------------------------------------

                         BASIS SET STATISTICS AND STARTUP INFO

 # of primitive gaussian shells          ...   64
 # of primitive gaussian functions       ...  122
 # of contracted shells                  ...   16
 # of contracted basis functions         ...   50
 Highest angular momentum                ...    3
 Maximum contraction depth               ...   13
 Integral package used                   ... LIBINT
 Integral threshhold            Thresh   ...  1.000e-10
 Primitive cut-off              TCut     ...  1.000e-11


------------------------------ INTEGRAL EVALUATION ----------------------------


 * One electron integrals 
 Pre-screening matrix                    ... done
 Shell pair data                         ... done (   0.000 sec)



           ************************************************************
           *        Program running with 24 parallel MPI-processes    *
           *              working on a common directory               *
           ************************************************************
-------------------------------------------------------------------------------
                                 ORCA SCF
-------------------------------------------------------------------------------

------------
SCF SETTINGS
------------
Hamiltonian:
 Density Functional     Method          .... DFT(GTOs)
 Exchange Functional    Exchange        .... WB97X-V
 Correlation Functional Correlation     .... WB97X-V
 Gradients option       PostSCFGGA      .... off
 Hybrid DFT is turned on
   Fraction HF Exchange ScalHFX         ....  0.167000
   Scaling of DF-GGA-X  ScalDFX         ....  0.000000
   Scaling of DF-GGA-C  ScalDFC         ....  1.000000
   Scaling of DF-LDA-C  ScalLDAC        ....  1.000000
   Perturbative correction              ....  0.000000
   Density functional embedding theory  .... OFF
 Long-range corrected/Screened/Range-Separated Hybrid DFT is turned on
   Amount of maximum screened exact exchange              ....  0.833000
   Range separation parameter mu (erf(mu*r12)/r12)        ....  0.300000
   NL short-range parameter             ....  6.000000
   NL long-range parameter              ....  0.010000


General Settings:
 Integral files         IntName         .... 76_S
 Hartree-Fock type      HFTyp           .... UHF
 Total Charge           Charge          ....    0
 Multiplicity           Mult            ....    3
 Number of Electrons    NEL             ....   16
 Basis Dimension        Dim             ....   50
 Nuclear Repulsion      ENuc            ....      0.0000000000 Eh

Convergence Acceleration:
 DIIS                   CNVDIIS         .... on
   Start iteration      DIISMaxIt       ....    12
   Startup error        DIISStart       ....  0.200000
   # of expansion vecs  DIISMaxEq       ....     5
   Bias factor          DIISBfac        ....   1.050
   Max. coefficient     DIISMaxC        ....  10.000
 Newton-Raphson         CNVNR           .... off
 SOSCF                  CNVSOSCF        .... off
 Level Shifting         CNVShift        .... on
   Level shift para.    LevelShift      ....    0.2500
   Turn off err/grad.   ShiftErr        ....    0.0010
 Zerner damping         CNVZerner       .... off
 Static damping         CNVDamp         .... on
   Fraction old density DampFac         ....    0.7000
   Max. Damping (<1)    DampMax         ....    0.9800
   Min. Damping (>=0)   DampMin         ....    0.0000
   Turn off err/grad.   DampErr         ....    0.1000
 Fernandez-Rico         CNVRico         .... off

SCF Procedure:
 Maximum # iterations   MaxIter         ....   125
 SCF integral mode      SCFMode         .... Direct
   Integral package                     .... LIBINT
 Reset frequency        DirectResetFreq ....    20
 Integral Threshold     Thresh          ....  1.000e-10 Eh
 Primitive CutOff       TCut            ....  1.000e-11 Eh

Convergence Tolerance:
 Convergence Check Mode ConvCheckMode   .... Total+1el-Energy
 Convergence forced     ConvForced      .... 0
 Energy Change          TolE            ....  1.000e-06 Eh
 1-El. energy change                    ....  1.000e-03 Eh
 DIIS Error             TolErr          ....  1.000e-06


Diagonalization of the overlap matrix:
Smallest eigenvalue                        ... 1.216e-02
Time for diagonalization                   ...    0.002 sec
Threshold for overlap eigenvalues          ... 1.000e-08
Number of eigenvalues below threshold      ... 0
Time for construction of square roots      ...    0.001 sec
Total time needed                          ...    0.003 sec

-------------------
DFT GRID GENERATION
-------------------

General Integration Accuracy     IntAcc      ...  4.670
Radial Grid Type                 RadialGrid  ... Gauss-Chebyshev
Angular Grid (max. acc.)         AngularGrid ... Lebedev-302
Angular grid pruning method      GridPruning ... 3 (G Style)
Weight generation scheme         WeightScheme... Becke
Basis function cutoff            BFCut       ...    1.0000e-10
Integration weight cutoff        WCut        ...    1.0000e-14
Grids for H and He will be reduced by one unit

# of grid points (after initial pruning)     ...   6846 (   0.0 sec)
# of grid points (after weights+screening)   ...   6846 (   0.0 sec)
Grid point division into batches done        ...    0.0 sec
Reduced shell lists constructed in    0.0 sec

Total number of grid points                  ...     6846
Total number of batches                      ...      107
Average number of points per batch           ...       63
Average number of grid points per atom       ...     6846
Average number of shells per batch           ...     4.17 (26.04%)
Average number of basis functions per batch  ...    10.83 (21.67%)
Average number of large shells per batch     ...     3.33 (80.00%)
Average number of large basis fcns per batch ...    10.00 (92.31%)
Maximum spatial batch extension              ...  17.78, 17.78, 17.78 au
Average spatial batch extension              ...   0.72,  0.72,  0.74 au

Time for grid setup =    0.064 sec

------------------------------
INITIAL GUESS: MODEL POTENTIAL
------------------------------
Loading Hartree-Fock densities                     ... done
Calculating cut-offs                               ... done
Setting up the integral package                    ... done
Initializing the effective Hamiltonian             ... done
Starting the Coulomb interaction                   ... done (   0.0 sec)
Reading the grid                                   ... done
Mapping shells                                     ... done
Starting the XC term evaluation                    ... done (   0.0 sec)
  promolecular density results
     # of electrons  =     16.000000228
     EX              =    -18.480801485
     EC              =     -0.813910637
     EX+EC           =    -19.294712122
Transforming the Hamiltonian                       ... done (   0.0 sec)
Diagonalizing the Hamiltonian                      ... done (   0.0 sec)
Back transforming the eigenvectors                 ... done (   0.0 sec)
Now organizing SCF variables                       ... done
                      ------------------
                      INITIAL GUESS DONE (   0.2 sec)
                      ------------------
--------------
SCF ITERATIONS
--------------
ITER       Energy         Delta-E        Max-DP      RMS-DP      [F,P]     Damp
               ***  Starting incremental Fock matrix formation  ***
  0   -398.0066727947   0.000000000000 0.02797149  0.00139314  0.2304700 0.7000
  1   -398.0453295282  -0.038656733579 0.02340788  0.00112431  0.1399607 0.7000
                               ***Turning on DIIS***
  2   -398.0704253411  -0.025095812839 0.06279313  0.00263708  0.0854816 0.0000
  3   -398.1205397213  -0.050114380203 0.01802296  0.00077735  0.0323614 0.0000
  4   -398.1234406934  -0.002900972145 0.01201286  0.00038533  0.0067226 0.0000
  5   -398.1237855037  -0.000344810310 0.00343390  0.00013653  0.0025448 0.0000
  6   -398.1238417235  -0.000056219760 0.00141001  0.00005765  0.0010993 0.0000
  7   -398.1238517359  -0.000010012433 0.00080958  0.00002914  0.0004112 0.0000
  8   -398.1238532319  -0.000001495928 0.00003841  0.00000185  0.0000174 0.0000
                 **** Energy Check signals convergence ****

               *****************************************************
               *                     SUCCESS                       *
               *           SCF CONVERGED AFTER   9 CYCLES          *
               *****************************************************


Setting up the DFT-NL grid :

General Integration Accuracy     IntAcc      ...  4.340
Radial Grid Type                 RadialGrid  ... Gauss-Chebyshev
Angular Grid (max. acc.)         AngularGrid ... Lebedev-110
Angular grid pruning method      GridPruning ... 3 (G Style)
Weight generation scheme         WeightScheme... Becke
Basis function cutoff            BFCut       ...    1.0000e-10
Integration weight cutoff        WCut        ...    1.0000e-14
Grids for H and He will be reduced by one unit

# of grid points (after initial pruning)     ...   1806 (   0.0 sec)
# of grid points (after weights+screening)   ...   1806 (   0.0 sec)
Grid point division into batches done        ...    0.0 sec
Reduced shell lists constructed in    0.0 sec

Total number of grid points                  ...     1806
Total number of batches                      ...       29
Average number of points per batch           ...       62
Average number of grid points per atom       ...     1806
Average number of shells per batch           ...    10.67 (66.67%)
Average number of basis functions per batch  ...    33.33 (66.67%)
Average number of large shells per batch     ...     7.33 (68.75%)
Average number of large basis fcns per batch ...    26.00 (78.00%)
Maximum spatial batch extension              ...  16.21, 29.83, 29.83 au
Average spatial batch extension              ...   1.12,  2.06,  2.06 au

Final grid set up in    0.0 sec

-------------------------------------------------------------------------------
                         DFT-NL dispersion correction                          
-------------------------------------------------------------------------------

SC Energy -398.123853247 
NL    Energy 0.068687306 
SC+NL Energy -398.055165941 
NL done in    0.0 sec
-------------------------------------------------------------------------------

----------------
TOTAL SCF ENERGY
----------------

Total Energy       :         -398.05516594 Eh          -10831.63173 eV

Components:
Nuclear Repulsion  :            0.00000000 Eh               0.00000 eV
Electronic Energy  :         -398.05516594 Eh          -10831.63173 eV
One Electron Energy:         -549.36221123 Eh          -14948.90576 eV
Two Electron Energy:          151.30704529 Eh            4117.27402 eV

Virial components:
Potential Energy   :         -795.02898761 Eh          -21633.83860 eV
Kinetic Energy     :          396.97382167 Eh           10802.20686 eV
Virial Ratio       :            2.00272397


DFT components:
N(Alpha)           :        8.999999929287 electrons
N(Beta)            :        6.999999926986 electrons
N(Total)           :       15.999999856272 electrons
E(X)               :      -18.511274236760 Eh       
E(C)               :       -0.793312133168 Eh       
NL Energy, E(C,NL) :        0.068687305648 Eh       
E(XC)              :      -19.235899064280 Eh       
DFET-embed. en.    :        0.000000000000 Eh       

---------------
SCF CONVERGENCE
---------------

  Last Energy change         ...   -1.4922e-08  Tolerance :   1.0000e-06
  Last MAX-Density change    ...    1.4312e-05  Tolerance :   1.0000e-05
  Last RMS-Density change    ...    6.4212e-07  Tolerance :   1.0000e-06
  Last DIIS Error            ...    4.0273e-06  Tolerance :   1.0000e-06

             **** THE GBW FILE WAS UPDATED (76_S.gbw) ****
             **** DENSITY FILE WAS UPDATED (76_S.scfp) ****
             **** ENERGY FILE WAS UPDATED (76_S.en.tmp) ****
----------------------
UHF SPIN CONTAMINATION
----------------------

Warning: in a DFT calculation there is little theoretical justification to 
         calculate <S**2> as in Hartree-Fock theory. We will do it anyways
         but you should keep in mind that the values have only limited relevance

Expectation value of <S**2>     :     2.003802
Ideal value S*(S+1) for S=1.0   :     2.000000
Deviation                       :     0.003802

             **** THE GBW FILE WAS UPDATED (76_S.gbw) ****
             **** DENSITY FILE WAS UPDATED (76_S.scfp) ****
----------------
ORBITAL ENERGIES
----------------
                 SPIN UP ORBITALS
  NO   OCC          E(Eh)            E(eV) 
   0   1.0000     -88.952177     -2420.5118 
   1   1.0000      -8.104108      -220.5240 
   2   1.0000      -6.066174      -165.0690 
   3   1.0000      -6.066174      -165.0690 
   4   1.0000      -6.047269      -164.5546 
   5   1.0000      -0.855042       -23.2669 
   6   1.0000      -0.439539       -11.9605 
   7   1.0000      -0.439539       -11.9605 
   8   1.0000      -0.393614       -10.7108 
   9   0.0000       0.088381         2.4050 
  10   0.0000       0.088381         2.4050 
  11   0.0000       0.089484         2.4350 
  12   0.0000       0.095619         2.6019 
  13   0.0000       0.223054         6.0696 
  14   0.0000       0.223054         6.0696 
  15   0.0000       0.235351         6.4042 
  16   0.0000       0.235351         6.4042 
  17   0.0000       0.239440         6.5155 
  18   0.0000       0.472960        12.8699 
  19   0.0000       0.472960        12.8699 
  20   0.0000       0.493052        13.4166 
  21   0.0000       0.597780        16.2664 
  22   0.0000       0.597780        16.2664 
  23   0.0000       0.623405        16.9637 
  24   0.0000       0.623405        16.9637 
  25   0.0000       0.632786        17.2190 
  26   0.0000       0.658386        17.9156 
  27   0.0000       0.771011        20.9803 
  28   0.0000       0.771011        20.9803 
  29   0.0000       0.782260        21.2864 
  30   0.0000       0.782260        21.2864 
  31   0.0000       0.788993        21.4696 
  32   0.0000       0.788993        21.4696 
  33   0.0000       0.791591        21.5403 
  34   0.0000       1.780592        48.4524 
  35   0.0000       1.780592        48.4524 
  36   0.0000       1.807796        49.1926 
  37   0.0000       1.807796        49.1926 
  38   0.0000       1.817658        49.4610 
  39   0.0000       2.080187        56.6048 
  40   0.0000       2.080187        56.6048 
  41   0.0000       2.102931        57.2237 
  42   0.0000       2.102931        57.2237 
  43   0.0000       2.115162        57.5565 
  44   0.0000       2.127912        57.9034 
  45   0.0000       2.127912        57.9034 
  46   0.0000       2.143484        58.3272 
  47   0.0000       2.143484        58.3272 
  48   0.0000       2.149207        58.4829 
  49   0.0000       3.820648       103.9651 

                 SPIN DOWN ORBITALS
  NO   OCC          E(Eh)            E(eV) 
   0   1.0000     -88.942546     -2420.2497 
   1   1.0000      -8.094940      -220.2745 
   2   1.0000      -6.046635      -164.5373 
   3   1.0000      -6.046635      -164.5373 
   4   1.0000      -6.040892      -164.3810 
   5   1.0000      -0.749319       -20.3900 
   6   1.0000      -0.366375        -9.9696 
   7   0.0000      -0.087521        -2.3816 
   8   0.0000      -0.087521        -2.3816 
   9   0.0000       0.097723         2.6592 
  10   0.0000       0.098713         2.6861 
  11   0.0000       0.102107         2.7785 
  12   0.0000       0.102122         2.7789 
  13   0.0000       0.248268         6.7557 
  14   0.0000       0.248269         6.7557 
  15   0.0000       0.249537         6.7903 
  16   0.0000       0.250943         6.8285 
  17   0.0000       0.250945         6.8286 
  18   0.0000       0.500994        13.6327 
  19   0.0000       0.502565        13.6755 
  20   0.0000       0.502569        13.6756 
  21   0.0000       0.662518        18.0280 
  22   0.0000       0.662615        18.0307 
  23   0.0000       0.662616        18.0307 
  24   0.0000       0.666442        18.1348 
  25   0.0000       0.666443        18.1348 
  26   0.0000       0.683718        18.6049 
  27   0.0000       0.780849        21.2480 
  28   0.0000       0.780851        21.2480 
  29   0.0000       0.790127        21.5004 
  30   0.0000       0.790127        21.5005 
  31   0.0000       0.793751        21.5991 
  32   0.0000       0.793752        21.5991 
  33   0.0000       0.795688        21.6518 
  34   0.0000       1.838475        50.0274 
  35   0.0000       1.838475        50.0274 
  36   0.0000       1.841830        50.1187 
  37   0.0000       1.841830        50.1187 
  38   0.0000       1.844361        50.1876 
  39   0.0000       2.129053        57.9345 
  40   0.0000       2.129054        57.9345 
  41   0.0000       2.132448        58.0268 
  42   0.0000       2.176549        59.2269 
  43   0.0000       2.176550        59.2269 
  44   0.0000       2.178882        59.2904 
  45   0.0000       2.178882        59.2904 
  46   0.0000       2.181120        59.3513 
  47   0.0000       2.181121        59.3513 
  48   0.0000       2.183242        59.4090 
  49   0.0000       3.847266       104.6894 

                    ********************************
                    * MULLIKEN POPULATION ANALYSIS *
                    ********************************

--------------------------------------------
MULLIKEN ATOMIC CHARGES AND SPIN POPULATIONS
--------------------------------------------
   0 S :   -0.000000    2.000000
Sum of atomic charges         :   -0.0000000
Sum of atomic spin populations:    2.0000000

-----------------------------------------------------
MULLIKEN REDUCED ORBITAL CHARGES AND SPIN POPULATIONS
-----------------------------------------------------
CHARGE
  0 S s       :     5.998594  s :     5.998594
      pz      :     3.240554  p :     9.999197
      px      :     3.000356
      py      :     3.758286
      dz2     :     0.000027  d :     0.001406
      dxz     :     0.000001
      dyz     :     0.000770
      dx2y2   :     0.000606
      dxy     :     0.000002
      f0      :     0.000074  f :     0.000803
      f+1     :     0.000001
      f-1     :     0.000184
      f+2     :     0.000198
      f-2     :     0.000100
      f+3     :     0.000118
      f-3     :     0.000128

SPIN
  0 S s       :    -0.000683  s :    -0.000683
      pz      :     0.758944  p :     1.999224
      px      :     0.999207
      py      :     0.241073
      dz2     :     0.000013  d :     0.000683
      dxz     :     0.000000
      dyz     :     0.000374
      dx2y2   :     0.000294
      dxy     :     0.000001
      f0      :     0.000068  f :     0.000776
      f+1     :     0.000001
      f-1     :     0.000183
      f+2     :     0.000184
      f-2     :     0.000100
      f+3     :     0.000118
      f-3     :     0.000121


                     *******************************
                     * LOEWDIN POPULATION ANALYSIS *
                     *******************************

-------------------------------------------
LOEWDIN ATOMIC CHARGES AND SPIN POPULATIONS
-------------------------------------------
   0 S :    0.000000    2.000000

----------------------------------------------------
LOEWDIN REDUCED ORBITAL CHARGES AND SPIN POPULATIONS
----------------------------------------------------
CHARGE
  0 S s       :     5.998594  s :     5.998594
      pz      :     3.240554  p :     9.999197
      px      :     3.000356
      py      :     3.758286
      dz2     :     0.000027  d :     0.001406
      dxz     :     0.000001
      dyz     :     0.000770
      dx2y2   :     0.000606
      dxy     :     0.000002
      f0      :     0.000074  f :     0.000803
      f+1     :     0.000001
      f-1     :     0.000184
      f+2     :     0.000198
      f-2     :     0.000100
      f+3     :     0.000118
      f-3     :     0.000128

SPIN
  0 S s       :    -0.000683  s :    -0.000683
      pz      :     0.758944  p :     1.999224
      px      :     0.999207
      py      :     0.241073
      dz2     :     0.000013  d :     0.000683
      dxz     :     0.000000
      dyz     :     0.000374
      dx2y2   :     0.000294
      dxy     :     0.000001
      f0      :     0.000068  f :     0.000776
      f+1     :     0.000001
      f-1     :     0.000183
      f+2     :     0.000184
      f-2     :     0.000100
      f+3     :     0.000118
      f-3     :     0.000121


                      *****************************
                      * MAYER POPULATION ANALYSIS *
                      *****************************

  NA   - Mulliken gross atomic population
  ZA   - Total nuclear charge
  QA   - Mulliken gross atomic charge
  VA   - Mayer's total valence
  BVA  - Mayer's bonded valence
  FA   - Mayer's free valence

  ATOM       NA         ZA         QA         VA         BVA        FA
  0 S     16.0000    16.0000    -0.0000     2.0076     0.0000     2.0076

  Mayer bond orders larger than 0.100000


-------
TIMINGS
-------

Total SCF time: 0 days 0 hours 0 min 2 sec 

Total time                  ....       2.690 sec
Sum of individual times     ....       2.460 sec  ( 91.4%)

Fock matrix formation       ....       2.257 sec  ( 83.9%)
  XC integration            ....       0.073 sec  (  3.2% of F)
    Basis function eval.    ....       0.006 sec  (  8.8% of XC)
    Density eval.           ....       0.007 sec  (  9.0% of XC)
    XC-Functional eval.     ....       0.005 sec  (  6.8% of XC)
    XC-Potential eval.      ....       0.005 sec  (  7.5% of XC)
Diagonalization             ....       0.008 sec  (  0.3%)
Density matrix formation    ....       0.004 sec  (  0.1%)
Population analysis         ....       0.003 sec  (  0.1%)
Initial guess               ....       0.111 sec  (  4.1%)
Orbital Transformation      ....       0.000 sec  (  0.0%)
Orbital Orthonormalization  ....       0.000 sec  (  0.0%)
DIIS solution               ....       0.007 sec  (  0.3%)
Grid generation             ....       0.070 sec  (  2.6%)

-------------------------   --------------------
FINAL SINGLE POINT ENERGY      -398.055165941138
-------------------------   --------------------


                            ***************************************
                            *     ORCA property calculations      *
                            ***************************************

                                    ---------------------
                                    Active property flags
                                    ---------------------
   (+) Dipole Moment


------------------------------------------------------------------------------
                       ORCA ELECTRIC PROPERTIES CALCULATION
------------------------------------------------------------------------------

Dipole Moment Calculation                       ... on
Quadrupole Moment Calculation                   ... off
Polarizability Calculation                      ... off
GBWName                                         ... 76_S.gbw
Electron density file                           ... 76_S.scfp
The origin for moment calculation is the CENTER OF MASS  = ( 0.000000,  0.000000  0.000000)

-------------
DIPOLE MOMENT
-------------
                                X             Y             Z
Electronic contribution:      0.00000      -0.00000      -0.00000
Nuclear contribution   :      0.00000       0.00000       0.00000
                        -----------------------------------------
Total Dipole Moment    :      0.00000      -0.00000      -0.00000
                        -----------------------------------------
Magnitude (a.u.)       :      0.00000
Magnitude (Debye)      :      0.00000



--------------------
Rotational spectrum 
--------------------
 
Rotational constants in cm-1:     0.000000     0.000000     0.000000 
Rotational constants in MHz :     0.000000     0.000000     0.000000 

 Dipole components along the rotational axes: 
x,y,z [a.u.] :     0.000000    -0.000000    -0.000000 
x,y,z [Debye]:     0.000000    -0.000000    -0.000000 

 

Timings for individual modules:

Sum of individual times         ...        3.889 sec (=   0.065 min)
GTO integral calculation        ...        0.756 sec (=   0.013 min)  19.4 %
SCF iterations                  ...        3.133 sec (=   0.052 min)  80.6 %
                             ****ORCA TERMINATED NORMALLY****
TOTAL RUN TIME: 0 days 0 hours 0 minutes 4 seconds 358 msec
