
                                 *****************
                                 * O   R   C   A *
                                 *****************

           --- An Ab Initio, DFT and Semiempirical electronic structure package ---

                  #######################################################
                  #                        -***-                        #
                  #          Department of theory and spectroscopy      #
                  #               Directorship: Frank Neese             #
                  #        Max Planck Institute fuer Kohlenforschung    #
                  #                Kaiser Wilhelm Platz 1               #
                  #                 D-45470 Muelheim/Ruhr               #
                  #                      Germany                        #
                  #                                                     #
                  #                  All rights reserved                #
                  #                        -***-                        #
                  #######################################################


                         Program Version 4.2.0 -  RELEASE  -


 With contributions from (in alphabetic order):
   Daniel Aravena         : Magnetic Suceptibility
   Michael Atanasov       : Ab Initio Ligand Field Theory (pilot matlab implementation)
   Alexander A. Auer      : GIAO ZORA, VPT2
   Ute Becker             : Parallelization
   Giovanni Bistoni       : ED, misc. LED, open-shell LED, HFLED
   Martin Brehm           : Molecular dynamics
   Dmytro Bykov           : SCF Hessian
   Vijay G. Chilkuri      : MRCI spin determinant printing, contributions to CSF-ICE
   Dipayan Datta          : RHF DLPNO-CCSD density
   Achintya Kumar Dutta   : EOM-CC, STEOM-CC
   Dmitry Ganyushin       : Spin-Orbit,Spin-Spin,Magnetic field MRCI
   Miquel Garcia          : C-PCM Hessian, Gaussian charge scheme
   Yang Guo               : DLPNO-NEVPT2, CIM, IAO-localization
   Andreas Hansen         : Spin unrestricted coupled pair/coupled cluster methods
   Benjamin Helmich-Paris : CASSCF linear response (MC-RPA)
   Lee Huntington         : MR-EOM, pCC
   Robert Izsak           : Overlap fitted RIJCOSX, COSX-SCS-MP3, EOM
   Christian Kollmar      : KDIIS, OOCD, Brueckner-CCSD(T), CCSD density
   Simone Kossmann        : Meta GGA functionals, TD-DFT gradient, OOMP2, MP2 Hessian
   Martin Krupicka        : AUTO-CI
   Lucas Lang             : DCDCAS
   Dagmar Lenk            : GEPOL surface, SMD
   Dimitrios Liakos       : Extrapolation schemes; Compound Job, initial MDCI parallelization
   Dimitrios Manganas     : Further ROCIS development; embedding schemes
   Dimitrios Pantazis     : SARC Basis sets
   Taras Petrenko         : DFT Hessian,TD-DFT gradient, ASA, ECA, R-Raman, ABS, FL, XAS/XES, NRVS
   Peter Pinski           : DLPNO-MP2, DLPNO-MP2 Gradient
   Christoph Reimann      : Effective Core Potentials
   Marius Retegan         : Local ZFS, SOC
   Christoph Riplinger    : Optimizer, TS searches, QM/MM, DLPNO-CCSD(T), (RO)-DLPNO pert. Triples
   Tobias Risthaus        : Range-separated hybrids, TD-DFT gradient, RPA, STAB
   Michael Roemelt        : Original ROCIS implementation
   Masaaki Saitow         : Open-shell DLPNO-CCSD energy and density
   Barbara Sandhoefer     : DKH picture change effects
   Avijit Sen             : IP-ROCIS
   Kantharuban Sivalingam : CASSCF convergence, NEVPT2, FIC-MRCI
   Bernardo de Souza      : ESD, SOC TD-DFT
   Georgi Stoychev        : AutoAux, RI-MP2 NMR
   Willem Van den Heuvel  : Paramagnetic NMR
   Boris Wezisla          : Elementary symmetry handling
   Frank Wennmohs         : Technical directorship


 We gratefully acknowledge several colleagues who have allowed us to
 interface, adapt or use parts of their codes:
   Stefan Grimme, W. Hujo, H. Kruse,             : VdW corrections, initial TS optimization,
                  C. Bannwarth                     DFT functionals, gCP, sTDA/sTD-DF
   Ed Valeev, F. Pavosevic, A. Kumar             : LibInt (2-el integral package), F12 methods
   Garnet Chan, S. Sharma, J. Yang, R. Olivares  : DMRG
   Ulf Ekstrom                                   : XCFun DFT Library
   Mihaly Kallay                                 : mrcc  (arbitrary order and MRCC methods)
   Andreas Klamt, Michael Diedenhofen            : otool_cosmo (COSMO solvation model)
   Jiri Pittner, Ondrej Demel                    : Mk-CCSD
   Frank Weinhold                                : gennbo (NPA and NBO analysis)
   Christopher J. Cramer and Donald G. Truhlar   : smd solvation model
   Lars Goerigk                                  : TD-DFT with DH, B97 family of functionals
   V. Asgeirsson, H. Jonsson                     : NEB implementation
   FAccTs GmbH                                   : IRC, NEB, NEB-TS, Multilevel, MM, QM/MM, CI optimization
   S Lehtola, MJT Oliveira, MAL Marques          : LibXC Library


 Your calculation uses the libint2 library for the computation of 2-el integrals
 For citations please refer to: http://libint.valeyev.net

 Your ORCA version has been built with support for libXC version: 4.2.3
 For citations please refer to: https://tddft.org/programs/libxc/

 This ORCA versions uses:
   CBLAS   interface :  Fast vector & matrix operations
   LAPACKE interface :  Fast linear algebra routines
   SCALAPACK package :  Parallel linear algebra routines


Your calculation utilizes the DFT-NL dispersion correction.
Cite in your paper:
Vydrov, O. A.; Van Voorhis, T. J. Chem. Phys. 2010, 133, 244103
Hujo, W.; Grimme, S. J. Chem. Theory Comput. 2011, 7, 3866 
   

----- Orbital basis set information -----
Your calculation utilizes the basis: aug-cc-pVTZ 
    H, B-Ne : Obtained from the ccRepo (grant-hill.group.shef.ac.uk/ccrepo) Feb. 2017
              R. A. Kendall, T. H. Dunning, Jr., R. J. Harrison, J. Chem. Phys. 96, 6796 (1992)
         He : Obtained from the ccRepo (grant-hill.group.shef.ac.uk/ccrepo) Feb. 2017
              D. E. Woon, T. H. Dunning, Jr., J. Chem. Phys. 100, 2975 (1994)
  Li-Be, Na : Obtained from the ccRepo (grant-hill.group.shef.ac.uk/ccrepo) Feb. 2017
              B. P. Prascher, D. E. Woon, K. A. Peterson, T. H. Dunning, Jr., A. K. Wilson, Theor. Chem. Acc. 128, 69 (2011)
         Mg : Obtained from the Peterson Research Group Website (tyr0.chem.wsu.edu/~kipeters) Feb. 2017
              B. P. Prascher, D. E. Woon, K. A. Peterson, T. H. Dunning, Jr., A. K. Wilson, Theor. Chem. Acc. 128, 69 (2011)
      Al-Ar : Obtained from the ccRepo (grant-hill.group.shef.ac.uk/ccrepo) Feb. 2017
              D. E. Woon, T. H. Dunning, Jr., J. Chem. Phys. 98, 1358 (1993)
      Sc-Zn : Obtained from the ccRepo (grant-hill.group.shef.ac.uk/ccrepo) Feb. 2017
              N. B. Balabanov, K. A. Peterson, J. Chem. Phys. 123, 064107 (2005)
              N. B. Balabanov, K. A. Peterson, J. Chem. Phys. 125, 074110 (2006)
      Ga-Kr : Obtained from the ccRepo (grant-hill.group.shef.ac.uk/ccrepo) Feb. 2017
              A. K. Wilson, D. E. Woon, K. A. Peterson, T. H. Dunning, Jr., J. Chem. Phys. 110, 7667 (1999)
     Ag, Au : Obtained from the Peterson Research Group Website (tyr0.chem.wsu.edu/~kipeters) Feb. 2017
              K. A. Peterson, C. Puzzarini, Theor. Chem. Acc. 114, 283 (2005)

----- AuxJK basis set information -----
Your calculation utilizes the auxiliary basis: def2/JK
   H-Ba, Hf-Rn: F. Weigend, J. Comput. Chem. 29, 167 (2008).

================================================================================
                                        WARNINGS
                       Please study these warnings very carefully!
================================================================================


INFO   : the flag for use of LIBINT has been found!

================================================================================
                                       INPUT FILE
================================================================================
NAME = 01_ScH.in
|  1> #
|  2> # 01_ScH wb97m-v/aug-cc-pvtz
|  3> #
|  4> ! wb97m-v aug-cc-pvtz def2/jk grid4 nofinalgrid
|  5> 
|  6> *xyz 0 1
|  7>   Sc  0.00000000000000      0.00000000000000      0.11546868383427
|  8>   H   0.00000000000000      0.00000000000000      1.88453131616573
|  9> *
| 10> 
| 11> %pal
| 12> nprocs 24
| 13> end
| 14> 
| 15> 
| 16>                          ****END OF INPUT****
================================================================================

                       ****************************
                       * Single Point Calculation *
                       ****************************

---------------------------------
CARTESIAN COORDINATES (ANGSTROEM)
---------------------------------
  Sc     0.000000    0.000000    0.115469
  H      0.000000    0.000000    1.884531

----------------------------
CARTESIAN COORDINATES (A.U.)
----------------------------
  NO LB      ZA    FRAG     MASS         X           Y           Z
   0 Sc   21.0000    0    44.960    0.000000    0.000000    0.218204
   1 H     1.0000    0     1.008    0.000000    0.000000    3.561248

--------------------------------
INTERNAL COORDINATES (ANGSTROEM)
--------------------------------
 Sc     0   0   0     0.000000000000     0.00000000     0.00000000
 H      1   0   0     1.769062632331     0.00000000     0.00000000

---------------------------
INTERNAL COORDINATES (A.U.)
---------------------------
 Sc     0   0   0     0.000000000000     0.00000000     0.00000000
 H      1   0   0     3.343043888860     0.00000000     0.00000000

---------------------
BASIS SET INFORMATION
---------------------
There are 2 groups of distinct atoms

 Group   1 Type Sc  : 116s77p23d3f2g contracted to 8s7p5d3f2g pattern {19191919191911/151515151511/77711/111/11}
 Group   2 Type H   : 6s3p2d contracted to 4s3p2d pattern {3111/111/11}

Atom   0Sc   basis set group =>   1
Atom   1H    basis set group =>   2
----------------------------------
AUXILIARY/JK BASIS SET INFORMATION
----------------------------------
There are 2 groups of distinct atoms

 Group   1 Type Sc  : 19s14p12d10f7g3h1i contracted to 16s13p11d9f5g3h1i pattern {4111111111111111/2111111111111/21111111111/211111111/31111/111/1}
 Group   2 Type H   : 4s2p2d contracted to 2s2p2d pattern {31/11/11}

Atom   0Sc   basis set group =>   1
Atom   1H    basis set group =>   2


           ************************************************************
           *        Program running with 24 parallel MPI-processes    *
           *              working on a common directory               *
           ************************************************************
------------------------------------------------------------------------------
                           ORCA GTO INTEGRAL CALCULATION
------------------------------------------------------------------------------

                         BASIS SET STATISTICS AND STARTUP INFO

 # of primitive gaussian shells          ...  232
 # of primitive gaussian functions       ...  526
 # of contracted shells                  ...   34
 # of contracted basis functions         ...  116
 Highest angular momentum                ...    4
 Maximum contraction depth               ...   19
 Integral package used                   ... LIBINT
 Integral threshhold            Thresh   ...  1.000e-10
 Primitive cut-off              TCut     ...  1.000e-11


------------------------------ INTEGRAL EVALUATION ----------------------------


 * One electron integrals 
 Pre-screening matrix                    ... done
 Shell pair data                         ... done (   0.001 sec)



           ************************************************************
           *        Program running with 24 parallel MPI-processes    *
           *              working on a common directory               *
           ************************************************************
-------------------------------------------------------------------------------
                                 ORCA SCF
-------------------------------------------------------------------------------

------------
SCF SETTINGS
------------
Hamiltonian:
 Density Functional     Method          .... DFT(GTOs)
 Exchange Functional    Exchange        .... WB97M-V
 Correlation Functional Correlation     .... WB97M-V
 Gradients option       PostSCFGGA      .... off
 Hybrid DFT is turned on
   Fraction HF Exchange ScalHFX         ....  0.150000
   Scaling of DF-GGA-X  ScalDFX         ....  0.000000
   Scaling of DF-GGA-C  ScalDFC         ....  1.000000
   Scaling of DF-LDA-C  ScalLDAC        ....  1.000000
   Perturbative correction              ....  0.000000
   Density functional embedding theory  .... OFF
 Long-range corrected/Screened/Range-Separated Hybrid DFT is turned on
   Amount of maximum screened exact exchange              ....  0.850000
   Range separation parameter mu (erf(mu*r12)/r12)        ....  0.300000
   NL short-range parameter             ....  6.000000
   NL long-range parameter              ....  0.010000


General Settings:
 Integral files         IntName         .... 01_ScH
 Hartree-Fock type      HFTyp           .... RHF
 Total Charge           Charge          ....    0
 Multiplicity           Mult            ....    1
 Number of Electrons    NEL             ....   22
 Basis Dimension        Dim             ....  116
 Nuclear Repulsion      ENuc            ....      6.2817003600 Eh

Convergence Acceleration:
 DIIS                   CNVDIIS         .... on
   Start iteration      DIISMaxIt       ....    12
   Startup error        DIISStart       ....  0.200000
   # of expansion vecs  DIISMaxEq       ....     5
   Bias factor          DIISBfac        ....   1.050
   Max. coefficient     DIISMaxC        ....  10.000
 Newton-Raphson         CNVNR           .... off
 SOSCF                  CNVSOSCF        .... off
 Level Shifting         CNVShift        .... on
   Level shift para.    LevelShift      ....    0.2500
   Turn off err/grad.   ShiftErr        ....    0.0010
 Zerner damping         CNVZerner       .... off
 Static damping         CNVDamp         .... on
   Fraction old density DampFac         ....    0.7000
   Max. Damping (<1)    DampMax         ....    0.9800
   Min. Damping (>=0)   DampMin         ....    0.0000
   Turn off err/grad.   DampErr         ....    0.1000
 Fernandez-Rico         CNVRico         .... off

SCF Procedure:
 Maximum # iterations   MaxIter         ....   125
 SCF integral mode      SCFMode         .... Direct
   Integral package                     .... LIBINT
 Reset frequency        DirectResetFreq ....    20
 Integral Threshold     Thresh          ....  1.000e-10 Eh
 Primitive CutOff       TCut            ....  1.000e-11 Eh

Convergence Tolerance:
 Convergence Check Mode ConvCheckMode   .... Total+1el-Energy
 Convergence forced     ConvForced      .... 0
 Energy Change          TolE            ....  1.000e-06 Eh
 1-El. energy change                    ....  1.000e-03 Eh
 DIIS Error             TolErr          ....  1.000e-06


Diagonalization of the overlap matrix:
Smallest eigenvalue                        ... 9.578e-05
Time for diagonalization                   ...    0.003 sec
Threshold for overlap eigenvalues          ... 1.000e-08
Number of eigenvalues below threshold      ... 0
Time for construction of square roots      ...    0.002 sec
Total time needed                          ...    0.005 sec

-------------------
DFT GRID GENERATION
-------------------

General Integration Accuracy     IntAcc      ...  4.670
Radial Grid Type                 RadialGrid  ... Gauss-Chebyshev
Angular Grid (max. acc.)         AngularGrid ... Lebedev-302
Angular grid pruning method      GridPruning ... 3 (G Style)
Weight generation scheme         WeightScheme... Becke
Basis function cutoff            BFCut       ...    1.0000e-10
Integration weight cutoff        WCut        ...    1.0000e-14
Grids for H and He will be reduced by one unit

# of grid points (after initial pruning)     ...  13058 (   0.0 sec)
# of grid points (after weights+screening)   ...  13010 (   0.0 sec)
nearest neighbour list constructed           ...    0.0 sec
Grid point re-assignment to atoms done       ...    0.0 sec
Grid point division into batches done        ...    0.1 sec
Reduced shell lists constructed in    0.1 sec

Total number of grid points                  ...    13010
Total number of batches                      ...      205
Average number of points per batch           ...       63
Average number of grid points per atom       ...     6505
Average number of shells per batch           ...    20.40 (60.00%)
Average number of basis functions per batch  ...    64.40 (55.52%)
Average number of large shells per batch     ...    12.80 (62.75%)
Average number of large basis fcns per batch ...    40.20 (62.42%)
Maximum spatial batch extension              ...  34.02, 30.95, 20.21 au
Average spatial batch extension              ...   1.11,  1.02,  0.78 au

Time for grid setup =    0.122 sec

------------------------------
INITIAL GUESS: MODEL POTENTIAL
------------------------------
Loading Hartree-Fock densities                     ... done
Calculating cut-offs                               ... done
Setting up the integral package                    ... done
Initializing the effective Hamiltonian             ... done
Starting the Coulomb interaction                   ... done (   0.0 sec)
Reading the grid                                   ... done
Mapping shells                                     ... done
Starting the XC term evaluation                    ... done (   0.0 sec)
  promolecular density results
     # of electrons  =     21.999526694
     EX              =    -38.126921686
     EC              =     -0.852980859
     EX+EC           =    -38.979902545
Transforming the Hamiltonian                       ... done (   0.0 sec)
Diagonalizing the Hamiltonian                      ... done (   0.0 sec)
Back transforming the eigenvectors                 ... done (   0.0 sec)
Now organizing SCF variables                       ... done
                      ------------------
                      INITIAL GUESS DONE (   0.2 sec)
                      ------------------
--------------
SCF ITERATIONS
--------------
ITER       Energy         Delta-E        Max-DP      RMS-DP      [F,P]     Damp
               ***  Starting incremental Fock matrix formation  ***
  0   -761.2257302239   0.000000000000 0.09620407  0.00261022  0.1238903 0.7000
  1   -761.2350545637  -0.009324339868 0.05896882  0.00191661  0.0879654 0.7000
                               ***Turning on DIIS***
  2   -761.2415444209  -0.006489857146 0.14094151  0.00432278  0.0572944 0.0000
  3   -761.2552510515  -0.013706630648 0.07148127  0.00131185  0.0198510 0.0000
  4   -761.2561204069  -0.000869355374 0.04058238  0.00092715  0.0073640 0.0000
  5   -761.2564422330  -0.000321826073 0.02574354  0.00046368  0.0062944 0.0000
  6   -761.2567480427  -0.000305809720 0.02215073  0.00042138  0.0048965 0.0000
  7   -761.2569806415  -0.000232598759 0.01806302  0.00037434  0.0031818 0.0000
  8   -761.2570935689  -0.000112927467 0.01082025  0.00021543  0.0018449 0.0000
  9   -761.2571304907  -0.000036921816 0.00553421  0.00012731  0.0010318 0.0000
 10   -761.2571402077  -0.000009716955 0.00475884  0.00010007  0.0006252 0.0000
 11   -761.2571436258  -0.000003418089 0.00150595  0.00003293  0.0001478 0.0000
 12   -761.2571437956  -0.000000169856 0.00081417  0.00001870  0.0000718 0.0000
                 **** Energy Check signals convergence ****

               *****************************************************
               *                     SUCCESS                       *
               *           SCF CONVERGED AFTER  13 CYCLES          *
               *****************************************************


Setting up the DFT-NL grid :

General Integration Accuracy     IntAcc      ...  4.340
Radial Grid Type                 RadialGrid  ... Gauss-Chebyshev
Angular Grid (max. acc.)         AngularGrid ... Lebedev-110
Angular grid pruning method      GridPruning ... 3 (G Style)
Weight generation scheme         WeightScheme... Becke
Basis function cutoff            BFCut       ...    1.0000e-10
Integration weight cutoff        WCut        ...    1.0000e-14
Grids for H and He will be reduced by one unit

# of grid points (after initial pruning)     ...   3766 (   0.0 sec)
# of grid points (after weights+screening)   ...   3742 (   0.0 sec)
nearest neighbour list constructed           ...    0.0 sec
Grid point re-assignment to atoms done       ...    0.0 sec
Grid point division into batches done        ...    0.0 sec
Reduced shell lists constructed in    0.0 sec

Total number of grid points                  ...     3742
Total number of batches                      ...       60
Average number of points per batch           ...       62
Average number of grid points per atom       ...     1871
Average number of shells per batch           ...    22.50 (66.18%)
Average number of basis functions per batch  ...    75.00 (64.66%)
Average number of large shells per batch     ...    18.25 (81.11%)
Average number of large basis fcns per batch ...    63.75 (85.00%)
Maximum spatial batch extension              ...  40.30, 31.13, 21.67 au
Average spatial batch extension              ...   1.39,  1.40,  0.93 au

Final grid set up in    0.0 sec

-------------------------------------------------------------------------------
                         DFT-NL dispersion correction                          
-------------------------------------------------------------------------------

SC Energy -761.257143829 
NL    Energy 0.092677286 
SC+NL Energy -761.164466543 
NL done in    0.0 sec
-------------------------------------------------------------------------------

----------------
TOTAL SCF ENERGY
----------------

Total Energy       :         -761.16446654 Eh          -20712.33813 eV

Components:
Nuclear Repulsion  :            6.28170036 Eh             170.93376 eV
Electronic Energy  :         -767.44616690 Eh          -20883.27189 eV
One Electron Energy:        -1053.04574690 Eh          -28654.83156 eV
Two Electron Energy:          285.59958000 Eh            7771.55967 eV

Virial components:
Potential Energy   :        -1521.29341559 Eh          -41396.49840 eV
Kinetic Energy     :          760.12894905 Eh           20684.16027 eV
Virial Ratio       :            2.00136229


DFT components:
N(Alpha)           :       10.999998771720 electrons
N(Beta)            :       10.999998771720 electrons
N(Total)           :       21.999997543441 electrons
E(X)               :      -29.615221291866 Eh       
E(C)               :       -0.993068384926 Eh       
NL Energy, E(C,NL) :        0.092677285803 Eh       
E(XC)              :      -30.515612390990 Eh       
DFET-embed. en.    :        0.000000000000 Eh       

---------------
SCF CONVERGENCE
---------------

  Last Energy change         ...   -3.2966e-08  Tolerance :   1.0000e-06
  Last MAX-Density change    ...    3.1126e-04  Tolerance :   1.0000e-05
  Last RMS-Density change    ...    5.7592e-06  Tolerance :   1.0000e-06
  Last DIIS Error            ...    2.0838e-05  Tolerance :   1.0000e-06

             **** THE GBW FILE WAS UPDATED (01_ScH.gbw) ****
             **** DENSITY FILE WAS UPDATED (01_ScH.scfp) ****
             **** ENERGY FILE WAS UPDATED (01_ScH.en.tmp) ****
             **** THE GBW FILE WAS UPDATED (01_ScH.gbw) ****
             **** DENSITY FILE WAS UPDATED (01_ScH.scfp) ****
----------------
ORBITAL ENERGIES
----------------

  NO   OCC          E(Eh)            E(eV) 
   0   2.0000    -162.163070     -4412.6815 
   1   2.0000     -17.873669      -486.3673 
   2   2.0000     -14.730571      -400.8392 
   3   2.0000     -14.730571      -400.8392 
   4   2.0000     -14.715454      -400.4279 
   5   2.0000      -2.271332       -61.8061 
   6   2.0000      -1.448922       -39.4272 
   7   2.0000      -1.448922       -39.4272 
   8   2.0000      -1.430371       -38.9224 
   9   2.0000      -0.370959       -10.0943 
  10   2.0000      -0.242993        -6.6122 
  11   0.0000      -0.011356        -0.3090 
  12   0.0000      -0.004538        -0.1235 
  13   0.0000      -0.004538        -0.1235 
  14   0.0000       0.009201         0.2504 
  15   0.0000       0.010637         0.2895 
  16   0.0000       0.010637         0.2895 
  17   0.0000       0.019812         0.5391 
  18   0.0000       0.019812         0.5391 
  19   0.0000       0.022577         0.6144 
  20   0.0000       0.026431         0.7192 
  21   0.0000       0.029894         0.8135 
  22   0.0000       0.029895         0.8135 
  23   0.0000       0.029990         0.8161 
  24   0.0000       0.029990         0.8161 
  25   0.0000       0.038287         1.0418 
  26   0.0000       0.038287         1.0418 
  27   0.0000       0.079880         2.1736 
  28   0.0000       0.101876         2.7722 
  29   0.0000       0.107020         2.9122 
  30   0.0000       0.124781         3.3955 
  31   0.0000       0.124781         3.3955 
  32   0.0000       0.124870         3.3979 
  33   0.0000       0.124871         3.3979 
  34   0.0000       0.128235         3.4895 
  35   0.0000       0.131087         3.5670 
  36   0.0000       0.131087         3.5670 
  37   0.0000       0.140919         3.8346 
  38   0.0000       0.140919         3.8346 
  39   0.0000       0.142675         3.8824 
  40   0.0000       0.142675         3.8824 
  41   0.0000       0.143765         3.9120 
  42   0.0000       0.143765         3.9120 
  43   0.0000       0.193569         5.2673 
  44   0.0000       0.269454         7.3322 
  45   0.0000       0.333226         9.0675 
  46   0.0000       0.333226         9.0675 
  47   0.0000       0.382183        10.3997 
  48   0.0000       0.384298        10.4573 
  49   0.0000       0.405562        11.0359 
  50   0.0000       0.405565        11.0360 
  51   0.0000       0.420815        11.4510 
  52   0.0000       0.420826        11.4513 
  53   0.0000       0.421203        11.4615 
  54   0.0000       0.421203        11.4615 
  55   0.0000       0.430701        11.7200 
  56   0.0000       0.430737        11.7210 
  57   0.0000       0.430904        11.7255 
  58   0.0000       0.430904        11.7255 
  59   0.0000       0.430978        11.7275 
  60   0.0000       0.430978        11.7275 
  61   0.0000       0.435607        11.8535 
  62   0.0000       0.468878        12.7588 
  63   0.0000       0.500153        13.6098 
  64   0.0000       0.500153        13.6098 
  65   0.0000       0.567489        15.4422 
  66   0.0000       0.567489        15.4422 
  67   0.0000       0.568212        15.4618 
  68   0.0000       0.568218        15.4620 
  69   0.0000       0.599976        16.3262 
  70   0.0000       0.691797        18.8248 
  71   0.0000       0.691797        18.8248 
  72   0.0000       0.809898        22.0385 
  73   0.0000       0.909502        24.7488 
  74   0.0000       1.029811        28.0226 
  75   0.0000       1.029861        28.0239 
  76   0.0000       1.058520        28.8038 
  77   0.0000       1.058520        28.8038 
  78   0.0000       1.129156        30.7259 
  79   0.0000       1.259653        34.2769 
  80   0.0000       1.259653        34.2769 
  81   0.0000       1.402200        38.1558 
  82   0.0000       1.402203        38.1559 
  83   0.0000       1.434632        39.0383 
  84   0.0000       1.550543        42.1924 
  85   0.0000       1.550543        42.1924 
  86   0.0000       1.677327        45.6424 
  87   0.0000       1.692328        46.0506 
  88   0.0000       1.692328        46.0506 
  89   0.0000       1.764838        48.0237 
  90   0.0000       1.846985        50.2590 
  91   0.0000       1.846991        50.2592 
  92   0.0000       1.855167        50.4817 
  93   0.0000       1.855167        50.4817 
  94   0.0000       1.905719        51.8572 
  95   0.0000       1.905721        51.8573 
  96   0.0000       1.948859        53.0312 
  97   0.0000       2.115468        57.5648 
  98   0.0000       2.115468        57.5648 
  99   0.0000       2.127581        57.8944 
 100   0.0000       2.127581        57.8944 
 101   0.0000       2.135986        58.1231 
 102   0.0000       2.135988        58.1232 
 103   0.0000       2.244546        61.0772 
 104   0.0000       2.244546        61.0772 
 105   0.0000       2.270133        61.7735 
 106   0.0000       2.475800        67.3699 
 107   0.0000       3.115291        84.7714 
 108   0.0000       3.779965       102.8581 
 109   0.0000       3.780360       102.8688 
 110   0.0000       3.945294       107.3569 
 111   0.0000       3.945294       107.3569 
 112   0.0000       4.141686       112.7010 
 113   0.0000       4.141686       112.7010 
 114   0.0000       4.302834       117.0861 
 115   0.0000       4.763289       129.6157 

                    ********************************
                    * MULLIKEN POPULATION ANALYSIS *
                    ********************************

-----------------------
MULLIKEN ATOMIC CHARGES
-----------------------
   0 Sc:    0.192739
   1 H :   -0.192739
Sum of atomic charges:   -0.0000000

--------------------------------
MULLIKEN REDUCED ORBITAL CHARGES
--------------------------------
  0 Scs       :     7.579281  s :     7.579281
      pz      :     4.203889  p :    12.204490
      px      :     4.000301
      py      :     4.000301
      dz2     :     1.011080  d :     1.011145
      dxz     :     0.000032
      dyz     :     0.000032
      dx2y2   :     0.000000
      dxy     :     0.000000
      f0      :     0.010884  f :     0.010977
      f+1     :     0.000047
      f-1     :     0.000047
      f+2     :     0.000000
      f-2     :     0.000000
      f+3     :     0.000000
      f-3     :     0.000000
      g0      :     0.001367  g :     0.001368
      g+1     :     0.000001
      g-1     :     0.000001
      g+2     :     0.000000
      g-2     :     0.000000
      g+3     :     0.000000
      g-3     :     0.000000
      g+4     :     0.000000
      g-4     :     0.000000
  1 H s       :     1.180840  s :     1.180840
      pz      :     0.010748  p :     0.010243
      px      :    -0.000253
      py      :    -0.000253
      dz2     :     0.001911  d :     0.001656
      dxz     :    -0.000127
      dyz     :    -0.000127
      dx2y2   :     0.000000
      dxy     :    -0.000000


                     *******************************
                     * LOEWDIN POPULATION ANALYSIS *
                     *******************************

----------------------
LOEWDIN ATOMIC CHARGES
----------------------
   0 Sc:    0.752757
   1 H :   -0.752757

-------------------------------
LOEWDIN REDUCED ORBITAL CHARGES
-------------------------------
  0 Scs       :     7.180405  s :     7.180405
      pz      :     4.147654  p :    12.004441
      px      :     3.928394
      py      :     3.928394
      dz2     :     1.015331  d :     1.023204
      dxz     :     0.003937
      dyz     :     0.003937
      dx2y2   :     0.000000
      dxy     :     0.000000
      f0      :     0.028001  f :     0.030634
      f+1     :     0.001316
      f-1     :     0.001316
      f+2     :     0.000000
      f-2     :     0.000000
      f+3     :     0.000000
      f-3     :     0.000000
      g0      :     0.008359  g :     0.008558
      g+1     :     0.000100
      g-1     :     0.000100
      g+2     :     0.000000
      g-2     :     0.000000
      g+3     :     0.000000
      g-3     :     0.000000
      g+4     :     0.000000
      g-4     :     0.000000
  1 H s       :     1.209785  s :     1.209785
      pz      :     0.267160  p :     0.320544
      px      :     0.026692
      py      :     0.026692
      dz2     :     0.143305  d :     0.222429
      dxz     :     0.039562
      dyz     :     0.039562
      dx2y2   :     0.000000
      dxy     :     0.000000


                      *****************************
                      * MAYER POPULATION ANALYSIS *
                      *****************************

  NA   - Mulliken gross atomic population
  ZA   - Total nuclear charge
  QA   - Mulliken gross atomic charge
  VA   - Mayer's total valence
  BVA  - Mayer's bonded valence
  FA   - Mayer's free valence

  ATOM       NA         ZA         QA         VA         BVA        FA
  0 Sc    20.8073    21.0000     0.1927     0.9426     0.9426    -0.0000
  1 H      1.1927     1.0000    -0.1927     0.9426     0.9426    -0.0000

  Mayer bond orders larger than 0.100000
B(  0-Sc,  1-H ) :   0.9426 

-------
TIMINGS
-------

Total SCF time: 0 days 0 hours 2 min 31 sec 

Total time                  ....     151.843 sec
Sum of individual times     ....     151.543 sec  ( 99.8%)

Fock matrix formation       ....     151.270 sec  ( 99.6%)
  XC integration            ....       0.300 sec  (  0.2% of F)
    Basis function eval.    ....       0.055 sec  ( 18.4% of XC)
    Density eval.           ....       0.036 sec  ( 12.1% of XC)
    XC-Functional eval.     ....       0.014 sec  (  4.6% of XC)
    XC-Potential eval.      ....       0.081 sec  ( 26.9% of XC)
Diagonalization             ....       0.025 sec  (  0.0%)
Density matrix formation    ....       0.004 sec  (  0.0%)
Population analysis         ....       0.003 sec  (  0.0%)
Initial guess               ....       0.093 sec  (  0.1%)
Orbital Transformation      ....       0.000 sec  (  0.0%)
Orbital Orthonormalization  ....       0.000 sec  (  0.0%)
DIIS solution               ....       0.013 sec  (  0.0%)
Grid generation             ....       0.134 sec  (  0.1%)

-------------------------   --------------------
FINAL SINGLE POINT ENERGY      -761.164466542798
-------------------------   --------------------


                            ***************************************
                            *     ORCA property calculations      *
                            ***************************************

                                    ---------------------
                                    Active property flags
                                    ---------------------
   (+) Dipole Moment


------------------------------------------------------------------------------
                       ORCA ELECTRIC PROPERTIES CALCULATION
------------------------------------------------------------------------------

Dipole Moment Calculation                       ... on
Quadrupole Moment Calculation                   ... off
Polarizability Calculation                      ... off
GBWName                                         ... 01_ScH.gbw
Electron density file                           ... 01_ScH.scfp
The origin for moment calculation is the CENTER OF MASS  = ( 0.000000,  0.000000  0.291511)

-------------
DIPOLE MOMENT
-------------
                                X             Y             Z
Electronic contribution:     -0.00000       0.00000      -2.58717
Nuclear contribution   :      0.00000       0.00000       1.73028
                        -----------------------------------------
Total Dipole Moment    :     -0.00000       0.00000      -0.85688
                        -----------------------------------------
Magnitude (a.u.)       :      0.85688
Magnitude (Debye)      :      2.17803



--------------------
Rotational spectrum 
--------------------
 
Rotational constants in cm-1:     0.000000     5.463605     5.463605 
Rotational constants in MHz :     0.000000 163794.743331 163794.743331 

 Dipole components along the rotational axes: 
x,y,z [a.u.] :    -0.856884     0.000000    -0.000000 
x,y,z [Debye]:    -2.178025     0.000000    -0.000000 

 

Timings for individual modules:

Sum of individual times         ...      155.300 sec (=   2.588 min)
GTO integral calculation        ...        2.938 sec (=   0.049 min)   1.9 %
SCF iterations                  ...      152.362 sec (=   2.539 min)  98.1 %
                             ****ORCA TERMINATED NORMALLY****
TOTAL RUN TIME: 0 days 0 hours 2 minutes 35 seconds 903 msec
