
                                 *****************
                                 * O   R   C   A *
                                 *****************

           --- An Ab Initio, DFT and Semiempirical electronic structure package ---

                  #######################################################
                  #                        -***-                        #
                  #          Department of theory and spectroscopy      #
                  #               Directorship: Frank Neese             #
                  #        Max Planck Institute fuer Kohlenforschung    #
                  #                Kaiser Wilhelm Platz 1               #
                  #                 D-45470 Muelheim/Ruhr               #
                  #                      Germany                        #
                  #                                                     #
                  #                  All rights reserved                #
                  #                        -***-                        #
                  #######################################################


                         Program Version 4.2.0 -  RELEASE  -


 With contributions from (in alphabetic order):
   Daniel Aravena         : Magnetic Suceptibility
   Michael Atanasov       : Ab Initio Ligand Field Theory (pilot matlab implementation)
   Alexander A. Auer      : GIAO ZORA, VPT2
   Ute Becker             : Parallelization
   Giovanni Bistoni       : ED, misc. LED, open-shell LED, HFLED
   Martin Brehm           : Molecular dynamics
   Dmytro Bykov           : SCF Hessian
   Vijay G. Chilkuri      : MRCI spin determinant printing, contributions to CSF-ICE
   Dipayan Datta          : RHF DLPNO-CCSD density
   Achintya Kumar Dutta   : EOM-CC, STEOM-CC
   Dmitry Ganyushin       : Spin-Orbit,Spin-Spin,Magnetic field MRCI
   Miquel Garcia          : C-PCM Hessian, Gaussian charge scheme
   Yang Guo               : DLPNO-NEVPT2, CIM, IAO-localization
   Andreas Hansen         : Spin unrestricted coupled pair/coupled cluster methods
   Benjamin Helmich-Paris : CASSCF linear response (MC-RPA)
   Lee Huntington         : MR-EOM, pCC
   Robert Izsak           : Overlap fitted RIJCOSX, COSX-SCS-MP3, EOM
   Christian Kollmar      : KDIIS, OOCD, Brueckner-CCSD(T), CCSD density
   Simone Kossmann        : Meta GGA functionals, TD-DFT gradient, OOMP2, MP2 Hessian
   Martin Krupicka        : AUTO-CI
   Lucas Lang             : DCDCAS
   Dagmar Lenk            : GEPOL surface, SMD
   Dimitrios Liakos       : Extrapolation schemes; Compound Job, initial MDCI parallelization
   Dimitrios Manganas     : Further ROCIS development; embedding schemes
   Dimitrios Pantazis     : SARC Basis sets
   Taras Petrenko         : DFT Hessian,TD-DFT gradient, ASA, ECA, R-Raman, ABS, FL, XAS/XES, NRVS
   Peter Pinski           : DLPNO-MP2, DLPNO-MP2 Gradient
   Christoph Reimann      : Effective Core Potentials
   Marius Retegan         : Local ZFS, SOC
   Christoph Riplinger    : Optimizer, TS searches, QM/MM, DLPNO-CCSD(T), (RO)-DLPNO pert. Triples
   Tobias Risthaus        : Range-separated hybrids, TD-DFT gradient, RPA, STAB
   Michael Roemelt        : Original ROCIS implementation
   Masaaki Saitow         : Open-shell DLPNO-CCSD energy and density
   Barbara Sandhoefer     : DKH picture change effects
   Avijit Sen             : IP-ROCIS
   Kantharuban Sivalingam : CASSCF convergence, NEVPT2, FIC-MRCI
   Bernardo de Souza      : ESD, SOC TD-DFT
   Georgi Stoychev        : AutoAux, RI-MP2 NMR
   Willem Van den Heuvel  : Paramagnetic NMR
   Boris Wezisla          : Elementary symmetry handling
   Frank Wennmohs         : Technical directorship


 We gratefully acknowledge several colleagues who have allowed us to
 interface, adapt or use parts of their codes:
   Stefan Grimme, W. Hujo, H. Kruse,             : VdW corrections, initial TS optimization,
                  C. Bannwarth                     DFT functionals, gCP, sTDA/sTD-DF
   Ed Valeev, F. Pavosevic, A. Kumar             : LibInt (2-el integral package), F12 methods
   Garnet Chan, S. Sharma, J. Yang, R. Olivares  : DMRG
   Ulf Ekstrom                                   : XCFun DFT Library
   Mihaly Kallay                                 : mrcc  (arbitrary order and MRCC methods)
   Andreas Klamt, Michael Diedenhofen            : otool_cosmo (COSMO solvation model)
   Jiri Pittner, Ondrej Demel                    : Mk-CCSD
   Frank Weinhold                                : gennbo (NPA and NBO analysis)
   Christopher J. Cramer and Donald G. Truhlar   : smd solvation model
   Lars Goerigk                                  : TD-DFT with DH, B97 family of functionals
   V. Asgeirsson, H. Jonsson                     : NEB implementation
   FAccTs GmbH                                   : IRC, NEB, NEB-TS, Multilevel, MM, QM/MM, CI optimization
   S Lehtola, MJT Oliveira, MAL Marques          : LibXC Library


 Your calculation uses the libint2 library for the computation of 2-el integrals
 For citations please refer to: http://libint.valeyev.net

 Your ORCA version has been built with support for libXC version: 4.2.3
 For citations please refer to: https://tddft.org/programs/libxc/

 This ORCA versions uses:
   CBLAS   interface :  Fast vector & matrix operations
   LAPACKE interface :  Fast linear algebra routines
   SCALAPACK package :  Parallel linear algebra routines


Your calculation utilizes the DFT-NL dispersion correction.
Cite in your paper:
Vydrov, O. A.; Van Voorhis, T. J. Chem. Phys. 2010, 133, 244103
Hujo, W.; Grimme, S. J. Chem. Theory Comput. 2011, 7, 3866 
   

----- Orbital basis set information -----
Your calculation utilizes the basis: aug-cc-pVTZ 
    H, B-Ne : Obtained from the ccRepo (grant-hill.group.shef.ac.uk/ccrepo) Feb. 2017
              R. A. Kendall, T. H. Dunning, Jr., R. J. Harrison, J. Chem. Phys. 96, 6796 (1992)
         He : Obtained from the ccRepo (grant-hill.group.shef.ac.uk/ccrepo) Feb. 2017
              D. E. Woon, T. H. Dunning, Jr., J. Chem. Phys. 100, 2975 (1994)
  Li-Be, Na : Obtained from the ccRepo (grant-hill.group.shef.ac.uk/ccrepo) Feb. 2017
              B. P. Prascher, D. E. Woon, K. A. Peterson, T. H. Dunning, Jr., A. K. Wilson, Theor. Chem. Acc. 128, 69 (2011)
         Mg : Obtained from the Peterson Research Group Website (tyr0.chem.wsu.edu/~kipeters) Feb. 2017
              B. P. Prascher, D. E. Woon, K. A. Peterson, T. H. Dunning, Jr., A. K. Wilson, Theor. Chem. Acc. 128, 69 (2011)
      Al-Ar : Obtained from the ccRepo (grant-hill.group.shef.ac.uk/ccrepo) Feb. 2017
              D. E. Woon, T. H. Dunning, Jr., J. Chem. Phys. 98, 1358 (1993)
      Sc-Zn : Obtained from the ccRepo (grant-hill.group.shef.ac.uk/ccrepo) Feb. 2017
              N. B. Balabanov, K. A. Peterson, J. Chem. Phys. 123, 064107 (2005)
              N. B. Balabanov, K. A. Peterson, J. Chem. Phys. 125, 074110 (2006)
      Ga-Kr : Obtained from the ccRepo (grant-hill.group.shef.ac.uk/ccrepo) Feb. 2017
              A. K. Wilson, D. E. Woon, K. A. Peterson, T. H. Dunning, Jr., J. Chem. Phys. 110, 7667 (1999)
     Ag, Au : Obtained from the Peterson Research Group Website (tyr0.chem.wsu.edu/~kipeters) Feb. 2017
              K. A. Peterson, C. Puzzarini, Theor. Chem. Acc. 114, 283 (2005)

----- AuxJK basis set information -----
Your calculation utilizes the auxiliary basis: def2/JK
   H-Ba, Hf-Rn: F. Weigend, J. Comput. Chem. 29, 167 (2008).

================================================================================
                                        WARNINGS
                       Please study these warnings very carefully!
================================================================================


INFO   : the flag for use of LIBINT has been found!

================================================================================
                                       INPUT FILE
================================================================================
NAME = 02_ScF.in
|  1> #
|  2> # 02_ScF wb97m-v/aug-cc-pvtz
|  3> #
|  4> ! wb97m-v aug-cc-pvtz def2/jk grid4 nofinalgrid
|  5> 
|  6> *xyz 0 1
|  7>   Sc  0.00000000000000      0.00000000000000      0.10357126289626
|  8>   F   0.00000000000000      0.00000000000000      1.89642873710374
|  9> *
| 10> 
| 11> %pal
| 12> nprocs 24
| 13> end
| 14> 
| 15> 
| 16>                          ****END OF INPUT****
================================================================================

                       ****************************
                       * Single Point Calculation *
                       ****************************

---------------------------------
CARTESIAN COORDINATES (ANGSTROEM)
---------------------------------
  Sc     0.000000    0.000000    0.103571
  F      0.000000    0.000000    1.896429

----------------------------
CARTESIAN COORDINATES (A.U.)
----------------------------
  NO LB      ZA    FRAG     MASS         X           Y           Z
   0 Sc   21.0000    0    44.960    0.000000    0.000000    0.195721
   1 F     9.0000    0    18.998    0.000000    0.000000    3.583731

--------------------------------
INTERNAL COORDINATES (ANGSTROEM)
--------------------------------
 Sc     0   0   0     0.000000000000     0.00000000     0.00000000
 F      1   0   0     1.792857474207     0.00000000     0.00000000

---------------------------
INTERNAL COORDINATES (A.U.)
---------------------------
 Sc     0   0   0     0.000000000000     0.00000000     0.00000000
 F      1   0   0     3.388009623406     0.00000000     0.00000000

---------------------
BASIS SET INFORMATION
---------------------
There are 2 groups of distinct atoms

 Group   1 Type Sc  : 116s77p23d3f2g contracted to 8s7p5d3f2g pattern {19191919191911/151515151511/77711/111/11}
 Group   2 Type F   : 19s6p3d2f contracted to 5s4p3d2f pattern {88111/3111/111/11}

Atom   0Sc   basis set group =>   1
Atom   1F    basis set group =>   2
----------------------------------
AUXILIARY/JK BASIS SET INFORMATION
----------------------------------
There are 2 groups of distinct atoms

 Group   1 Type Sc  : 19s14p12d10f7g3h1i contracted to 16s13p11d9f5g3h1i pattern {4111111111111111/2111111111111/21111111111/211111111/31111/111/1}
 Group   2 Type F   : 14s10p6d2f1g contracted to 10s8p4d2f1g pattern {5111111111/31111111/3111/11/1}

Atom   0Sc   basis set group =>   1
Atom   1F    basis set group =>   2


           ************************************************************
           *        Program running with 24 parallel MPI-processes    *
           *              working on a common directory               *
           ************************************************************
------------------------------------------------------------------------------
                           ORCA GTO INTEGRAL CALCULATION
------------------------------------------------------------------------------

                         BASIS SET STATISTICS AND STARTUP INFO

 # of primitive gaussian shells          ...  251
 # of primitive gaussian functions       ...  567
 # of contracted shells                  ...   39
 # of contracted basis functions         ...  139
 Highest angular momentum                ...    4
 Maximum contraction depth               ...   19
 Integral package used                   ... LIBINT
 Integral threshhold            Thresh   ...  1.000e-10
 Primitive cut-off              TCut     ...  1.000e-11


------------------------------ INTEGRAL EVALUATION ----------------------------


 * One electron integrals 
 Pre-screening matrix                    ... done
 Shell pair data                         ... done (   0.001 sec)



           ************************************************************
           *        Program running with 24 parallel MPI-processes    *
           *              working on a common directory               *
           ************************************************************
-------------------------------------------------------------------------------
                                 ORCA SCF
-------------------------------------------------------------------------------

------------
SCF SETTINGS
------------
Hamiltonian:
 Density Functional     Method          .... DFT(GTOs)
 Exchange Functional    Exchange        .... WB97M-V
 Correlation Functional Correlation     .... WB97M-V
 Gradients option       PostSCFGGA      .... off
 Hybrid DFT is turned on
   Fraction HF Exchange ScalHFX         ....  0.150000
   Scaling of DF-GGA-X  ScalDFX         ....  0.000000
   Scaling of DF-GGA-C  ScalDFC         ....  1.000000
   Scaling of DF-LDA-C  ScalLDAC        ....  1.000000
   Perturbative correction              ....  0.000000
   Density functional embedding theory  .... OFF
 Long-range corrected/Screened/Range-Separated Hybrid DFT is turned on
   Amount of maximum screened exact exchange              ....  0.850000
   Range separation parameter mu (erf(mu*r12)/r12)        ....  0.300000
   NL short-range parameter             ....  6.000000
   NL long-range parameter              ....  0.010000


General Settings:
 Integral files         IntName         .... 02_ScF
 Hartree-Fock type      HFTyp           .... RHF
 Total Charge           Charge          ....    0
 Multiplicity           Mult            ....    1
 Number of Electrons    NEL             ....   30
 Basis Dimension        Dim             ....  139
 Nuclear Repulsion      ENuc            ....     55.7849655132 Eh

Convergence Acceleration:
 DIIS                   CNVDIIS         .... on
   Start iteration      DIISMaxIt       ....    12
   Startup error        DIISStart       ....  0.200000
   # of expansion vecs  DIISMaxEq       ....     5
   Bias factor          DIISBfac        ....   1.050
   Max. coefficient     DIISMaxC        ....  10.000
 Newton-Raphson         CNVNR           .... off
 SOSCF                  CNVSOSCF        .... off
 Level Shifting         CNVShift        .... on
   Level shift para.    LevelShift      ....    0.2500
   Turn off err/grad.   ShiftErr        ....    0.0010
 Zerner damping         CNVZerner       .... off
 Static damping         CNVDamp         .... on
   Fraction old density DampFac         ....    0.7000
   Max. Damping (<1)    DampMax         ....    0.9800
   Min. Damping (>=0)   DampMin         ....    0.0000
   Turn off err/grad.   DampErr         ....    0.1000
 Fernandez-Rico         CNVRico         .... off

SCF Procedure:
 Maximum # iterations   MaxIter         ....   125
 SCF integral mode      SCFMode         .... Direct
   Integral package                     .... LIBINT
 Reset frequency        DirectResetFreq ....    20
 Integral Threshold     Thresh          ....  1.000e-10 Eh
 Primitive CutOff       TCut            ....  1.000e-11 Eh

Convergence Tolerance:
 Convergence Check Mode ConvCheckMode   .... Total+1el-Energy
 Convergence forced     ConvForced      .... 0
 Energy Change          TolE            ....  1.000e-06 Eh
 1-El. energy change                    ....  1.000e-03 Eh
 DIIS Error             TolErr          ....  1.000e-06


Diagonalization of the overlap matrix:
Smallest eigenvalue                        ... 8.624e-05
Time for diagonalization                   ...    0.005 sec
Threshold for overlap eigenvalues          ... 1.000e-08
Number of eigenvalues below threshold      ... 0
Time for construction of square roots      ...    0.003 sec
Total time needed                          ...    0.008 sec

-------------------
DFT GRID GENERATION
-------------------

General Integration Accuracy     IntAcc      ...  4.670
Radial Grid Type                 RadialGrid  ... Gauss-Chebyshev
Angular Grid (max. acc.)         AngularGrid ... Lebedev-302
Angular grid pruning method      GridPruning ... 3 (G Style)
Weight generation scheme         WeightScheme... Becke
Basis function cutoff            BFCut       ...    1.0000e-10
Integration weight cutoff        WCut        ...    1.0000e-14
Grids for H and He will be reduced by one unit

# of grid points (after initial pruning)     ...  15936 (   0.0 sec)
# of grid points (after weights+screening)   ...  15882 (   0.0 sec)
nearest neighbour list constructed           ...    0.0 sec
Grid point re-assignment to atoms done       ...    0.0 sec
Grid point division into batches done        ...    0.1 sec
Reduced shell lists constructed in    0.1 sec

Total number of grid points                  ...    15882
Total number of batches                      ...      249
Average number of points per batch           ...       63
Average number of grid points per atom       ...     7941
Average number of shells per batch           ...    20.25 (51.92%)
Average number of basis functions per batch  ...    65.25 (46.94%)
Average number of large shells per batch     ...    13.08 (64.61%)
Average number of large basis fcns per batch ...    43.58 (66.79%)
Maximum spatial batch extension              ...  30.95, 34.02, 18.21 au
Average spatial batch extension              ...   0.97,  1.04,  0.71 au

Time for grid setup =    0.158 sec

------------------------------
INITIAL GUESS: MODEL POTENTIAL
------------------------------
Loading Hartree-Fock densities                     ... done
Calculating cut-offs                               ... done
Setting up the integral package                    ... done
Initializing the effective Hamiltonian             ... done
Starting the Coulomb interaction                   ... done (   0.0 sec)
Reading the grid                                   ... done
Mapping shells                                     ... done
Starting the XC term evaluation                    ... done (   0.0 sec)
  promolecular density results
     # of electrons  =     30.000024353
     EX              =    -47.827903195
     EC              =     -1.141167291
     EX+EC           =    -48.969070486
Transforming the Hamiltonian                       ... done (   0.0 sec)
Diagonalizing the Hamiltonian                      ... done (   0.0 sec)
Back transforming the eigenvectors                 ... done (   0.0 sec)
Now organizing SCF variables                       ... done
                      ------------------
                      INITIAL GUESS DONE (   0.3 sec)
                      ------------------
--------------
SCF ITERATIONS
--------------
ITER       Energy         Delta-E        Max-DP      RMS-DP      [F,P]     Damp
               ***  Starting incremental Fock matrix formation  ***
  0   -860.5884914848   0.000000000000 0.09157749  0.00211573  0.3170127 0.7000
  1   -860.6286008244  -0.040109339590 0.05731786  0.00125913  0.1238374 0.7000
                               ***Turning on DIIS***
  2   -860.6424531569  -0.013852332463 0.18260417  0.00382900  0.0428326 0.0000
  3   -860.6699528205  -0.027499663597 0.03948312  0.00083500  0.0633481 0.0000
  4   -860.6740705963  -0.004117775786 0.03513252  0.00070317  0.0068615 0.0000
  5   -860.6743775873  -0.000306991035 0.02365775  0.00032967  0.0061298 0.0000
  6   -860.6745387279  -0.000161140613 0.01655391  0.00029115  0.0035894 0.0000
  7   -860.6746199753  -0.000081247375 0.00662075  0.00013017  0.0021988 0.0000
  8   -860.6746524821  -0.000032506775 0.00615728  0.00012287  0.0013711 0.0000
  9   -860.6746658908  -0.000013408698 0.00508474  0.00007225  0.0009499 0.0000
 10   -860.6746734805  -0.000007589772 0.00239385  0.00005073  0.0003346 0.0000
 11   -860.6746738882  -0.000000407657 0.00079778  0.00001592  0.0001436 0.0000
 12   -860.6746740181  -0.000000129886 0.00031186  0.00000564  0.0000923 0.0000
                 **** Energy Check signals convergence ****

               *****************************************************
               *                     SUCCESS                       *
               *           SCF CONVERGED AFTER  13 CYCLES          *
               *****************************************************


Setting up the DFT-NL grid :

General Integration Accuracy     IntAcc      ...  4.340
Radial Grid Type                 RadialGrid  ... Gauss-Chebyshev
Angular Grid (max. acc.)         AngularGrid ... Lebedev-110
Angular grid pruning method      GridPruning ... 3 (G Style)
Weight generation scheme         WeightScheme... Becke
Basis function cutoff            BFCut       ...    1.0000e-10
Integration weight cutoff        WCut        ...    1.0000e-14
Grids for H and He will be reduced by one unit

# of grid points (after initial pruning)     ...   4712 (   0.0 sec)
# of grid points (after weights+screening)   ...   4686 (   0.0 sec)
nearest neighbour list constructed           ...    0.0 sec
Grid point re-assignment to atoms done       ...    0.0 sec
Grid point division into batches done        ...    0.0 sec
Reduced shell lists constructed in    0.0 sec

Total number of grid points                  ...     4686
Total number of batches                      ...       74
Average number of points per batch           ...       63
Average number of grid points per atom       ...     2343
Average number of shells per batch           ...    23.20 (59.49%)
Average number of basis functions per batch  ...    79.20 (56.98%)
Average number of large shells per batch     ...    17.60 (75.86%)
Average number of large basis fcns per batch ...    60.80 (76.77%)
Maximum spatial batch extension              ...  21.18, 31.13, 17.09 au
Average spatial batch extension              ...   1.09,  1.42,  0.92 au

Final grid set up in    0.0 sec

-------------------------------------------------------------------------------
                         DFT-NL dispersion correction                          
-------------------------------------------------------------------------------

SC Energy -860.674674049 
NL    Energy 0.125843703 
SC+NL Energy -860.548830346 
NL done in    0.0 sec
-------------------------------------------------------------------------------

----------------
TOTAL SCF ENERGY
----------------

Total Energy       :         -860.54883035 Eh          -23416.72416 eV

Components:
Nuclear Repulsion  :           55.78496551 Eh            1517.98608 eV
Electronic Energy  :         -916.33379586 Eh          -24934.71024 eV
One Electron Energy:        -1290.57373875 Eh          -35118.29681 eV
Two Electron Energy:          374.23994289 Eh           10183.58657 eV

Virial components:
Potential Energy   :        -1719.74536796 Eh          -46796.65056 eV
Kinetic Energy     :          859.19653761 Eh           23379.92640 eV
Virial Ratio       :            2.00157390


DFT components:
N(Alpha)           :       15.000019361016 electrons
N(Beta)            :       15.000019361016 electrons
N(Total)           :       30.000038722033 electrons
E(X)               :      -36.831393728651 Eh       
E(C)               :       -1.330776050161 Eh       
NL Energy, E(C,NL) :        0.125843703195 Eh       
E(XC)              :      -38.036326075617 Eh       
DFET-embed. en.    :        0.000000000000 Eh       

---------------
SCF CONVERGENCE
---------------

  Last Energy change         ...   -3.1279e-08  Tolerance :   1.0000e-06
  Last MAX-Density change    ...    2.3562e-04  Tolerance :   1.0000e-05
  Last RMS-Density change    ...    5.5349e-06  Tolerance :   1.0000e-06
  Last DIIS Error            ...    2.5336e-05  Tolerance :   1.0000e-06

             **** THE GBW FILE WAS UPDATED (02_ScF.gbw) ****
             **** DENSITY FILE WAS UPDATED (02_ScF.scfp) ****
             **** ENERGY FILE WAS UPDATED (02_ScF.en.tmp) ****
             **** THE GBW FILE WAS UPDATED (02_ScF.gbw) ****
             **** DENSITY FILE WAS UPDATED (02_ScF.scfp) ****
----------------
ORBITAL ENERGIES
----------------

  NO   OCC          E(Eh)            E(eV) 
   0   2.0000    -162.198585     -4413.6479 
   1   2.0000     -24.884247      -677.1348 
   2   2.0000     -17.918654      -487.5914 
   3   2.0000     -14.773712      -402.0131 
   4   2.0000     -14.773712      -402.0131 
   5   2.0000     -14.761733      -401.6872 
   6   2.0000      -2.311660       -62.9035 
   7   2.0000      -1.497509       -40.7493 
   8   2.0000      -1.483834       -40.3772 
   9   2.0000      -1.483834       -40.3772 
  10   2.0000      -1.251070       -34.0433 
  11   2.0000      -0.542178       -14.7534 
  12   2.0000      -0.528269       -14.3749 
  13   2.0000      -0.528269       -14.3749 
  14   2.0000      -0.253309        -6.8929 
  15   0.0000      -0.009640        -0.2623 
  16   0.0000      -0.009640        -0.2623 
  17   0.0000      -0.008664        -0.2358 
  18   0.0000      -0.008499        -0.2313 
  19   0.0000      -0.008499        -0.2313 
  20   0.0000       0.010114         0.2752 
  21   0.0000       0.018459         0.5023 
  22   0.0000       0.018460         0.5023 
  23   0.0000       0.020645         0.5618 
  24   0.0000       0.028444         0.7740 
  25   0.0000       0.028444         0.7740 
  26   0.0000       0.029070         0.7910 
  27   0.0000       0.029070         0.7910 
  28   0.0000       0.031517         0.8576 
  29   0.0000       0.047854         1.3022 
  30   0.0000       0.047854         1.3022 
  31   0.0000       0.077845         2.1183 
  32   0.0000       0.103657         2.8206 
  33   0.0000       0.117788         3.2052 
  34   0.0000       0.117788         3.2052 
  35   0.0000       0.121840         3.3154 
  36   0.0000       0.121840         3.3154 
  37   0.0000       0.125737         3.4215 
  38   0.0000       0.130771         3.5585 
  39   0.0000       0.130771         3.5585 
  40   0.0000       0.133018         3.6196 
  41   0.0000       0.142418         3.8754 
  42   0.0000       0.142418         3.8754 
  43   0.0000       0.143819         3.9135 
  44   0.0000       0.143819         3.9135 
  45   0.0000       0.146597         3.9891 
  46   0.0000       0.146597         3.9891 
  47   0.0000       0.216811         5.8997 
  48   0.0000       0.323027         8.7900 
  49   0.0000       0.323027         8.7900 
  50   0.0000       0.332063         9.0359 
  51   0.0000       0.378030        10.2867 
  52   0.0000       0.395776        10.7696 
  53   0.0000       0.395777        10.7697 
  54   0.0000       0.401321        10.9205 
  55   0.0000       0.411633        11.2011 
  56   0.0000       0.411633        11.2011 
  57   0.0000       0.421664        11.4741 
  58   0.0000       0.421666        11.4741 
  59   0.0000       0.430530        11.7153 
  60   0.0000       0.430534        11.7154 
  61   0.0000       0.431120        11.7314 
  62   0.0000       0.431826        11.7506 
  63   0.0000       0.431826        11.7506 
  64   0.0000       0.438326        11.9275 
  65   0.0000       0.438326        11.9275 
  66   0.0000       0.498126        13.5547 
  67   0.0000       0.498126        13.5547 
  68   0.0000       0.552494        15.0341 
  69   0.0000       0.554366        15.0851 
  70   0.0000       0.554369        15.0851 
  71   0.0000       0.561535        15.2802 
  72   0.0000       0.561535        15.2802 
  73   0.0000       0.714173        19.4336 
  74   0.0000       0.721496        19.6329 
  75   0.0000       0.721496        19.6329 
  76   0.0000       0.969221        26.3738 
  77   0.0000       1.053567        28.6690 
  78   0.0000       1.053571        28.6691 
  79   0.0000       1.055954        28.7340 
  80   0.0000       1.055954        28.7340 
  81   0.0000       1.074688        29.2438 
  82   0.0000       1.323860        36.0241 
  83   0.0000       1.323860        36.0241 
  84   0.0000       1.378618        37.5141 
  85   0.0000       1.378619        37.5141 
  86   0.0000       1.454937        39.5909 
  87   0.0000       1.516840        41.2753 
  88   0.0000       1.588533        43.2262 
  89   0.0000       1.588533        43.2262 
  90   0.0000       1.673425        45.5362 
  91   0.0000       1.673425        45.5362 
  92   0.0000       1.707719        46.4694 
  93   0.0000       1.830981        49.8235 
  94   0.0000       1.830981        49.8235 
  95   0.0000       1.833551        49.8935 
  96   0.0000       1.833553        49.8935 
  97   0.0000       1.869273        50.8655 
  98   0.0000       1.869274        50.8655 
  99   0.0000       1.928923        52.4887 
 100   0.0000       1.981823        53.9282 
 101   0.0000       1.981823        53.9282 
 102   0.0000       2.088092        56.8199 
 103   0.0000       2.088094        56.8199 
 104   0.0000       2.094439        56.9926 
 105   0.0000       2.094439        56.9926 
 106   0.0000       2.111283        57.4509 
 107   0.0000       2.189957        59.5918 
 108   0.0000       2.189957        59.5918 
 109   0.0000       2.326442        63.3057 
 110   0.0000       2.610247        71.0284 
 111   0.0000       2.785853        75.8069 
 112   0.0000       2.786008        75.8111 
 113   0.0000       2.789801        75.9144 
 114   0.0000       2.789801        75.9144 
 115   0.0000       2.957692        80.4829 
 116   0.0000       2.957692        80.4829 
 117   0.0000       3.116873        84.8144 
 118   0.0000       3.116932        84.8160 
 119   0.0000       3.292783        89.6012 
 120   0.0000       3.604365        98.0798 
 121   0.0000       3.604365        98.0798 
 122   0.0000       4.071832       110.8002 
 123   0.0000       5.165659       140.5647 
 124   0.0000       5.165659       140.5647 
 125   0.0000       5.500582       149.6785 
 126   0.0000       8.442808       229.7405 
 127   0.0000       8.442808       229.7405 
 128   0.0000       8.555660       232.8113 
 129   0.0000       8.555839       232.8162 
 130   0.0000       8.746939       238.0163 
 131   0.0000       8.746939       238.0163 
 132   0.0000       8.786269       239.0865 
 133   0.0000       8.947285       243.4680 
 134   0.0000       8.947836       243.4830 
 135   0.0000       9.032002       245.7733 
 136   0.0000       9.032002       245.7733 
 137   0.0000       9.163372       249.3480 
 138   0.0000      13.571319       369.2944 

                    ********************************
                    * MULLIKEN POPULATION ANALYSIS *
                    ********************************

-----------------------
MULLIKEN ATOMIC CHARGES
-----------------------
   0 Sc:    0.596800
   1 F :   -0.596800
Sum of atomic charges:   -0.0000000

--------------------------------
MULLIKEN REDUCED ORBITAL CHARGES
--------------------------------
  0 Scs       :     7.590219  s :     7.590219
      pz      :     4.066089  p :    12.080460
      px      :     4.007186
      py      :     4.007186
      dz2     :     0.542270  d :     0.716258
      dxz     :     0.086994
      dyz     :     0.086994
      dx2y2   :     0.000000
      dxy     :     0.000000
      f0      :     0.006964  f :     0.014943
      f+1     :     0.003989
      f-1     :     0.003989
      f+2     :     0.000000
      f-2     :     0.000000
      f+3     :     0.000000
      f-3     :     0.000000
      g0      :     0.001604  g :     0.001319
      g+1     :    -0.000143
      g-1     :    -0.000143
      g+2     :     0.000000
      g-2     :     0.000000
      g+3     :     0.000000
      g-3     :     0.000000
      g+4     :     0.000000
      g-4     :     0.000000
  1 F s       :     3.967165  s :     3.967165
      pz      :     1.818180  p :     5.609028
      px      :     1.895424
      py      :     1.895424
      dz2     :     0.006281  d :     0.018130
      dxz     :     0.005924
      dyz     :     0.005924
      dx2y2   :    -0.000000
      dxy     :    -0.000000
      f0      :     0.001227  f :     0.002477
      f+1     :     0.000625
      f-1     :     0.000625
      f+2     :     0.000000
      f-2     :     0.000000
      f+3     :     0.000000
      f-3     :     0.000000


                     *******************************
                     * LOEWDIN POPULATION ANALYSIS *
                     *******************************

----------------------
LOEWDIN ATOMIC CHARGES
----------------------
   0 Sc:    0.390478
   1 F :   -0.390478

-------------------------------
LOEWDIN REDUCED ORBITAL CHARGES
-------------------------------
  0 Scs       :     7.266868  s :     7.266868
      pz      :     4.057397  p :    11.999717
      px      :     3.971160
      py      :     3.971160
      dz2     :     0.679790  d :     0.965386
      dxz     :     0.142798
      dyz     :     0.142798
      dx2y2   :     0.000000
      dxy     :     0.000000
      f0      :     0.105082  f :     0.235497
      f+1     :     0.065208
      f-1     :     0.065208
      f+2     :     0.000000
      f-2     :     0.000000
      f+3     :     0.000000
      f-3     :     0.000000
      g0      :     0.062628  g :     0.142053
      g+1     :     0.039713
      g-1     :     0.039713
      g+2     :     0.000000
      g-2     :     0.000000
      g+3     :     0.000000
      g-3     :     0.000000
      g+4     :     0.000000
      g-4     :     0.000000
  1 F s       :     3.707283  s :     3.707283
      pz      :     1.966414  p :     5.457234
      px      :     1.745410
      py      :     1.745410
      dz2     :     0.130673  d :     0.193016
      dxz     :     0.031172
      dyz     :     0.031172
      dx2y2   :     0.000000
      dxy     :     0.000000
      f0      :     0.023865  f :     0.032945
      f+1     :     0.004540
      f-1     :     0.004540
      f+2     :     0.000000
      f-2     :     0.000000
      f+3     :     0.000000
      f-3     :     0.000000


                      *****************************
                      * MAYER POPULATION ANALYSIS *
                      *****************************

  NA   - Mulliken gross atomic population
  ZA   - Total nuclear charge
  QA   - Mulliken gross atomic charge
  VA   - Mayer's total valence
  BVA  - Mayer's bonded valence
  FA   - Mayer's free valence

  ATOM       NA         ZA         QA         VA         BVA        FA
  0 Sc    20.4032    21.0000     0.5968     0.8180     0.8180    -0.0000
  1 F      9.5968     9.0000    -0.5968     0.8180     0.8180    -0.0000

  Mayer bond orders larger than 0.100000
B(  0-Sc,  1-F ) :   0.8180 

-------
TIMINGS
-------

Total SCF time: 0 days 0 hours 2 min 54 sec 

Total time                  ....     174.259 sec
Sum of individual times     ....     173.937 sec  ( 99.8%)

Fock matrix formation       ....     173.602 sec  ( 99.6%)
  XC integration            ....       0.366 sec  (  0.2% of F)
    Basis function eval.    ....       0.072 sec  ( 19.7% of XC)
    Density eval.           ....       0.048 sec  ( 13.0% of XC)
    XC-Functional eval.     ....       0.017 sec  (  4.5% of XC)
    XC-Potential eval.      ....       0.118 sec  ( 32.4% of XC)
Diagonalization             ....       0.036 sec  (  0.0%)
Density matrix formation    ....       0.005 sec  (  0.0%)
Population analysis         ....       0.003 sec  (  0.0%)
Initial guess               ....       0.101 sec  (  0.1%)
Orbital Transformation      ....       0.000 sec  (  0.0%)
Orbital Orthonormalization  ....       0.000 sec  (  0.0%)
DIIS solution               ....       0.018 sec  (  0.0%)
Grid generation             ....       0.173 sec  (  0.1%)

-------------------------   --------------------
FINAL SINGLE POINT ENERGY      -860.548830346164
-------------------------   --------------------


                            ***************************************
                            *     ORCA property calculations      *
                            ***************************************

                                    ---------------------
                                    Active property flags
                                    ---------------------
   (+) Dipole Moment


------------------------------------------------------------------------------
                       ORCA ELECTRIC PROPERTIES CALCULATION
------------------------------------------------------------------------------

Dipole Moment Calculation                       ... on
Quadrupole Moment Calculation                   ... off
Polarizability Calculation                      ... off
GBWName                                         ... 02_ScF.gbw
Electron density file                           ... 02_ScF.scfp
The origin for moment calculation is the CENTER OF MASS  = ( 0.000000,  0.000000  1.202091)

-------------
DIPOLE MOMENT
-------------
                                X             Y             Z
Electronic contribution:      0.00000       0.00000      -1.16705
Nuclear contribution   :      0.00000       0.00000       0.30099
                        -----------------------------------------
Total Dipole Moment    :      0.00000       0.00000      -0.86606
                        -----------------------------------------
Magnitude (a.u.)       :      0.86606
Magnitude (Debye)      :      2.20135



--------------------
Rotational spectrum 
--------------------
 
Rotational constants in cm-1:     0.000000     0.392705     0.392705 
Rotational constants in MHz :     0.000000 11772.989606 11772.989606 

 Dipole components along the rotational axes: 
x,y,z [a.u.] :    -0.866059     0.000000     0.000000 
x,y,z [Debye]:    -2.201347     0.000000     0.000000 

 

Timings for individual modules:

Sum of individual times         ...      177.700 sec (=   2.962 min)
GTO integral calculation        ...        2.924 sec (=   0.049 min)   1.6 %
SCF iterations                  ...      174.776 sec (=   2.913 min)  98.4 %
                             ****ORCA TERMINATED NORMALLY****
TOTAL RUN TIME: 0 days 0 hours 2 minutes 58 seconds 316 msec
