
                                 *****************
                                 * O   R   C   A *
                                 *****************

           --- An Ab Initio, DFT and Semiempirical electronic structure package ---

                  #######################################################
                  #                        -***-                        #
                  #          Department of theory and spectroscopy      #
                  #               Directorship: Frank Neese             #
                  #        Max Planck Institute fuer Kohlenforschung    #
                  #                Kaiser Wilhelm Platz 1               #
                  #                 D-45470 Muelheim/Ruhr               #
                  #                      Germany                        #
                  #                                                     #
                  #                  All rights reserved                #
                  #                        -***-                        #
                  #######################################################


                         Program Version 4.2.0 -  RELEASE  -


 With contributions from (in alphabetic order):
   Daniel Aravena         : Magnetic Suceptibility
   Michael Atanasov       : Ab Initio Ligand Field Theory (pilot matlab implementation)
   Alexander A. Auer      : GIAO ZORA, VPT2
   Ute Becker             : Parallelization
   Giovanni Bistoni       : ED, misc. LED, open-shell LED, HFLED
   Martin Brehm           : Molecular dynamics
   Dmytro Bykov           : SCF Hessian
   Vijay G. Chilkuri      : MRCI spin determinant printing, contributions to CSF-ICE
   Dipayan Datta          : RHF DLPNO-CCSD density
   Achintya Kumar Dutta   : EOM-CC, STEOM-CC
   Dmitry Ganyushin       : Spin-Orbit,Spin-Spin,Magnetic field MRCI
   Miquel Garcia          : C-PCM Hessian, Gaussian charge scheme
   Yang Guo               : DLPNO-NEVPT2, CIM, IAO-localization
   Andreas Hansen         : Spin unrestricted coupled pair/coupled cluster methods
   Benjamin Helmich-Paris : CASSCF linear response (MC-RPA)
   Lee Huntington         : MR-EOM, pCC
   Robert Izsak           : Overlap fitted RIJCOSX, COSX-SCS-MP3, EOM
   Christian Kollmar      : KDIIS, OOCD, Brueckner-CCSD(T), CCSD density
   Simone Kossmann        : Meta GGA functionals, TD-DFT gradient, OOMP2, MP2 Hessian
   Martin Krupicka        : AUTO-CI
   Lucas Lang             : DCDCAS
   Dagmar Lenk            : GEPOL surface, SMD
   Dimitrios Liakos       : Extrapolation schemes; Compound Job, initial MDCI parallelization
   Dimitrios Manganas     : Further ROCIS development; embedding schemes
   Dimitrios Pantazis     : SARC Basis sets
   Taras Petrenko         : DFT Hessian,TD-DFT gradient, ASA, ECA, R-Raman, ABS, FL, XAS/XES, NRVS
   Peter Pinski           : DLPNO-MP2, DLPNO-MP2 Gradient
   Christoph Reimann      : Effective Core Potentials
   Marius Retegan         : Local ZFS, SOC
   Christoph Riplinger    : Optimizer, TS searches, QM/MM, DLPNO-CCSD(T), (RO)-DLPNO pert. Triples
   Tobias Risthaus        : Range-separated hybrids, TD-DFT gradient, RPA, STAB
   Michael Roemelt        : Original ROCIS implementation
   Masaaki Saitow         : Open-shell DLPNO-CCSD energy and density
   Barbara Sandhoefer     : DKH picture change effects
   Avijit Sen             : IP-ROCIS
   Kantharuban Sivalingam : CASSCF convergence, NEVPT2, FIC-MRCI
   Bernardo de Souza      : ESD, SOC TD-DFT
   Georgi Stoychev        : AutoAux, RI-MP2 NMR
   Willem Van den Heuvel  : Paramagnetic NMR
   Boris Wezisla          : Elementary symmetry handling
   Frank Wennmohs         : Technical directorship


 We gratefully acknowledge several colleagues who have allowed us to
 interface, adapt or use parts of their codes:
   Stefan Grimme, W. Hujo, H. Kruse,             : VdW corrections, initial TS optimization,
                  C. Bannwarth                     DFT functionals, gCP, sTDA/sTD-DF
   Ed Valeev, F. Pavosevic, A. Kumar             : LibInt (2-el integral package), F12 methods
   Garnet Chan, S. Sharma, J. Yang, R. Olivares  : DMRG
   Ulf Ekstrom                                   : XCFun DFT Library
   Mihaly Kallay                                 : mrcc  (arbitrary order and MRCC methods)
   Andreas Klamt, Michael Diedenhofen            : otool_cosmo (COSMO solvation model)
   Jiri Pittner, Ondrej Demel                    : Mk-CCSD
   Frank Weinhold                                : gennbo (NPA and NBO analysis)
   Christopher J. Cramer and Donald G. Truhlar   : smd solvation model
   Lars Goerigk                                  : TD-DFT with DH, B97 family of functionals
   V. Asgeirsson, H. Jonsson                     : NEB implementation
   FAccTs GmbH                                   : IRC, NEB, NEB-TS, Multilevel, MM, QM/MM, CI optimization
   S Lehtola, MJT Oliveira, MAL Marques          : LibXC Library


 Your calculation uses the libint2 library for the computation of 2-el integrals
 For citations please refer to: http://libint.valeyev.net

 Your ORCA version has been built with support for libXC version: 4.2.3
 For citations please refer to: https://tddft.org/programs/libxc/

 This ORCA versions uses:
   CBLAS   interface :  Fast vector & matrix operations
   LAPACKE interface :  Fast linear algebra routines
   SCALAPACK package :  Parallel linear algebra routines


Your calculation utilizes the DFT-NL dispersion correction.
Cite in your paper:
Vydrov, O. A.; Van Voorhis, T. J. Chem. Phys. 2010, 133, 244103
Hujo, W.; Grimme, S. J. Chem. Theory Comput. 2011, 7, 3866 
   

----- Orbital basis set information -----
Your calculation utilizes the basis: aug-cc-pVTZ 
    H, B-Ne : Obtained from the ccRepo (grant-hill.group.shef.ac.uk/ccrepo) Feb. 2017
              R. A. Kendall, T. H. Dunning, Jr., R. J. Harrison, J. Chem. Phys. 96, 6796 (1992)
         He : Obtained from the ccRepo (grant-hill.group.shef.ac.uk/ccrepo) Feb. 2017
              D. E. Woon, T. H. Dunning, Jr., J. Chem. Phys. 100, 2975 (1994)
  Li-Be, Na : Obtained from the ccRepo (grant-hill.group.shef.ac.uk/ccrepo) Feb. 2017
              B. P. Prascher, D. E. Woon, K. A. Peterson, T. H. Dunning, Jr., A. K. Wilson, Theor. Chem. Acc. 128, 69 (2011)
         Mg : Obtained from the Peterson Research Group Website (tyr0.chem.wsu.edu/~kipeters) Feb. 2017
              B. P. Prascher, D. E. Woon, K. A. Peterson, T. H. Dunning, Jr., A. K. Wilson, Theor. Chem. Acc. 128, 69 (2011)
      Al-Ar : Obtained from the ccRepo (grant-hill.group.shef.ac.uk/ccrepo) Feb. 2017
              D. E. Woon, T. H. Dunning, Jr., J. Chem. Phys. 98, 1358 (1993)
      Sc-Zn : Obtained from the ccRepo (grant-hill.group.shef.ac.uk/ccrepo) Feb. 2017
              N. B. Balabanov, K. A. Peterson, J. Chem. Phys. 123, 064107 (2005)
              N. B. Balabanov, K. A. Peterson, J. Chem. Phys. 125, 074110 (2006)
      Ga-Kr : Obtained from the ccRepo (grant-hill.group.shef.ac.uk/ccrepo) Feb. 2017
              A. K. Wilson, D. E. Woon, K. A. Peterson, T. H. Dunning, Jr., J. Chem. Phys. 110, 7667 (1999)
     Ag, Au : Obtained from the Peterson Research Group Website (tyr0.chem.wsu.edu/~kipeters) Feb. 2017
              K. A. Peterson, C. Puzzarini, Theor. Chem. Acc. 114, 283 (2005)

----- AuxJK basis set information -----
Your calculation utilizes the auxiliary basis: def2/JK
   H-Ba, Hf-Rn: F. Weigend, J. Comput. Chem. 29, 167 (2008).

================================================================================
                                        WARNINGS
                       Please study these warnings very carefully!
================================================================================


WARNING: your system is open-shell and RHF/RKS was chosen
  ===> : WILL SWITCH to UHF/UKS


INFO   : the flag for use of LIBINT has been found!

================================================================================
                                       INPUT FILE
================================================================================
NAME = 14_VF.in
|  1> #
|  2> # 14_VF wb97m-v/aug-cc-pvtz
|  3> #
|  4> ! wb97m-v aug-cc-pvtz def2/jk grid4 nofinalgrid slowconv
|  5> 
|  6> *xyz 0 5
|  7>   V   0.00000000000000      0.00000000000000      0.09137228252025
|  8>   F   0.00000000000000      0.00000000000000      1.90862771747975
|  9> *
| 10> 
| 11> %scf
| 12> maxiter 300
| 13> diismaxeq 15
| 14> directresetfreq 1
| 15> end
| 16> 
| 17> %pal
| 18> nprocs 24
| 19> end
| 20> 
| 21> 
| 22>                          ****END OF INPUT****
================================================================================

                       ****************************
                       * Single Point Calculation *
                       ****************************

---------------------------------
CARTESIAN COORDINATES (ANGSTROEM)
---------------------------------
  V      0.000000    0.000000    0.091372
  F      0.000000    0.000000    1.908628

----------------------------
CARTESIAN COORDINATES (A.U.)
----------------------------
  NO LB      ZA    FRAG     MASS         X           Y           Z
   0 V    23.0000    0    50.940    0.000000    0.000000    0.172669
   1 F     9.0000    0    18.998    0.000000    0.000000    3.606784

--------------------------------
INTERNAL COORDINATES (ANGSTROEM)
--------------------------------
 V      0   0   0     0.000000000000     0.00000000     0.00000000
 F      1   0   0     1.817255434959     0.00000000     0.00000000

---------------------------
INTERNAL COORDINATES (A.U.)
---------------------------
 V      0   0   0     0.000000000000     0.00000000     0.00000000
 F      1   0   0     3.434115087453     0.00000000     0.00000000

---------------------
BASIS SET INFORMATION
---------------------
There are 2 groups of distinct atoms

 Group   1 Type V   : 116s77p23d3f2g contracted to 8s7p5d3f2g pattern {19191919191911/151515151511/77711/111/11}
 Group   2 Type F   : 19s6p3d2f contracted to 5s4p3d2f pattern {88111/3111/111/11}

Atom   0V    basis set group =>   1
Atom   1F    basis set group =>   2
----------------------------------
AUXILIARY/JK BASIS SET INFORMATION
----------------------------------
There are 2 groups of distinct atoms

 Group   1 Type V   : 19s14p12d10f7g3h1i contracted to 16s13p11d9f5g3h1i pattern {4111111111111111/2111111111111/21111111111/211111111/31111/111/1}
 Group   2 Type F   : 14s10p6d2f1g contracted to 10s8p4d2f1g pattern {5111111111/31111111/3111/11/1}

Atom   0V    basis set group =>   1
Atom   1F    basis set group =>   2


           ************************************************************
           *        Program running with 24 parallel MPI-processes    *
           *              working on a common directory               *
           ************************************************************
------------------------------------------------------------------------------
                           ORCA GTO INTEGRAL CALCULATION
------------------------------------------------------------------------------

                         BASIS SET STATISTICS AND STARTUP INFO

 # of primitive gaussian shells          ...  251
 # of primitive gaussian functions       ...  567
 # of contracted shells                  ...   39
 # of contracted basis functions         ...  139
 Highest angular momentum                ...    4
 Maximum contraction depth               ...   19
 Integral package used                   ... LIBINT
 Integral threshhold            Thresh   ...  1.000e-10
 Primitive cut-off              TCut     ...  1.000e-11


------------------------------ INTEGRAL EVALUATION ----------------------------


 * One electron integrals 
 Pre-screening matrix                    ... done
 Shell pair data                         ... done (   0.001 sec)



           ************************************************************
           *        Program running with 24 parallel MPI-processes    *
           *              working on a common directory               *
           ************************************************************
-------------------------------------------------------------------------------
                                 ORCA SCF
-------------------------------------------------------------------------------

------------
SCF SETTINGS
------------
Hamiltonian:
 Density Functional     Method          .... DFT(GTOs)
 Exchange Functional    Exchange        .... WB97M-V
 Correlation Functional Correlation     .... WB97M-V
 Gradients option       PostSCFGGA      .... off
 Hybrid DFT is turned on
   Fraction HF Exchange ScalHFX         ....  0.150000
   Scaling of DF-GGA-X  ScalDFX         ....  0.000000
   Scaling of DF-GGA-C  ScalDFC         ....  1.000000
   Scaling of DF-LDA-C  ScalLDAC        ....  1.000000
   Perturbative correction              ....  0.000000
   Density functional embedding theory  .... OFF
 Long-range corrected/Screened/Range-Separated Hybrid DFT is turned on
   Amount of maximum screened exact exchange              ....  0.850000
   Range separation parameter mu (erf(mu*r12)/r12)        ....  0.300000
   NL short-range parameter             ....  6.000000
   NL long-range parameter              ....  0.010000


General Settings:
 Integral files         IntName         .... 14_VF
 Hartree-Fock type      HFTyp           .... UHF
 Total Charge           Charge          ....    0
 Multiplicity           Mult            ....    5
 Number of Electrons    NEL             ....   32
 Basis Dimension        Dim             ....  139
 Nuclear Repulsion      ENuc            ....     60.2775372195 Eh

Convergence Acceleration:
 DIIS                   CNVDIIS         .... on
   Start iteration      DIISMaxIt       ....     0
   Startup error        DIISStart       ....  0.200000
   # of expansion vecs  DIISMaxEq       ....    15
   Bias factor          DIISBfac        ....   1.050
   Max. coefficient     DIISMaxC        ....  10.000
 Newton-Raphson         CNVNR           .... off
 SOSCF                  CNVSOSCF        .... off
 Level Shifting         CNVShift        .... on
   Level shift para.    LevelShift      ....    0.2500
   Turn off err/grad.   ShiftErr        ....    0.0000
 Zerner damping         CNVZerner       .... off
 Static damping         CNVDamp         .... on
   Fraction old density DampFac         ....    0.8500
   Max. Damping (<1)    DampMax         ....    0.9800
   Min. Damping (>=0)   DampMin         ....    0.0000
   Turn off err/grad.   DampErr         ....    0.0300
 Fernandez-Rico         CNVRico         .... off

SCF Procedure:
 Maximum # iterations   MaxIter         ....   300
 SCF integral mode      SCFMode         .... Direct
   Integral package                     .... LIBINT
 Reset frequency        DirectResetFreq ....     1
 Integral Threshold     Thresh          ....  1.000e-10 Eh
 Primitive CutOff       TCut            ....  1.000e-11 Eh

Convergence Tolerance:
 Convergence Check Mode ConvCheckMode   .... Total+1el-Energy
 Convergence forced     ConvForced      .... 0
 Energy Change          TolE            ....  1.000e-06 Eh
 1-El. energy change                    ....  1.000e-03 Eh
 DIIS Error             TolErr          ....  1.000e-06


Diagonalization of the overlap matrix:
Smallest eigenvalue                        ... 5.885e-05
Time for diagonalization                   ...    0.005 sec
Threshold for overlap eigenvalues          ... 1.000e-08
Number of eigenvalues below threshold      ... 0
Time for construction of square roots      ...    0.004 sec
Total time needed                          ...    0.009 sec

-------------------
DFT GRID GENERATION
-------------------

General Integration Accuracy     IntAcc      ...  4.670
Radial Grid Type                 RadialGrid  ... Gauss-Chebyshev
Angular Grid (max. acc.)         AngularGrid ... Lebedev-302
Angular grid pruning method      GridPruning ... 3 (G Style)
Weight generation scheme         WeightScheme... Becke
Basis function cutoff            BFCut       ...    1.0000e-10
Integration weight cutoff        WCut        ...    1.0000e-14
Grids for H and He will be reduced by one unit

# of grid points (after initial pruning)     ...  15936 (   0.0 sec)
# of grid points (after weights+screening)   ...  15892 (   0.0 sec)
nearest neighbour list constructed           ...    0.0 sec
Grid point re-assignment to atoms done       ...    0.0 sec
Grid point division into batches done        ...    0.1 sec
Reduced shell lists constructed in    0.1 sec

Total number of grid points                  ...    15892
Total number of batches                      ...      250
Average number of points per batch           ...       63
Average number of grid points per atom       ...     7946
Average number of shells per batch           ...    16.92 (43.38%)
Average number of basis functions per batch  ...    44.08 (31.71%)
Average number of large shells per batch     ...    11.33 (67.00%)
Average number of large basis fcns per batch ...    30.00 (68.05%)
Maximum spatial batch extension              ...  28.57, 31.41, 18.56 au
Average spatial batch extension              ...   0.88,  0.94,  0.67 au

Time for grid setup =    0.150 sec

------------------------------
INITIAL GUESS: MODEL POTENTIAL
------------------------------
Loading Hartree-Fock densities                     ... done
Calculating cut-offs                               ... done
Setting up the integral package                    ... done
Initializing the effective Hamiltonian             ... done
Starting the Coulomb interaction                   ... done (   0.0 sec)
Reading the grid                                   ... done
Mapping shells                                     ... done
Starting the XC term evaluation                    ... done (   0.0 sec)
  promolecular density results
     # of electrons  =     32.000010430
     EX              =    -53.906199021
     EC              =     -1.258308765
     EX+EC           =    -55.164507787
Transforming the Hamiltonian                       ... done (   0.0 sec)
Diagonalizing the Hamiltonian                      ... done (   0.0 sec)
Back transforming the eigenvectors                 ... done (   0.0 sec)
Now organizing SCF variables                       ... done
                      ------------------
                      INITIAL GUESS DONE (   0.2 sec)
                      ------------------
--------------
SCF ITERATIONS
--------------
ITER       Energy         Delta-E        Max-DP      RMS-DP      [F,P]     Damp
  0  -1043.8352649664   0.000000000000108.81222109  1.02253808  0.2948605 0.8500
  1  -1043.3718725942   0.46339237216416.35954082  0.15366469  0.0676530 0.8500
                               ***Turning on DIIS***
  2  -1043.4629615950  -0.09108900075413.90419319  0.13060416  0.0545070 0.8500
  3  -1043.5368427592  -0.07388116425311.81799668  0.11100927  0.0605049 0.8500
  4  -1043.5974023928  -0.06055963363310.04525892  0.09435762  0.0756743 0.8500
  5  -1043.6473445861  -0.049942193210 8.53845852  0.08020392  0.0878743 0.8500
  6  -1043.6886464734  -0.041301887390 7.25768650  0.06817332  0.0982335 0.8500
  7  -1043.7228583768  -0.034211903366 6.16903683  0.05794734  0.1071593 0.8500
  8  -1043.7512339997  -0.028375622916 5.24369216  0.04925531  0.1148894 0.8500
  9  -1043.7747942482  -0.023560248429 4.45715367  0.04186711  0.1216049 0.8500
 10  -1043.7943729041  -0.019578655922 3.78859689  0.03558710  0.1274499 0.8500
 11  -1043.8106538605  -0.016280956423 3.22032213  0.03024901  0.1325365 0.8500
 12  -1043.8242018407  -0.013547980223 2.73728735  0.02571144  0.1369525 0.8500
 13  -1043.8354915490  -0.011289708268 2.32670890  0.02185420  0.1407738 0.8500
 14  -1043.8448951202  -0.009403571246 1.97767827  0.01857556  0.1440554 0.8500
 15  -1043.8526749447  -0.007779824450 1.68084133  0.01578832  0.1468469 0.8500
 16  -1043.8591196768  -0.006444732161 1.42869466  0.01342037  0.1491943 0.8500
 17  -1043.8644825471  -0.005362870277 1.21428527  0.01140674  0.1511943 0.8500
 18  -1043.8689543505  -0.004471803373 1.03205220  0.00969511  0.1527629 0.8500
 19  -1043.8727361677  -0.003781817190 0.87722261  0.00823983  0.1538185 0.8500
 20  -1043.8759921697  -0.003256002064 0.74581806  0.00700292  0.1542519 0.8500
 21  -1043.8788702907  -0.002878120986 0.63343745  0.00594763  0.1539125 0.8500
 22  -1043.8815167595  -0.002646468749 0.53680568  0.00504439  0.1525680 0.8500
 23  -1043.8841127872  -0.002596027764 0.45378291  0.00427266  0.1497334 0.8500
 24  -1043.8870400448  -0.002927257581 0.38532323  0.00362987  0.1439933 0.8500
 25  -1043.8914489069  -0.00440886210114.38979277  0.25187985  0.1301303 0.8500
 26  -1043.2767817227   0.614667184207 4.71468846  0.05731279  0.1147114 0.8500
 27  -1043.2655863191   0.011195403595 4.05243002  0.04769225  0.1319463 0.8500
 28  -1043.2684344233  -0.002848104175 4.18811618  0.04613420  0.1450087 0.8500
 29  -1043.2756554180  -0.007220994660 4.15699766  0.04382994  0.1592674 0.8500
 30  -1043.2842683331  -0.008612915152 3.68686946  0.03844490  0.1714595 0.8500
 31  -1043.2934421867  -0.009173853585 3.17848556  0.03303032  0.1819210 0.8500
 32  -1043.3027360675  -0.009293880775 2.65971927  0.02774757  0.1908931 0.8500
 33  -1043.3120047362  -0.009268668745 2.12633981  0.02252158  0.1985640 0.8500
 34  -1043.3213063216  -0.009301585419 1.62365001  0.01739235  0.2050879 0.8500
 35  -1043.3307928412  -0.009486519599 1.15773282  0.01252357  0.2105967 0.8500
 36  -1043.3406101441  -0.009817302832 0.69270210  0.00842948  0.2152078 0.8500
 37  -1043.3508479544  -0.010237810347 0.36944106  0.00638832  0.2190287 0.8500
 38  -1043.3614810071  -0.010633052726 0.46729265  0.00685383  0.2221646 0.8500
 39  -1043.3722461486  -0.010765141470 0.62257229  0.00732020  0.2247297 0.8500
 40  -1043.3825267647  -0.010280616085 6.74877871  0.06363261  0.2268540 0.8500
 41  -1043.4707283566  -0.088201591875 5.74071690  0.05412587  0.1623678 0.8500
 42  -1043.5426964458  -0.071968089215 4.87984704  0.04600866  0.1120795 0.8500
 43  -1043.6015146872  -0.058818241440 4.14758073  0.03910464  0.0729177 0.8500
 44  -1043.6501561564  -0.048641469175 3.52533122  0.03323793  0.0573468 0.8500
 45  -1043.6907050853  -0.040548928901 2.99665382  0.02825335  0.0490709 0.8500
 46  -1043.7246959286  -0.033990843311 2.54748720  0.02401827  0.0420206 0.8500
 47  -1043.7533002584  -0.028604329812 2.16578606  0.02041929  0.0360220 0.8500
 48  -1043.7774343555  -0.024134097043 1.84126437  0.01735968  0.0397481 0.8500
 49  -1043.7978222045  -0.020387849011 1.56530704  0.01475784  0.0513692 0.8500
 50  -1043.8150455226  -0.017223318075 1.33065616  0.01254561  0.0611836 0.8500
 51  -1043.8295769192  -0.014531396680 1.13112156  0.01066430  0.0695311 0.8500
 52  -1043.8418095251  -0.012232605817 0.96149244  0.00906500  0.0766891 0.8500
 53  -1043.8520782289  -0.010268703865 0.81726681  0.00770528  0.0828639 0.8500
 54  -1043.8606729039  -0.008594674989 0.69459617  0.00654881  0.0882175 0.8500
 55  -1043.8678478045  -0.007174900618 0.59024746  0.00556508  0.0928830 0.8500
 56  -1043.8738169237  -0.005969119147 0.50146201  0.00472810  0.0969757 0.8500
 57  -1043.8787750405  -0.004958116790 0.42602379  0.00401691  0.1005513 0.8500
 58  -1043.8828903317  -0.004115291198 0.36194640  0.00341280  0.1036401 0.8500
 59  -1043.8863028984  -0.003412566715 0.30749558  0.00289943  0.1062741 0.8500
 60  -1043.8891315268  -0.002828628446 0.26118540  0.00246281  0.1084809 0.8500
 61  -1043.8914792428  -0.002347715943 0.22179332  0.00209143  0.1102564 0.8500
 62  -1043.8934521661  -0.001972923364 0.18839521  0.00177654  0.1115149 0.8500
 63  -1043.8951548676  -0.001702701486 0.16011969  0.00150978  0.1121449 0.8500
 64  -1043.8966723957  -0.001517528115 0.13608249  0.00128282  0.1120660 0.8500
 65  -1043.8980675509  -0.001395155177 0.11546692  0.00108879  0.1112055 0.8500
 66  -1043.8994078631  -0.001340312178 0.09793533  0.00092452  0.1093580 0.8500
 67  -1043.9008375109  -0.001429647769 0.08436764  0.00079536  0.1059032 0.8500
 68  -1043.9026696941  -0.001832183250 3.62963777  0.03908846  0.0993549 0.8500
 69  -1043.8533240077   0.049345686450 0.59884204  0.00607218  0.0330003 0.8500
 70  -1043.8638662568  -0.010542249167 0.51407083  0.00518621  0.0401690 0.8500
 71  -1043.8727499793  -0.008883722434 0.44275712  0.00444334  0.0475799 0.8500
 72  -1043.8801465729  -0.007396593621 0.37846271  0.00378903  0.0537633 0.8500
 73  -1043.8863308668  -0.006184293904 0.32245861  0.00322484  0.0586213 0.8500
 74  -1043.8915207958  -0.005189929055 0.27437766  0.00274260  0.0623106 0.8500
 75  -1043.8958862767  -0.004365480856 0.23331159  0.00233167  0.0650370 0.8500
 76  -1043.8995622932  -0.003676016495 0.19830896  0.00198192  0.0669994 0.8500
 77  -1043.9026602752  -0.003097982032 0.16850838  0.00168437  0.0683690 0.8500
 78  -1043.9052677696  -0.002607494341 0.14191587  0.00142608  0.0692839 0.8500
 79  -1043.9076892937  -0.002421524171 0.12102843  0.00121400  0.0681391 0.8500
 80  -1043.9097732497  -0.002083956006 0.10292900  0.00103261  0.0666022 0.8500
 81  -1043.9115449061  -0.001771656337 0.08740619  0.00087668  0.0649706 0.8500
 82  -1043.9130534243  -0.001508518251 0.07408944  0.00074515  0.0632213 0.8500
 83  -1043.9143804339  -0.001327009564 0.06036272  0.00062420  0.0609898 0.8500
 84  -1043.9157855185  -0.001405084575 0.05034916  0.00058147  0.0563029 0.8500
 85  -1043.9172455005  -0.001459981993 0.04427669  0.00074679  0.0492138 0.8500
 86  -1043.9186159145  -0.001370414028 0.24248201  0.00206276  0.0402955 0.8500
 87  -1043.9194186134  -0.000802698901 0.07287283  0.00065485  0.0318266 0.8500
 88  -1043.9203437273  -0.000925113928 0.46543909  0.00405586  0.0256732 0.0000
 89  -1043.9251690464  -0.004825319063 0.25712907  0.00304483  0.0061358 0.0000
 90  -1043.9250309843   0.000138062122 0.05522049  0.00067935  0.0059692 0.0000
 91  -1043.9252331973  -0.000202213092 0.09898366  0.00099650  0.0046836 0.0000
 92  -1043.9253029560  -0.000069758698 0.22472265  0.00198704  0.0048155 0.0000
 93  -1043.9254736343  -0.000170678235 0.17974300  0.00166496  0.0102785 0.0000
 94  -1043.9257261035  -0.000252469224 0.07146907  0.00076758  0.0047992 0.0000
 95  -1043.9256651112   0.000060992258 0.01884431  0.00038882  0.0054952 0.0000
 96  -1043.9256858107  -0.000020699465 0.11098014  0.00143141  0.0075860 0.0000
 97  -1043.9254718360   0.000213974731 0.05036802  0.00100701  0.0044801 0.0000
 98  -1043.9252930112   0.000178824830 0.09727074  0.00141508  0.0101186 0.0000
 99  -1043.9246079957   0.000685015436 0.09742046  0.00109348  0.0134916 0.0000
100  -1043.9238788490   0.000729146707 0.07729358  0.00074820  0.0153070 0.0000
101  -1043.9233368322   0.000542016771 0.08772281  0.00080078  0.0145459 0.0000
102  -1043.9228836920   0.000453140265 0.08756257  0.00076950  0.0162410 0.0000
103  -1043.9224175561   0.000466135923 0.02157122  0.00020885  0.0163989 0.0000
104  -1043.9221745207   0.000243035368 0.19294410  0.00173918  0.0171870 0.0000
105  -1043.9213957807   0.000778739965 0.01163605  0.00019880  0.0179767 0.0000
106  -1043.9212143946   0.000181386165 0.04932117  0.00047503  0.0185602 0.0000
107  -1043.9209581365   0.000256258051 0.05580278  0.00056714  0.0186500 0.0000
108  -1043.9208534072   0.000104729256 0.60023190  0.00717893  0.0184482 0.0000
109  -1043.9247025902  -0.003849182980 0.13409656  0.00144592  0.0113839 0.0000
110  -1043.9250421694  -0.000339579217 0.08699413  0.00085599  0.0095634 0.0000
111  -1043.9252413945  -0.000199225068 0.03072039  0.00038896  0.0093944 0.0000
112  -1043.9251850378   0.00005635675991.81490149  1.19409217  0.0104147 0.0000
113  -1043.0564228585   0.868762179249 8.65279885  0.08245913  0.3511809 0.8500
114  -1043.0593738675  -0.00295100895810.16849669  0.09441133  0.3516951 0.8500
115  -1043.0618623478  -0.002488480337 4.19110810  0.06133647  0.3527337 0.8500
116  -1043.0531681339   0.008694213881 4.73765277  0.07764995  0.3552674 0.8500
117  -1043.0168146051   0.036353528805 9.82621217  0.12681068  0.3607403 0.8500
118  -1042.9896448266   0.02716977846711.97018706  0.14992608  0.3650162 0.8500
119  -1042.9907265981  -0.00108177141211.38241922  0.14226689  0.3662179 0.8500
120  -1043.0072232335  -0.016496635435 9.87483987  0.12396370  0.3657770 0.8500
121  -1043.0283532113  -0.021129977787 8.33473548  0.10559942  0.3648287 0.8500
122  -1043.0503097102  -0.021956498941 6.88346559  0.08906895  0.3637887 0.8500
123  -1043.0720013145  -0.021691604327 5.17907669  0.07404121  0.3627866 0.8500
124  -1043.0973963118  -0.025394997239 5.11230484  0.06605962  0.3618478 0.8500
125  -1043.1182476732  -0.020851361432 4.57247600  0.05670747  0.3609666 0.8500
126  -1043.1320600538  -0.013812380537 3.25569086  0.04633072  0.3601734 0.8500
127  -1043.1454776674  -0.013417613610 4.38265926  0.04649726  0.3595033 0.8500
128  -1043.3056043327  -0.160126665310 3.72648611  0.03953445  0.2161490 0.8500
129  -1043.4197240129  -0.114119680179 3.16804643  0.03360882  0.1407808 0.8500
130  -1043.5069674507  -0.087243437801 2.69353990  0.02857190  0.0886154 0.8500
131  -1043.5759537289  -0.068986278262 2.28967390  0.02428812  0.0494645 0.8500
132  -1043.6315988518  -0.05564512291212.97573693  0.13764089  0.0232378 0.0000
133  -1043.8981879547  -0.266589102874 0.00132727  0.00002263  0.1469001 0.8500
134  -1043.8986017475  -0.000413792776 0.00198698  0.00003754  0.1456900 0.8500
135  -1043.8990816731  -0.000479925665112.87010642  0.94579628  0.1443166 0.8500
136  -1043.8132437681   0.08583790502916.68042636  0.14405333  0.0844816 0.8500
137  -1043.7577100748   0.05553369334514.25361898  0.12891907  0.0356996 0.8500
138  -1043.6949097554   0.06280031934281.94512749  0.70765133  0.0059787 0.0000
139  -1043.9016900836  -0.206780328121 0.00059690  0.00001475  0.1402475 0.8500
140  -1043.9017389572  -0.000048873632 0.00061965  0.00001556  0.1400890 0.8500
141  -1043.9017943481  -0.000055390942 0.00067293  0.00001611  0.1399109 0.8500
142  -1043.9018474385  -0.000053090417 0.00065029  0.00001378  0.1397414 0.8500
143  -1043.9018959799  -0.000048541402 0.00095245  0.00001628  0.1395885 0.8500
144  -1043.9019388466  -0.000042866646 0.00064787  0.00001255  0.1394587 0.8500
145  -1043.9019743913  -0.000035544698 0.00062248  0.00001052  0.1393519 0.8500
146  -1043.9020023308  -0.000027939533 0.00044188  0.00000835  0.1392636 0.8500
147  -1043.9020240184  -0.000021687614 0.00046780  0.00000904  0.1391901 0.8500
148  -1043.9020633138  -0.000039295335 0.00052034  0.00001028  0.1390727 0.8500
149  -1043.9020955494  -0.000032235615 0.00061522  0.00001248  0.1389875 0.8500
150  -1043.9021185867  -0.000023037266 0.00062951  0.00001413  0.1389447 0.8500
151  -1043.9021285562  -0.000009969562 0.00052530  0.00001408  0.1389409 0.8500
152  -1043.9021336280  -0.000005071766 0.00043349  0.00001305  0.1389407 0.8500
153  -1043.9021401331  -0.00000650513088.81311694  0.89132349  0.1389162 0.8500
154  -1043.6589970420   0.24314309108013.32101383  0.13368944  0.0575243 0.8500
155  -1043.7064402889  -0.04744324690211.32274261  0.11363906  0.0352537 0.8500
156  -1043.7450834485  -0.03864315958864.15954105  0.64394334  0.0135926 0.0000
157  -1043.9103000973  -0.165216648807 7.69951562  0.09750713  0.1133299 0.8500
158  -1043.8500063145   0.060293782782 5.70475918  0.06446039  0.0532027 0.8500
159  -1043.7870720926   0.06293422193013.40382778  0.16174932  0.0092486 0.0000
160  -1043.9111756665  -0.124103573870 0.00075778  0.00001467  0.1090941 0.8500
161  -1043.9111588294   0.000016837114 0.00079739  0.00001524  0.1091402 0.8500
162  -1043.9111359561   0.000022873226 0.00071427  0.00001346  0.1092085 0.8500
163  -1043.9111100379   0.000025918245 0.00061893  0.00001152  0.1092900 0.8500
164  -1043.9110818715   0.000028166447 0.00053469  0.00000984  0.1093818 0.8500
165  -1043.9110516011   0.000030270317 0.00046329  0.00000848  0.1094835 0.8500
166  -1043.9110190780   0.000032523089 0.00040424  0.00000738  0.1095957 0.8500
167  -1043.9109841051   0.000034972968 0.00035436  0.00000643  0.1097187 0.8500
168  -1043.9109464477   0.000037657419 0.00031097  0.00000562  0.1098532 0.8500
169  -1043.9109057330   0.000040714659 0.00024469  0.00000455  0.1099999 0.8500
170  -1043.9108735961   0.000032136951 0.00017327  0.00000363  0.1101057 0.8500
171  -1043.9108493578   0.000024238293 0.00219101  0.00004345  0.1101725 0.8500
172  -1043.9110013104  -0.000151952656 0.00267337  0.00005459  0.1090943 0.8500
173  -1043.9111710680  -0.000169757543 0.00274034  0.00005522  0.1079724 0.8500
174  -1043.9113310459  -0.000159977950 3.39366826  0.06288162  0.1069433 0.8500
175  -1043.7843588883   0.126972157654 0.50430476  0.00940151  0.0322082 0.8500
176  -1043.8092211094  -0.024862221140 2.87523222  0.05329747  0.0182547 0.0000
177  -1043.9176701883  -0.108449078881 0.00186691  0.00004224  0.0817412 0.8500
178  -1043.9177857990  -0.000115610703 0.00279938  0.00006208  0.0808197 0.8500
179  -1043.9179189981  -0.000133199096 0.00127792  0.00002842  0.0798095 0.8500
180  -1043.9180368235  -0.000117825447 0.00129641  0.00003052  0.0788444 0.8500
181  -1043.9181460507  -0.000109227213 0.00299300  0.00004509  0.0779605 0.8500
182  -1043.9182503226  -0.000104271883 0.00153836  0.00002897  0.0771722 0.8500
183  -1043.9183360640  -0.000085741384 0.00368991  0.00006882  0.0764993 0.8500
184  -1043.9184077656  -0.000071701635 0.00078873  0.00001733  0.0760214 0.8500
185  -1043.9184579437  -0.000050178081 0.00093621  0.00001772  0.0755966 0.8500
186  -1043.9184872882  -0.000029344438 0.00062379  0.00001333  0.0753038 0.8500
187  -1043.9184915569  -0.000004268732 0.00109518  0.00002182  0.0751804 0.8500
188  -1043.9184677032   0.000023853674 0.00082675  0.00001793  0.0752862 0.8500
189  -1043.9183960922   0.000071611019 0.00047194  0.00001166  0.0756351 0.8500
190  -1043.9182766292   0.000119462950 0.00057543  0.00001395  0.0762861 0.8500
191  -1043.9181734183   0.00010321096312.57706449  0.20822497  0.0768165 0.8500
192  -1043.6639544352   0.254218983076 4.14652981  0.05545713  0.1014777 0.8500
193  -1043.4904979324   0.173456502847 3.31217887  0.03695952  0.1725880 0.8500
194  -1043.3282031860   0.162294746401 2.90008724  0.03052748  0.2386349 0.8500
195  -1043.1795397207   0.148663465221 2.56549780  0.02644642  0.2972945 0.8500
196  -1043.0456042236   0.133935497134 2.25367762  0.02301729  0.3475430 0.8500
197  -1042.9264390593   0.119165164329 1.92481852  0.01964073  0.3905823 0.8500
198  -1042.8213772959   0.105061763417 1.69081950  0.01788865  0.4274317 0.8500
199  -1042.7291676053   0.092209690605 1.44624137  0.01545108  0.4589702 0.8500
200  -1042.6488709557   0.080296649595 1.23033439  0.01324111  0.4859497 0.8500
201  -1042.5792752943   0.069595661349 1.04505466  0.01134240  0.5090149 0.8500
202  -1042.5191709800   0.060104314261 2.22080767  0.03872480  0.5287195 0.8500
203  -1042.4735393862   0.045631593863 3.04695812  0.03819782  0.5455608 0.8500
204  -1042.6112130600  -0.137673673802 3.64573675  0.05393355  0.5066784 0.8500
205  -1042.8847536463  -0.273540586290 3.09918622  0.04585832  0.4196310 0.8500
206  -1043.0977210448  -0.212967398501 2.63399490  0.03898362  0.3453752 0.8500
207  -1043.2613013986  -0.163580353831 2.23861739  0.03313610  0.2875240 0.8500
208  -1043.3881049664  -0.126803567781 1.90283330  0.02815296  0.2428964 0.8500
209  -1043.4871926796  -0.099087713239 1.61709298  0.02391005  0.2089196 0.8500
210  -1043.5655246835  -0.078332003840 1.37357810  0.02030651  0.1831215 0.8500
211  -1043.6279580508  -0.062433367337 1.16721044  0.01723829  0.1639716 0.8500
212  -1043.6778884479  -0.049930397140 0.99222853  0.01462993  0.1505202 0.8500
213  -1043.7177030884  -0.039814640466 0.84227279  0.01239445  0.1423067 0.8500
214  -1043.7490496830  -0.031346594629 0.71511637  0.01048253  0.1391928 0.8500
215  -1043.7731629616  -0.024113278579 0.60809639  0.00886563  0.1410768 0.8500
216  -1043.7917863142  -0.018623352597 0.51685866  0.00754264  0.1477302 0.8500
217  -1043.8084467498  -0.016660435591 0.43917242  0.00643524  0.1516101 0.8500
218  -1043.8244242432  -0.015977493386 0.37327107  0.00546961  0.1507581 0.8500
219  -1043.8381933264  -0.013769083251 0.31712581  0.00462246  0.1492208 0.8500
220  -1043.8489495141  -0.010756187672 0.26935012  0.00389309  0.1496547 0.8500
221  -1043.8573773663  -0.008427852136 0.22897176  0.00328976  0.1509318 0.8500
222  -1043.8650073936  -0.007630027342 0.19521851  0.00280090  0.1497161 0.8500
223  -1043.8720240300  -0.007016636405 0.16760173  0.00246930  0.1457270 0.8500
224  -1043.8776917041  -0.005667674060 0.14481209  0.00230411  0.1406813 0.8500
225  -1043.8831221738  -0.005430469715 0.12358543  0.00206821  0.1306051 0.8500
226  -1043.8869085367  -0.003786362961 0.10456469  0.00178339  0.1211478 0.8500
227  -1043.8906524294  -0.003743892621 0.08878268  0.00152746  0.1093215 0.8500
228  -1043.8943166325  -0.003664203148 0.07578270  0.00130604  0.0974691 0.8500
229  -1043.8977830450  -0.003466412478 0.06498720  0.00111864  0.0864891 0.8500
230  -1043.9010503826  -0.003267337646 0.05565114  0.00095740  0.0762417 0.8500
231  -1043.9041291795  -0.003078796921 0.04752113  0.00081824  0.0664644 0.8500
232  -1043.9069827008  -0.002853521241 0.04049141  0.00069967  0.0571595 0.8500
233  -1043.9095556791  -0.002572978305 0.03444013  0.00060092  0.0485741 0.8500
234  -1043.9118216182  -0.002265939139 0.02924343  0.00052359  0.0409389 0.8500
235  -1043.9137874084  -0.001965790140 0.02477879  0.00047364  0.0343493 0.8500
236  -1043.9154800020  -0.001692593600 0.14533889  0.00298874  0.0287829 0.0000
237  -1043.9223892235  -0.00690922157284.24081853  0.79579157  0.0118800 0.0000
238  -1042.7672557833   1.155133440203 1.80629032  0.03200945  0.4145835 0.8500
239  -1042.7088931510   0.058362632356 2.53482143  0.04704093  0.4281918 0.8500
240  -1042.6205843466   0.088308804400 2.74339759  0.05072664  0.4480909 0.8500
241  -1042.5233680284   0.097216318164 2.80027147  0.05041657  0.4694622 0.8500
242  -1042.4278333391   0.095534689370 3.09643966  0.05129418  0.4900283 0.8500
243  -1042.3381729777   0.089660361314 3.79219260  0.05590486  0.5088922 0.8500
244  -1042.2556052471   0.082567730627 4.86219408  0.06460888  0.5257606 0.8500
245  -1042.1797432951   0.075861951964 6.12625885  0.07562902  0.5406423 0.8500
246  -1042.1069638082   0.072779486899 7.28262020  0.08670585  0.5538591 0.8500
247  -1042.0013488384   0.105614969808 7.95892654  0.10429937  0.5674997 0.8500
248  -1041.7726197949   0.228729043558 7.81087834  0.11110205  0.5851055 0.8500
249  -1041.4967389707   0.275880824212 6.79609327  0.10020835  0.6011704 0.8500
250  -1041.2345380924   0.262200878250 6.01066283  0.08877898  0.6133720 0.8500
251  -1041.0011470419   0.23339105056920.32072762  0.22845940  0.6220722 0.8500
252  -1040.7684450779   0.23270196397821.78006650  0.26391610  0.6268678 0.8500
253  -1041.4730945795  -0.70464950162918.53951319  0.22472802  0.5244528 0.8500
254  -1042.0248870977  -0.55179251818715.77226361  0.19122582  0.4036790 0.8500
255  -1042.4375894391  -0.41270234140213.41098256  0.16259898  0.2963370 0.8500
256  -1042.7431672354  -0.30557779632511.40189434  0.13823388  0.2107561 0.8500
257  -1042.9723410027  -0.229173767313 9.69241719  0.11750638  0.1445185 0.8500
258  -1043.1482035575  -0.175862554760 8.23883569  0.09988331  0.0900915 0.8500
259  -1043.2853434529  -0.137139895411 7.00326027  0.08490257  0.0446792 0.8500
260  -1043.3937266674  -0.10838321454639.68633589  0.48112104  0.0227487 0.0000
261  -1043.8635381133  -0.469811445895 0.00030738  0.00000584  0.2336521 0.8500
262  -1043.8635362945   0.000001818859 0.00027885  0.00000543  0.2336128 0.8500
263  -1043.8635494369  -0.000013142371 0.00022648  0.00000439  0.2335462 0.8500
264  -1043.8636310354  -0.000081598540 0.00017343  0.00000357  0.2333247 0.8500
265  -1043.8637975481  -0.000166512712 0.00013964  0.00000311  0.2329134 0.8500
266  -1043.8640193174  -0.000221769302 0.00010653  0.00000290  0.2323934 0.8500
267  -1043.8642474703  -0.000228152877 0.00008081  0.00000281  0.2318908 0.8500
268  -1043.8644372313  -0.000189761047 0.00009470  0.00000307  0.2315123 0.8500
269  -1043.8646086655  -0.000171434118 0.00018093  0.00000430  0.2312036 0.8500
270  -1043.8647712001  -0.000162534687 0.00032566  0.00000702  0.2309583 0.8500
271  -1043.8649051194  -0.000133919287 0.00053577  0.00001075  0.2308370 0.8500
272  -1043.8649759526  -0.000070833211 0.00071832  0.00001350  0.2309164 0.8500
273  -1043.8649789886  -0.000003035985 5.61094897  0.09355940  0.2311796 0.8500
274  -1043.8123332949   0.052645693715 0.84183539  0.01403502  0.1674754 0.8500
275  -1043.8221000905  -0.00976679557145.06933152  0.63105599  0.1768432 0.8500
276  -1043.7641989703   0.05790112013335.11424885  0.49576779  0.1114752 0.8500
277  -1043.7041013227   0.06009764767321.36228897  0.31608830  0.0630234 0.8500
278  -1043.6534106558   0.05069066685916.12585721  0.35947014  0.0260746 0.0000
279  -1043.3796579503   0.273752705561 9.31520084  0.13175686  0.1764439 0.8500
280  -1043.3856299508  -0.00597200053014.48836249  0.24750172  0.1755160 0.8500
281  -1043.4763712160  -0.09074126517212.34753707  0.21113999  0.1218874 0.8500
282  -1043.5512637649  -0.074892548927 8.77633762  0.12920020  0.0755353 0.8500
283  -1043.5288849042   0.022378860724 6.96054755  0.10075923  0.0890165 0.8500
284  -1043.5056997653   0.023185138888 5.64876908  0.08127826  0.1003334 0.8500
285  -1043.4849111453   0.020788619953 4.67277264  0.06713267  0.1098483 0.8500
286  -1043.4668815997   0.018029545635 3.91108732  0.05618220  0.1178745 0.8500
287  -1043.4514379011   0.015443698581 3.28979858  0.04727649  0.1246717 0.8500
288  -1043.4382447510   0.013193150120 5.90476244  0.11633214  0.1304509 0.8500
289  -1043.5185895664  -0.080344815448 5.01918350  0.09888307  0.0823088 0.8500
290  -1043.5842844769  -0.065694910515 4.26656218  0.08405174  0.0413542 0.8500
291  -1043.6380501408  -0.05376566382324.17637554  0.47628097  0.0068371 0.0000
292  -1043.8838283708  -0.245778230043 0.00040920  0.00000597  0.1934337 0.8500
293  -1043.8838456456  -0.000017274808 0.00061792  0.00000827  0.1933878 0.8500
294  -1043.8838605767  -0.000014931043 0.00064503  0.00000841  0.1933348 0.8500
295  -1043.8838745116  -0.000013934893 0.00060355  0.00000679  0.1932815 0.8500
296  -1043.8838872921  -0.000012780569 0.00054289  0.00000602  0.1932322 0.8500
297  -1043.8838963571  -0.000009065030 0.00050379  0.00000973  0.1931918 0.8500
298  -1043.8838822510   0.000014106159 0.00046042  0.00001128  0.1932048 0.8500
299  -1043.8838565138   0.000025737232 0.00045752  0.00001090  0.1932419 0.8500

               *****************************************************
               *                      ERROR                        *
               *        SCF NOT CONVERGED AFTER 300 CYCLES         *
               *****************************************************


Setting up the DFT-NL grid :

General Integration Accuracy     IntAcc      ...  4.340
Radial Grid Type                 RadialGrid  ... Gauss-Chebyshev
Angular Grid (max. acc.)         AngularGrid ... Lebedev-110
Angular grid pruning method      GridPruning ... 3 (G Style)
Weight generation scheme         WeightScheme... Becke
Basis function cutoff            BFCut       ...    1.0000e-10
Integration weight cutoff        WCut        ...    1.0000e-14
Grids for H and He will be reduced by one unit

# of grid points (after initial pruning)     ...   4712 (   0.0 sec)
# of grid points (after weights+screening)   ...   4687 (   0.0 sec)
nearest neighbour list constructed           ...    0.0 sec
Grid point re-assignment to atoms done       ...    0.0 sec
Grid point division into batches done        ...    0.0 sec
Reduced shell lists constructed in    0.0 sec

Total number of grid points                  ...     4687
Total number of batches                      ...       75
Average number of points per batch           ...       62
Average number of grid points per atom       ...     2344
Average number of shells per batch           ...    22.40 (57.44%)
Average number of basis functions per batch  ...    72.00 (51.80%)
Average number of large shells per batch     ...    16.40 (73.21%)
Average number of large basis fcns per batch ...    51.60 (71.67%)
Maximum spatial batch extension              ...  18.98, 28.73, 15.95 au
Average spatial batch extension              ...   0.93,  1.29,  0.85 au

Final grid set up in    0.0 sec

-------------------------------------------------------------------------------
                         DFT-NL dispersion correction                          
-------------------------------------------------------------------------------

SC Energy -1043.883856514 
NL    Energy 0.135387843 
SC+NL Energy -1043.748468670 
NL done in    0.1 sec
-------------------------------------------------------------------------------

---------------
SCF CONVERGENCE
---------------

  Last Energy change         ...    2.5737e-05  Tolerance :   1.0000e-06
  Last MAX-Density change    ...    3.2976e-04  Tolerance :   1.0000e-05
  Last RMS-Density change    ...    7.9662e-06  Tolerance :   1.0000e-06
  Last DIIS Error            ...    1.9324e-01  Tolerance :   1.0000e-06

             **** DENSITY FILE WAS UPDATED (14_VF.scfp) ****
             **** ENERGY FILE WAS UPDATED (14_VF.en.tmp) ****

     --------------------------------------------------------------------
                                      WARNING
     The wavefunction IS NOT YET CONVERGED! It shows however signs of
     convergence. Therefore the wavefunction will be stored and can be
     used as input for another calculation. 
     DO NOT USE THIS WAVEFUNCTION  FOR ANYHTING ELSE. It is NOT RELIABLE
     --------------------------------------------------------------------

-------
TIMINGS
-------

Total SCF time: 0 days 1 hours 11 min 3 sec 

Total time                  ....    4263.815 sec
Sum of individual times     ....    4262.619 sec  (100.0%)

Fock matrix formation       ....    4258.043 sec  ( 99.9%)
  XC integration            ....      12.560 sec  (  0.3% of F)
    Basis function eval.    ....       1.402 sec  ( 11.2% of XC)
    Density eval.           ....       1.808 sec  ( 14.4% of XC)
    XC-Functional eval.     ....       0.354 sec  (  2.8% of XC)
    XC-Potential eval.      ....       5.126 sec  ( 40.8% of XC)
Diagonalization             ....       1.700 sec  (  0.0%)
Density matrix formation    ....       0.216 sec  (  0.0%)
Population analysis         ....       0.000 sec  (  0.0%)
Initial guess               ....       0.102 sec  (  0.0%)
Orbital Transformation      ....       0.000 sec  (  0.0%)
Orbital Orthonormalization  ....       0.000 sec  (  0.0%)
DIIS solution               ....       2.390 sec  (  0.1%)
Grid generation             ....       0.168 sec  (  0.0%)

-------------------------   --------------------
FINAL SINGLE POINT ENERGY     -1043.748468670366   (Wavefunction not fully converged!)
-------------------------   --------------------



     ------------------------------------------------------------------------------
                                      ERROR
     This wavefunction IS NOT FULLY CONVERGED! 
     You can't use it for properties or numerical calculations !
     Aborting the run ...
     Please restart calculation (with larger maxiter/different convergence flags)
     ------------------------------------------------------------------------------


