
                                 *****************
                                 * O   R   C   A *
                                 *****************

           --- An Ab Initio, DFT and Semiempirical electronic structure package ---

                  #######################################################
                  #                        -***-                        #
                  #          Department of theory and spectroscopy      #
                  #               Directorship: Frank Neese             #
                  #        Max Planck Institute fuer Kohlenforschung    #
                  #                Kaiser Wilhelm Platz 1               #
                  #                 D-45470 Muelheim/Ruhr               #
                  #                      Germany                        #
                  #                                                     #
                  #                  All rights reserved                #
                  #                        -***-                        #
                  #######################################################


                         Program Version 4.2.0 -  RELEASE  -


 With contributions from (in alphabetic order):
   Daniel Aravena         : Magnetic Suceptibility
   Michael Atanasov       : Ab Initio Ligand Field Theory (pilot matlab implementation)
   Alexander A. Auer      : GIAO ZORA, VPT2
   Ute Becker             : Parallelization
   Giovanni Bistoni       : ED, misc. LED, open-shell LED, HFLED
   Martin Brehm           : Molecular dynamics
   Dmytro Bykov           : SCF Hessian
   Vijay G. Chilkuri      : MRCI spin determinant printing, contributions to CSF-ICE
   Dipayan Datta          : RHF DLPNO-CCSD density
   Achintya Kumar Dutta   : EOM-CC, STEOM-CC
   Dmitry Ganyushin       : Spin-Orbit,Spin-Spin,Magnetic field MRCI
   Miquel Garcia          : C-PCM Hessian, Gaussian charge scheme
   Yang Guo               : DLPNO-NEVPT2, CIM, IAO-localization
   Andreas Hansen         : Spin unrestricted coupled pair/coupled cluster methods
   Benjamin Helmich-Paris : CASSCF linear response (MC-RPA)
   Lee Huntington         : MR-EOM, pCC
   Robert Izsak           : Overlap fitted RIJCOSX, COSX-SCS-MP3, EOM
   Christian Kollmar      : KDIIS, OOCD, Brueckner-CCSD(T), CCSD density
   Simone Kossmann        : Meta GGA functionals, TD-DFT gradient, OOMP2, MP2 Hessian
   Martin Krupicka        : AUTO-CI
   Lucas Lang             : DCDCAS
   Dagmar Lenk            : GEPOL surface, SMD
   Dimitrios Liakos       : Extrapolation schemes; Compound Job, initial MDCI parallelization
   Dimitrios Manganas     : Further ROCIS development; embedding schemes
   Dimitrios Pantazis     : SARC Basis sets
   Taras Petrenko         : DFT Hessian,TD-DFT gradient, ASA, ECA, R-Raman, ABS, FL, XAS/XES, NRVS
   Peter Pinski           : DLPNO-MP2, DLPNO-MP2 Gradient
   Christoph Reimann      : Effective Core Potentials
   Marius Retegan         : Local ZFS, SOC
   Christoph Riplinger    : Optimizer, TS searches, QM/MM, DLPNO-CCSD(T), (RO)-DLPNO pert. Triples
   Tobias Risthaus        : Range-separated hybrids, TD-DFT gradient, RPA, STAB
   Michael Roemelt        : Original ROCIS implementation
   Masaaki Saitow         : Open-shell DLPNO-CCSD energy and density
   Barbara Sandhoefer     : DKH picture change effects
   Avijit Sen             : IP-ROCIS
   Kantharuban Sivalingam : CASSCF convergence, NEVPT2, FIC-MRCI
   Bernardo de Souza      : ESD, SOC TD-DFT
   Georgi Stoychev        : AutoAux, RI-MP2 NMR
   Willem Van den Heuvel  : Paramagnetic NMR
   Boris Wezisla          : Elementary symmetry handling
   Frank Wennmohs         : Technical directorship


 We gratefully acknowledge several colleagues who have allowed us to
 interface, adapt or use parts of their codes:
   Stefan Grimme, W. Hujo, H. Kruse,             : VdW corrections, initial TS optimization,
                  C. Bannwarth                     DFT functionals, gCP, sTDA/sTD-DF
   Ed Valeev, F. Pavosevic, A. Kumar             : LibInt (2-el integral package), F12 methods
   Garnet Chan, S. Sharma, J. Yang, R. Olivares  : DMRG
   Ulf Ekstrom                                   : XCFun DFT Library
   Mihaly Kallay                                 : mrcc  (arbitrary order and MRCC methods)
   Andreas Klamt, Michael Diedenhofen            : otool_cosmo (COSMO solvation model)
   Jiri Pittner, Ondrej Demel                    : Mk-CCSD
   Frank Weinhold                                : gennbo (NPA and NBO analysis)
   Christopher J. Cramer and Donald G. Truhlar   : smd solvation model
   Lars Goerigk                                  : TD-DFT with DH, B97 family of functionals
   V. Asgeirsson, H. Jonsson                     : NEB implementation
   FAccTs GmbH                                   : IRC, NEB, NEB-TS, Multilevel, MM, QM/MM, CI optimization
   S Lehtola, MJT Oliveira, MAL Marques          : LibXC Library


 Your calculation uses the libint2 library for the computation of 2-el integrals
 For citations please refer to: http://libint.valeyev.net

 Your ORCA version has been built with support for libXC version: 4.2.3
 For citations please refer to: https://tddft.org/programs/libxc/

 This ORCA versions uses:
   CBLAS   interface :  Fast vector & matrix operations
   LAPACKE interface :  Fast linear algebra routines
   SCALAPACK package :  Parallel linear algebra routines


Your calculation utilizes the DFT-NL dispersion correction.
Cite in your paper:
Vydrov, O. A.; Van Voorhis, T. J. Chem. Phys. 2010, 133, 244103
Hujo, W.; Grimme, S. J. Chem. Theory Comput. 2011, 7, 3866 
   

----- Orbital basis set information -----
Your calculation utilizes the basis: aug-cc-pVTZ 
    H, B-Ne : Obtained from the ccRepo (grant-hill.group.shef.ac.uk/ccrepo) Feb. 2017
              R. A. Kendall, T. H. Dunning, Jr., R. J. Harrison, J. Chem. Phys. 96, 6796 (1992)
         He : Obtained from the ccRepo (grant-hill.group.shef.ac.uk/ccrepo) Feb. 2017
              D. E. Woon, T. H. Dunning, Jr., J. Chem. Phys. 100, 2975 (1994)
  Li-Be, Na : Obtained from the ccRepo (grant-hill.group.shef.ac.uk/ccrepo) Feb. 2017
              B. P. Prascher, D. E. Woon, K. A. Peterson, T. H. Dunning, Jr., A. K. Wilson, Theor. Chem. Acc. 128, 69 (2011)
         Mg : Obtained from the Peterson Research Group Website (tyr0.chem.wsu.edu/~kipeters) Feb. 2017
              B. P. Prascher, D. E. Woon, K. A. Peterson, T. H. Dunning, Jr., A. K. Wilson, Theor. Chem. Acc. 128, 69 (2011)
      Al-Ar : Obtained from the ccRepo (grant-hill.group.shef.ac.uk/ccrepo) Feb. 2017
              D. E. Woon, T. H. Dunning, Jr., J. Chem. Phys. 98, 1358 (1993)
      Sc-Zn : Obtained from the ccRepo (grant-hill.group.shef.ac.uk/ccrepo) Feb. 2017
              N. B. Balabanov, K. A. Peterson, J. Chem. Phys. 123, 064107 (2005)
              N. B. Balabanov, K. A. Peterson, J. Chem. Phys. 125, 074110 (2006)
      Ga-Kr : Obtained from the ccRepo (grant-hill.group.shef.ac.uk/ccrepo) Feb. 2017
              A. K. Wilson, D. E. Woon, K. A. Peterson, T. H. Dunning, Jr., J. Chem. Phys. 110, 7667 (1999)
     Ag, Au : Obtained from the Peterson Research Group Website (tyr0.chem.wsu.edu/~kipeters) Feb. 2017
              K. A. Peterson, C. Puzzarini, Theor. Chem. Acc. 114, 283 (2005)

----- AuxJK basis set information -----
Your calculation utilizes the auxiliary basis: def2/JK
   H-Ba, Hf-Rn: F. Weigend, J. Comput. Chem. 29, 167 (2008).

================================================================================
                                        WARNINGS
                       Please study these warnings very carefully!
================================================================================


WARNING: your system is open-shell and RHF/RKS was chosen
  ===> : WILL SWITCH to UHF/UKS


INFO   : the flag for use of LIBINT has been found!

================================================================================
                                       INPUT FILE
================================================================================
NAME = 24_CrS.in
|  1> #
|  2> # 24_CrS wb97m-v/aug-cc-pvtz
|  3> #
|  4> ! wb97m-v aug-cc-pvtz def2/jk grid4 nofinalgrid
|  5> 
|  6> *xyz 0 5
|  7>   Cr  0.00000000000000      0.00000000000000     -0.04064132858643
|  8>   S   0.00000000000000      0.00000000000000      2.04064132858643
|  9> *
| 10> 
| 11> %pal
| 12> nprocs 24
| 13> end
| 14> 
| 15> 
| 16>                          ****END OF INPUT****
================================================================================

                       ****************************
                       * Single Point Calculation *
                       ****************************

---------------------------------
CARTESIAN COORDINATES (ANGSTROEM)
---------------------------------
  Cr     0.000000    0.000000   -0.040641
  S      0.000000    0.000000    2.040641

----------------------------
CARTESIAN COORDINATES (A.U.)
----------------------------
  NO LB      ZA    FRAG     MASS         X           Y           Z
   0 Cr   24.0000    0    52.000    0.000000    0.000000   -0.076801
   1 S    16.0000    0    32.060    0.000000    0.000000    3.856253

--------------------------------
INTERNAL COORDINATES (ANGSTROEM)
--------------------------------
 Cr     0   0   0     0.000000000000     0.00000000     0.00000000
 S      1   0   0     2.081282657173     0.00000000     0.00000000

---------------------------
INTERNAL COORDINATES (A.U.)
---------------------------
 Cr     0   0   0     0.000000000000     0.00000000     0.00000000
 S      1   0   0     3.933054229337     0.00000000     0.00000000

---------------------
BASIS SET INFORMATION
---------------------
There are 2 groups of distinct atoms

 Group   1 Type Cr  : 116s77p23d3f2g contracted to 8s7p5d3f2g pattern {19191919191911/151515151511/77711/111/11}
 Group   2 Type S   : 42s17p3d2f contracted to 6s5p3d2f pattern {131313111/77111/111/11}

Atom   0Cr   basis set group =>   1
Atom   1S    basis set group =>   2
----------------------------------
AUXILIARY/JK BASIS SET INFORMATION
----------------------------------
There are 2 groups of distinct atoms

 Group   1 Type Cr  : 19s14p12d10f7g3h1i contracted to 16s13p11d9f5g3h1i pattern {4111111111111111/2111111111111/21111111111/211111111/31111/111/1}
 Group   2 Type S   : 16s12p10d4f1g contracted to 13s11p9d4f1g pattern {4111111111111/21111111111/211111111/1111/1}

Atom   0Cr   basis set group =>   1
Atom   1S    basis set group =>   2


           ************************************************************
           *        Program running with 24 parallel MPI-processes    *
           *              working on a common directory               *
           ************************************************************
------------------------------------------------------------------------------
                           ORCA GTO INTEGRAL CALCULATION
------------------------------------------------------------------------------

                         BASIS SET STATISTICS AND STARTUP INFO

 # of primitive gaussian shells          ...  285
 # of primitive gaussian functions       ...  623
 # of contracted shells                  ...   41
 # of contracted basis functions         ...  143
 Highest angular momentum                ...    4
 Maximum contraction depth               ...   19
 Integral package used                   ... LIBINT
 Integral threshhold            Thresh   ...  1.000e-10
 Primitive cut-off              TCut     ...  1.000e-11


------------------------------ INTEGRAL EVALUATION ----------------------------


 * One electron integrals 
 Pre-screening matrix                    ... done
 Shell pair data                         ... done (   0.001 sec)



           ************************************************************
           *        Program running with 24 parallel MPI-processes    *
           *              working on a common directory               *
           ************************************************************
-------------------------------------------------------------------------------
                                 ORCA SCF
-------------------------------------------------------------------------------

------------
SCF SETTINGS
------------
Hamiltonian:
 Density Functional     Method          .... DFT(GTOs)
 Exchange Functional    Exchange        .... WB97M-V
 Correlation Functional Correlation     .... WB97M-V
 Gradients option       PostSCFGGA      .... off
 Hybrid DFT is turned on
   Fraction HF Exchange ScalHFX         ....  0.150000
   Scaling of DF-GGA-X  ScalDFX         ....  0.000000
   Scaling of DF-GGA-C  ScalDFC         ....  1.000000
   Scaling of DF-LDA-C  ScalLDAC        ....  1.000000
   Perturbative correction              ....  0.000000
   Density functional embedding theory  .... OFF
 Long-range corrected/Screened/Range-Separated Hybrid DFT is turned on
   Amount of maximum screened exact exchange              ....  0.850000
   Range separation parameter mu (erf(mu*r12)/r12)        ....  0.300000
   NL short-range parameter             ....  6.000000
   NL long-range parameter              ....  0.010000


General Settings:
 Integral files         IntName         .... 24_CrS
 Hartree-Fock type      HFTyp           .... UHF
 Total Charge           Charge          ....    0
 Multiplicity           Mult            ....    5
 Number of Electrons    NEL             ....   40
 Basis Dimension        Dim             ....  143
 Nuclear Repulsion      ENuc            ....     97.6340466235 Eh

Convergence Acceleration:
 DIIS                   CNVDIIS         .... on
   Start iteration      DIISMaxIt       ....    12
   Startup error        DIISStart       ....  0.200000
   # of expansion vecs  DIISMaxEq       ....     5
   Bias factor          DIISBfac        ....   1.050
   Max. coefficient     DIISMaxC        ....  10.000
 Newton-Raphson         CNVNR           .... off
 SOSCF                  CNVSOSCF        .... off
 Level Shifting         CNVShift        .... on
   Level shift para.    LevelShift      ....    0.2500
   Turn off err/grad.   ShiftErr        ....    0.0010
 Zerner damping         CNVZerner       .... off
 Static damping         CNVDamp         .... on
   Fraction old density DampFac         ....    0.7000
   Max. Damping (<1)    DampMax         ....    0.9800
   Min. Damping (>=0)   DampMin         ....    0.0000
   Turn off err/grad.   DampErr         ....    0.1000
 Fernandez-Rico         CNVRico         .... off

SCF Procedure:
 Maximum # iterations   MaxIter         ....   125
 SCF integral mode      SCFMode         .... Direct
   Integral package                     .... LIBINT
 Reset frequency        DirectResetFreq ....    20
 Integral Threshold     Thresh          ....  1.000e-10 Eh
 Primitive CutOff       TCut            ....  1.000e-11 Eh

Convergence Tolerance:
 Convergence Check Mode ConvCheckMode   .... Total+1el-Energy
 Convergence forced     ConvForced      .... 0
 Energy Change          TolE            ....  1.000e-06 Eh
 1-El. energy change                    ....  1.000e-03 Eh
 DIIS Error             TolErr          ....  1.000e-06


Diagonalization of the overlap matrix:
Smallest eigenvalue                        ... 9.154e-05
Time for diagonalization                   ...    0.006 sec
Threshold for overlap eigenvalues          ... 1.000e-08
Number of eigenvalues below threshold      ... 0
Time for construction of square roots      ...    0.003 sec
Total time needed                          ...    0.009 sec

-------------------
DFT GRID GENERATION
-------------------

General Integration Accuracy     IntAcc      ...  4.670
Radial Grid Type                 RadialGrid  ... Gauss-Chebyshev
Angular Grid (max. acc.)         AngularGrid ... Lebedev-302
Angular grid pruning method      GridPruning ... 3 (G Style)
Weight generation scheme         WeightScheme... Becke
Basis function cutoff            BFCut       ...    1.0000e-10
Integration weight cutoff        WCut        ...    1.0000e-14
Grids for H and He will be reduced by one unit

# of grid points (after initial pruning)     ...  16510 (   0.0 sec)
# of grid points (after weights+screening)   ...  16481 (   0.0 sec)
nearest neighbour list constructed           ...    0.0 sec
Grid point re-assignment to atoms done       ...    0.0 sec
Grid point division into batches done        ...    0.1 sec
Reduced shell lists constructed in    0.1 sec

Total number of grid points                  ...    16481
Total number of batches                      ...      259
Average number of points per batch           ...       63
Average number of grid points per atom       ...     8240
Average number of shells per batch           ...    15.00 (36.59%)
Average number of basis functions per batch  ...    39.33 (27.51%)
Average number of large shells per batch     ...     8.00 (53.33%)
Average number of large basis fcns per batch ...    21.50 (54.66%)
Maximum spatial batch extension              ...  24.49, 24.19, 18.13 au
Average spatial batch extension              ...   0.84,  0.83,  0.65 au

Time for grid setup =    0.144 sec

------------------------------
INITIAL GUESS: MODEL POTENTIAL
------------------------------
Loading Hartree-Fock densities                     ... done
Calculating cut-offs                               ... done
Setting up the integral package                    ... done
Initializing the effective Hamiltonian             ... done
Starting the Coulomb interaction                   ... done (   0.0 sec)
Reading the grid                                   ... done
Mapping shells                                     ... done
Starting the XC term evaluation                    ... done (   0.0 sec)
  promolecular density results
     # of electrons  =     40.000003132
     EX              =    -72.081449700
     EC              =     -1.629232924
     EX+EC           =    -73.710682623
Transforming the Hamiltonian                       ... done (   0.0 sec)
Diagonalizing the Hamiltonian                      ... done (   0.0 sec)
Back transforming the eigenvectors                 ... done (   0.0 sec)
Now organizing SCF variables                       ... done
                      ------------------
                      INITIAL GUESS DONE (   0.2 sec)
                      ------------------
--------------
SCF ITERATIONS
--------------
ITER       Energy         Delta-E        Max-DP      RMS-DP      [F,P]     Damp
               ***  Starting incremental Fock matrix formation  ***
  0  -1442.6422559870   0.000000000000 0.07797053  0.00136447  0.1303210 0.7000
  1  -1442.6777105150  -0.035454528011 0.05020630  0.00099177  0.0751468 0.7000
                               ***Turning on DIIS***
  2  -1442.6956063964  -0.017895881446 0.08958409  0.00205588  0.0355417 0.0000
  3  -1442.7309765418  -0.035370145423 0.04675666  0.00099581  0.0307332 0.0000
  4  -1442.7380165151  -0.007039973218 0.02309856  0.00047452  0.0127802 0.0000
  5  -1442.7405209495  -0.002504434410 0.01825331  0.00046431  0.0124630 0.0000
  6  -1442.7427082608  -0.002187311310 0.02405193  0.00032499  0.0076616 0.0000
  7  -1442.7451211420  -0.002412881263 0.02639175  0.00026698  0.0062444 0.0000
  8  -1442.7469155027  -0.001794360655 0.02237095  0.00019179  0.0043583 0.0000
  9  -1442.7480722788  -0.001156776113 0.02643739  0.00021078  0.0032585 0.0000
 10  -1442.7491788922  -0.001106613411 0.02021255  0.00015169  0.0032989 0.0000
 11  -1442.7498959588  -0.000717066556 0.02394849  0.00018613  0.0030047 0.0000
 12  -1442.7506415639  -0.000745605153 0.01474189  0.00010396  0.0028986 0.0000
 13  -1442.7510167666  -0.000375202670 0.01971398  0.00015980  0.0032183 0.0000
 14  -1442.7514936363  -0.000476869730 0.03941369  0.00030575  0.0022932 0.0000
 15  -1442.7521725848  -0.000678948507 0.00962607  0.00007241  0.0041162 0.0000
 16  -1442.7522879636  -0.000115378720 0.03562475  0.00031360  0.0019511 0.0000
 17  -1442.7525222323  -0.000234268738 0.00492842  0.00006642  0.0041612 0.0000
 18  -1442.7525603309  -0.000038098635 0.01510669  0.00012557  0.0018061 0.0000
 19  -1442.7525516787   0.000008652222 0.00731549  0.00005248  0.0020561 0.0000
               *** Restarting incremental Fock matrix formation ***
                                   *** Resetting DIIS ***
 20  -1442.7525321334   0.000019545289 0.00302063  0.00005712  0.0014190 0.0000
 21  -1442.7525322780  -0.000000144588 0.00236553  0.00004424  0.0014210 0.0000
 22  -1442.7525307693   0.000001508758 0.00109028  0.00001429  0.0004311 0.0000
 23  -1442.7525234892   0.000007280004 0.00116237  0.00001655  0.0002833 0.0000
 24  -1442.7525200181   0.000003471187 0.00084595  0.00001131  0.0001762 0.0000
 25  -1442.7525155282   0.000004489866 0.00049279  0.00000655  0.0000902 0.0000
 26  -1442.7525126380   0.000002890225 0.00053366  0.00000967  0.0000437 0.0000
 27  -1442.7525101060   0.000002531943 0.00041913  0.00000799  0.0000503 0.0000
 28  -1442.7525078466   0.000002259389 0.00023798  0.00000385  0.0000409 0.0000
 29  -1442.7525062167   0.000001629892 0.00013826  0.00000292  0.0000323 0.0000
                 **** Energy Check signals convergence ****

               *****************************************************
               *                     SUCCESS                       *
               *           SCF CONVERGED AFTER  30 CYCLES          *
               *****************************************************


Setting up the DFT-NL grid :

General Integration Accuracy     IntAcc      ...  4.340
Radial Grid Type                 RadialGrid  ... Gauss-Chebyshev
Angular Grid (max. acc.)         AngularGrid ... Lebedev-110
Angular grid pruning method      GridPruning ... 3 (G Style)
Weight generation scheme         WeightScheme... Becke
Basis function cutoff            BFCut       ...    1.0000e-10
Integration weight cutoff        WCut        ...    1.0000e-14
Grids for H and He will be reduced by one unit

# of grid points (after initial pruning)     ...   4778 (   0.0 sec)
# of grid points (after weights+screening)   ...   4753 (   0.0 sec)
nearest neighbour list constructed           ...    0.0 sec
Grid point re-assignment to atoms done       ...    0.0 sec
Grid point division into batches done        ...    0.0 sec
Reduced shell lists constructed in    0.0 sec

Total number of grid points                  ...     4753
Total number of batches                      ...       75
Average number of points per batch           ...       63
Average number of grid points per atom       ...     2376
Average number of shells per batch           ...    22.80 (55.61%)
Average number of basis functions per batch  ...    70.00 (48.95%)
Average number of large shells per batch     ...    16.80 (73.68%)
Average number of large basis fcns per batch ...    52.00 (74.29%)
Maximum spatial batch extension              ...  18.98, 28.73, 16.15 au
Average spatial batch extension              ...   0.93,  1.27,  0.86 au

Final grid set up in    0.0 sec

-------------------------------------------------------------------------------
                         DFT-NL dispersion correction                          
-------------------------------------------------------------------------------

SC Energy -1442.752505837 
NL    Energy 0.166844746 
SC+NL Energy -1442.585661091 
NL done in    0.0 sec
-------------------------------------------------------------------------------

----------------
TOTAL SCF ENERGY
----------------

Total Energy       :        -1442.58566109 Eh          -39254.75151 eV

Components:
Nuclear Repulsion  :           97.63404662 Eh            2656.75748 eV
Electronic Energy  :        -1540.21970771 Eh          -41911.50899 eV
One Electron Energy:        -2182.88849364 Eh          -59399.41572 eV
Two Electron Energy:          642.66878593 Eh           17487.90673 eV

Virial components:
Potential Energy   :        -2882.86322594 Eh          -78446.69653 eV
Kinetic Energy     :         1440.27756485 Eh           39191.94502 eV
Virial Ratio       :            2.00160254


DFT components:
N(Alpha)           :       21.999996135481 electrons
N(Beta)            :       17.999996331598 electrons
N(Total)           :       39.999992467079 electrons
E(X)               :      -56.259634909926 Eh       
E(C)               :       -1.866103752412 Eh       
NL Energy, E(C,NL) :        0.166844746001 Eh       
E(XC)              :      -57.958893916337 Eh       
DFET-embed. en.    :        0.000000000000 Eh       

---------------
SCF CONVERGENCE
---------------

  Last Energy change         ...    3.8011e-07  Tolerance :   1.0000e-06
  Last MAX-Density change    ...    1.5424e-04  Tolerance :   1.0000e-05
  Last RMS-Density change    ...    3.3121e-06  Tolerance :   1.0000e-06
  Last DIIS Error            ...    2.4334e-05  Tolerance :   1.0000e-06

             **** THE GBW FILE WAS UPDATED (24_CrS.gbw) ****
             **** DENSITY FILE WAS UPDATED (24_CrS.scfp) ****
             **** ENERGY FILE WAS UPDATED (24_CrS.en.tmp) ****
----------------------
UHF SPIN CONTAMINATION
----------------------

Warning: in a DFT calculation there is little theoretical justification to 
         calculate <S**2> as in Hartree-Fock theory. We will do it anyways
         but you should keep in mind that the values have only limited relevance

Expectation value of <S**2>     :     6.469699
Ideal value S*(S+1) for S=2.0   :     6.000000
Deviation                       :     0.469699

             **** THE GBW FILE WAS UPDATED (24_CrS.gbw) ****
             **** DENSITY FILE WAS UPDATED (24_CrS.scfp) ****
----------------
ORBITAL ENERGIES
----------------
                 SPIN UP ORBITALS
  NO   OCC          E(Eh)            E(eV) 
   0   1.0000    -216.168290     -5882.2382 
   1   1.0000     -89.159593     -2426.1559 
   2   1.0000     -24.921734      -678.1549 
   3   1.0000     -21.126526      -574.8820 
   4   1.0000     -21.125237      -574.8469 
   5   1.0000     -21.122668      -574.7770 
   6   1.0000      -8.073322      -219.6863 
   7   1.0000      -5.979368      -162.7069 
   8   1.0000      -5.979132      -162.7005 
   9   1.0000      -5.977762      -162.6632 
  10   1.0000      -3.069576       -83.5274 
  11   1.0000      -2.010495       -54.7083 
  12   1.0000      -2.007107       -54.6162 
  13   1.0000      -2.002566       -54.4926 
  14   1.0000      -0.732649       -19.9364 
  15   1.0000      -0.396851       -10.7989 
  16   1.0000      -0.394300       -10.7294 
  17   1.0000      -0.365322        -9.9409 
  18   1.0000      -0.364277        -9.9125 
  19   1.0000      -0.354494        -9.6463 
  20   1.0000      -0.309004        -8.4084 
  21   1.0000      -0.285863        -7.7787 
  22   0.0000      -0.048195        -1.3114 
  23   0.0000      -0.041260        -1.1227 
  24   0.0000       0.007339         0.1997 
  25   0.0000       0.010412         0.2833 
  26   0.0000       0.016817         0.4576 
  27   0.0000       0.019089         0.5194 
  28   0.0000       0.046653         1.2695 
  29   0.0000       0.047172         1.2836 
  30   0.0000       0.056633         1.5411 
  31   0.0000       0.056881         1.5478 
  32   0.0000       0.057638         1.5684 
  33   0.0000       0.071726         1.9518 
  34   0.0000       0.073288         1.9943 
  35   0.0000       0.088121         2.3979 
  36   0.0000       0.131305         3.5730 
  37   0.0000       0.132290         3.5998 
  38   0.0000       0.134704         3.6655 
  39   0.0000       0.150855         4.1050 
  40   0.0000       0.186150         5.0654 
  41   0.0000       0.186907         5.0860 
  42   0.0000       0.239828         6.5260 
  43   0.0000       0.244092         6.6421 
  44   0.0000       0.244226         6.6457 
  45   0.0000       0.255093         6.9414 
  46   0.0000       0.257243         6.9999 
  47   0.0000       0.258705         7.0397 
  48   0.0000       0.293423         7.9844 
  49   0.0000       0.294571         8.0157 
  50   0.0000       0.356166         9.6918 
  51   0.0000       0.369955        10.0670 
  52   0.0000       0.371421        10.1069 
  53   0.0000       0.429684        11.6923 
  54   0.0000       0.584053        15.8929 
  55   0.0000       0.584223        15.8975 
  56   0.0000       0.597446        16.2573 
  57   0.0000       0.602170        16.3859 
  58   0.0000       0.631760        17.1911 
  59   0.0000       0.632387        17.2081 
  60   0.0000       0.645429        17.5630 
  61   0.0000       0.646396        17.5893 
  62   0.0000       0.657416        17.8892 
  63   0.0000       0.671354        18.2685 
  64   0.0000       0.702086        19.1047 
  65   0.0000       0.705614        19.2007 
  66   0.0000       0.719120        19.5682 
  67   0.0000       0.720637        19.6095 
  68   0.0000       0.747754        20.3474 
  69   0.0000       0.750302        20.4167 
  70   0.0000       0.756718        20.5914 
  71   0.0000       0.813351        22.1324 
  72   0.0000       0.837615        22.7927 
  73   0.0000       0.838461        22.8157 
  74   0.0000       0.852221        23.1901 
  75   0.0000       0.852538        23.1987 
  76   0.0000       0.940369        25.5887 
  77   0.0000       0.965126        26.2624 
  78   0.0000       0.968930        26.3659 
  79   0.0000       1.031461        28.0675 
  80   0.0000       1.031628        28.0720 
  81   0.0000       1.226513        33.3751 
  82   0.0000       1.339858        36.4594 
  83   0.0000       1.341541        36.5052 
  84   0.0000       1.612860        43.8882 
  85   0.0000       1.829236        49.7760 
  86   0.0000       1.833265        49.8857 
  87   0.0000       1.834900        49.9302 
  88   0.0000       1.840876        50.0928 
  89   0.0000       1.840902        50.0935 
  90   0.0000       1.855875        50.5009 
  91   0.0000       1.856141        50.5082 
  92   0.0000       1.904159        51.8148 
  93   0.0000       1.904185        51.8155 
  94   0.0000       1.967263        53.5319 
  95   0.0000       2.011914        54.7470 
  96   0.0000       2.016751        54.8786 
  97   0.0000       2.116020        57.5798 
  98   0.0000       2.204424        59.9854 
  99   0.0000       2.204730        59.9938 
 100   0.0000       2.204834        59.9966 
 101   0.0000       2.209589        60.1260 
 102   0.0000       2.210159        60.1415 
 103   0.0000       2.211288        60.1722 
 104   0.0000       2.229054        60.6556 
 105   0.0000       2.233190        60.7682 
 106   0.0000       2.233208        60.7687 
 107   0.0000       2.250524        61.2399 
 108   0.0000       2.250673        61.2439 
 109   0.0000       2.285651        62.1957 
 110   0.0000       2.290647        62.3317 
 111   0.0000       2.410235        65.5858 
 112   0.0000       2.415832        65.7381 
 113   0.0000       2.461565        66.9826 
 114   0.0000       2.461892        66.9915 
 115   0.0000       2.571533        69.9750 
 116   0.0000       2.791826        75.9695 
 117   0.0000       2.914294        79.3020 
 118   0.0000       2.915102        79.3240 
 119   0.0000       3.366778        91.6147 
 120   0.0000       3.400722        92.5384 
 121   0.0000       3.401096        92.5485 
 122   0.0000       3.724330       101.3442 
 123   0.0000       3.730067       101.5003 
 124   0.0000       4.309558       117.2690 
 125   0.0000       5.328635       144.9995 
 126   0.0000       6.236237       169.6966 
 127   0.0000       6.236241       169.6968 
 128   0.0000       6.252376       170.1358 
 129   0.0000       6.252627       170.1426 
 130   0.0000       6.330195       172.2534 
 131   0.0000       6.331336       172.2844 
 132   0.0000       6.516140       177.3132 
 133   0.0000       6.707432       182.5185 
 134   0.0000       6.707559       182.5220 
 135   0.0000       6.713298       182.6781 
 136   0.0000       6.713314       182.6786 
 137   0.0000       6.776337       184.3935 
 138   0.0000       6.776791       184.4059 
 139   0.0000       6.922199       188.3626 
 140   0.0000       6.926525       188.4803 
 141   0.0000       7.044782       191.6983 
 142   0.0000       7.873886       214.2593 

                 SPIN DOWN ORBITALS
  NO   OCC          E(Eh)            E(eV) 
   0   1.0000    -216.167014     -5882.2035 
   1   1.0000     -89.163378     -2426.2589 
   2   1.0000     -24.852398      -676.2681 
   3   1.0000     -21.074955      -573.4787 
   4   1.0000     -21.071111      -573.3741 
   5   1.0000     -21.062125      -573.1296 
   6   1.0000      -8.077056      -219.7879 
   7   1.0000      -5.991452      -163.0357 
   8   1.0000      -5.983263      -162.8129 
   9   1.0000      -5.979995      -162.7239 
  10   1.0000      -2.905393       -79.0598 
  11   1.0000      -1.837748       -50.0077 
  12   1.0000      -1.825139       -49.6645 
  13   1.0000      -1.806508       -49.1576 
  14   1.0000      -0.753755       -20.5107 
  15   1.0000      -0.358659        -9.7596 
  16   1.0000      -0.349648        -9.5144 
  17   1.0000      -0.329130        -8.9561 
  18   0.0000      -0.102074        -2.7776 
  19   0.0000      -0.055201        -1.5021 
  20   0.0000      -0.044780        -1.2185 
  21   0.0000      -0.010497        -0.2856 
  22   0.0000      -0.000256        -0.0070 
  23   0.0000       0.012587         0.3425 
  24   0.0000       0.014183         0.3859 
  25   0.0000       0.020312         0.5527 
  26   0.0000       0.024582         0.6689 
  27   0.0000       0.029630         0.8063 
  28   0.0000       0.037657         1.0247 
  29   0.0000       0.047945         1.3047 
  30   0.0000       0.064795         1.7632 
  31   0.0000       0.083335         2.2676 
  32   0.0000       0.084248         2.2925 
  33   0.0000       0.085934         2.3384 
  34   0.0000       0.090492         2.4624 
  35   0.0000       0.096026         2.6130 
  36   0.0000       0.109493         2.9795 
  37   0.0000       0.131786         3.5861 
  38   0.0000       0.138229         3.7614 
  39   0.0000       0.142731         3.8839 
  40   0.0000       0.162911         4.4330 
  41   0.0000       0.163672         4.4537 
  42   0.0000       0.227251         6.1838 
  43   0.0000       0.230666         6.2767 
  44   0.0000       0.233578         6.3560 
  45   0.0000       0.234177         6.3723 
  46   0.0000       0.238681         6.4948 
  47   0.0000       0.256402         6.9771 
  48   0.0000       0.279124         7.5954 
  49   0.0000       0.280221         7.6252 
  50   0.0000       0.346200         9.4206 
  51   0.0000       0.366889         9.9836 
  52   0.0000       0.369280        10.0486 
  53   0.0000       0.413002        11.2383 
  54   0.0000       0.528428        14.3793 
  55   0.0000       0.528434        14.3794 
  56   0.0000       0.586441        15.9579 
  57   0.0000       0.592779        16.1303 
  58   0.0000       0.606086        16.4924 
  59   0.0000       0.606719        16.5097 
  60   0.0000       0.628655        17.1066 
  61   0.0000       0.633066        17.2266 
  62   0.0000       0.645870        17.5750 
  63   0.0000       0.659778        17.9535 
  64   0.0000       0.676325        18.4037 
  65   0.0000       0.677131        18.4257 
  66   0.0000       0.693692        18.8763 
  67   0.0000       0.694636        18.9020 
  68   0.0000       0.741790        20.1851 
  69   0.0000       0.750578        20.4243 
  70   0.0000       0.753203        20.4957 
  71   0.0000       0.810789        22.0627 
  72   0.0000       0.829811        22.5803 
  73   0.0000       0.829894        22.5826 
  74   0.0000       0.865772        23.5589 
  75   0.0000       0.866315        23.5736 
  76   0.0000       0.929629        25.2965 
  77   0.0000       0.964127        26.2352 
  78   0.0000       0.974783        26.5252 
  79   0.0000       1.029304        28.0088 
  80   0.0000       1.030019        28.0282 
  81   0.0000       1.233777        33.5728 
  82   0.0000       1.341417        36.5018 
  83   0.0000       1.351468        36.7753 
  84   0.0000       1.631882        44.4058 
  85   0.0000       1.837204        49.9929 
  86   0.0000       1.837496        50.0008 
  87   0.0000       1.865086        50.7516 
  88   0.0000       1.877656        51.0936 
  89   0.0000       1.890151        51.4336 
  90   0.0000       1.908095        51.9219 
  91   0.0000       1.908104        51.9222 
  92   0.0000       1.919581        52.2344 
  93   0.0000       1.920563        52.2612 
  94   0.0000       1.984701        54.0065 
  95   0.0000       1.986618        54.0586 
  96   0.0000       2.007048        54.6146 
  97   0.0000       2.114490        57.5382 
  98   0.0000       2.173535        59.1449 
  99   0.0000       2.178870        59.2901 
 100   0.0000       2.184431        59.4414 
 101   0.0000       2.191854        59.6434 
 102   0.0000       2.193337        59.6837 
 103   0.0000       2.204710        59.9932 
 104   0.0000       2.224551        60.5331 
 105   0.0000       2.241432        60.9925 
 106   0.0000       2.241442        60.9927 
 107   0.0000       2.265214        61.6396 
 108   0.0000       2.265403        61.6448 
 109   0.0000       2.273668        61.8696 
 110   0.0000       2.290976        62.3406 
 111   0.0000       2.458695        66.9045 
 112   0.0000       2.458777        66.9067 
 113   0.0000       2.485138        67.6240 
 114   0.0000       2.499619        68.0181 
 115   0.0000       2.616930        71.2103 
 116   0.0000       2.823090        76.8202 
 117   0.0000       2.911329        79.2213 
 118   0.0000       2.927366        79.6577 
 119   0.0000       3.381180        92.0066 
 120   0.0000       3.536573        96.2351 
 121   0.0000       3.536621        96.2363 
 122   0.0000       3.833369       104.3113 
 123   0.0000       3.850422       104.7753 
 124   0.0000       4.396599       119.6375 
 125   0.0000       5.320849       144.7877 
 126   0.0000       6.400272       174.1603 
 127   0.0000       6.400283       174.1606 
 128   0.0000       6.408690       174.3893 
 129   0.0000       6.408896       174.3949 
 130   0.0000       6.473353       176.1489 
 131   0.0000       6.490387       176.6124 
 132   0.0000       6.655676       181.1102 
 133   0.0000       6.836944       186.0427 
 134   0.0000       6.836955       186.0430 
 135   0.0000       6.837877       186.0681 
 136   0.0000       6.837999       186.0714 
 137   0.0000       6.892510       187.5547 
 138   0.0000       6.892838       187.5637 
 139   0.0000       7.028164       191.2461 
 140   0.0000       7.044539       191.6917 
 141   0.0000       7.154679       194.6887 
 142   0.0000       7.999783       217.6852 

                    ********************************
                    * MULLIKEN POPULATION ANALYSIS *
                    ********************************

--------------------------------------------
MULLIKEN ATOMIC CHARGES AND SPIN POPULATIONS
--------------------------------------------
   0 Cr:    0.252577    4.580381
   1 S :   -0.252577   -0.580381
Sum of atomic charges         :   -0.0000000
Sum of atomic spin populations:    4.0000000

-----------------------------------------------------
MULLIKEN REDUCED ORBITAL CHARGES AND SPIN POPULATIONS
-----------------------------------------------------
CHARGE
  0 Crs       :     6.674879  s :     6.674879
      pz      :     4.114907  p :    12.296515
      px      :     4.069404
      py      :     4.112205
      dz2     :     0.947033  d :     4.757771
      dxz     :     0.815549
      dyz     :     1.000004
      dx2y2   :     0.997772
      dxy     :     0.997412
      f0      :     0.003884  f :     0.016381
      f+1     :     0.005342
      f-1     :     0.006901
      f+2     :     0.000114
      f-2     :     0.000123
      f+3     :     0.000008
      f-3     :     0.000008
      g0      :     0.000567  g :     0.001878
      g+1     :     0.000631
      g-1     :     0.000667
      g+2     :     0.000004
      g-2     :     0.000005
      g+3     :     0.000001
      g-3     :     0.000001
      g+4     :     0.000001
      g-4     :     0.000001
  1 S s       :     5.822818  s :     5.822818
      pz      :     3.429293  p :    10.391754
      px      :     3.275453
      py      :     3.687008
      dz2     :     0.008341  d :     0.036838
      dxz     :     0.015503
      dyz     :     0.010907
      dx2y2   :     0.001018
      dxy     :     0.001069
      f0      :    -0.000229  f :     0.001166
      f+1     :     0.000393
      f-1     :    -0.000125
      f+2     :     0.000488
      f-2     :     0.000501
      f+3     :     0.000075
      f-3     :     0.000063

SPIN
  0 Crs       :     0.273367  s :     0.273367
      pz      :    -0.006151  p :     0.006750
      px      :    -0.010537
      py      :     0.023439
      dz2     :     0.761169  d :     4.299767
      dxz     :     0.681654
      dyz     :     0.861823
      dx2y2   :     0.997747
      dxy     :     0.997375
      f0      :    -0.000390  f :     0.000774
      f+1     :    -0.000687
      f-1     :     0.001640
      f+2     :     0.000104
      f-2     :     0.000108
      f+3     :    -0.000001
      f-3     :    -0.000000
      g0      :    -0.000157  g :    -0.000278
      g+1     :    -0.000100
      g-1     :    -0.000030
      g+2     :     0.000003
      g-2     :     0.000003
      g+3     :     0.000000
      g-3     :    -0.000000
      g+4     :     0.000001
      g-4     :     0.000001
  1 S s       :     0.017393  s :     0.017393
      pz      :    -0.048264  p :    -0.617232
      px      :    -0.496606
      py      :    -0.072362
      dz2     :     0.005483  d :     0.018323
      dxz     :     0.007957
      dyz     :     0.003198
      dx2y2   :     0.000856
      dxy     :     0.000830
      f0      :    -0.000394  f :     0.001135
      f+1     :     0.000723
      f-1     :    -0.000008
      f+2     :     0.000459
      f-2     :     0.000458
      f+3     :    -0.000049
      f-3     :    -0.000053


                     *******************************
                     * LOEWDIN POPULATION ANALYSIS *
                     *******************************

-------------------------------------------
LOEWDIN ATOMIC CHARGES AND SPIN POPULATIONS
-------------------------------------------
   0 Cr:    0.043155    4.375727
   1 S :   -0.043155   -0.375727

----------------------------------------------------
LOEWDIN REDUCED ORBITAL CHARGES AND SPIN POPULATIONS
----------------------------------------------------
CHARGE
  0 Crs       :     6.405288  s :     6.405288
      pz      :     4.208948  p :    12.390482
      px      :     4.046384
      py      :     4.135150
      dz2     :     1.076927  d :     4.938242
      dxz     :     0.844154
      dyz     :     1.047345
      dx2y2   :     0.985085
      dxy     :     0.984731
      f0      :     0.076499  f :     0.205857
      f+1     :     0.052914
      f-1     :     0.074975
      f+2     :     0.000720
      f-2     :     0.000731
      f+3     :     0.000009
      f-3     :     0.000008
      g0      :     0.006554  g :     0.016976
      g+1     :     0.004413
      g-1     :     0.005959
      g+2     :     0.000023
      g-2     :     0.000023
      g+3     :     0.000001
      g-3     :     0.000001
      g+4     :     0.000001
      g-4     :     0.000001
  1 S s       :     5.443073  s :     5.443073
      pz      :     3.551421  p :    10.155245
      px      :     3.142356
      py      :     3.461468
      dz2     :     0.142587  d :     0.254501
      dxz     :     0.051902
      dyz     :     0.050027
      dx2y2   :     0.004969
      dxy     :     0.005017
      f0      :     0.090196  f :     0.190336
      f+1     :     0.040154
      f-1     :     0.042643
      f+2     :     0.008599
      f-2     :     0.008607
      f+3     :     0.000075
      f-3     :     0.000063

SPIN
  0 Crs       :     0.265609  s :     0.265609
      pz      :    -0.001857  p :     0.017437
      px      :    -0.029250
      py      :     0.048544
      dz2     :     0.731592  d :     4.116629
      dxz     :     0.608459
      dyz     :     0.806824
      dx2y2   :     0.985060
      dxy     :     0.984694
      f0      :    -0.000871  f :    -0.021165
      f+1     :    -0.022913
      f-1     :     0.001194
      f+2     :     0.000709
      f-2     :     0.000715
      f+3     :    -0.000001
      f-3     :    -0.000000
      g0      :    -0.000509  g :    -0.002783
      g+1     :    -0.002000
      g-1     :    -0.000320
      g+2     :     0.000022
      g-2     :     0.000022
      g+3     :     0.000000
      g-3     :    -0.000000
      g+4     :     0.000001
      g-4     :     0.000001
  1 S s       :     0.009926  s :     0.009926
      pz      :    -0.017242  p :    -0.505539
      px      :    -0.410758
      py      :    -0.077539
      dz2     :     0.012686  d :     0.071838
      dxz     :     0.025858
      dyz     :     0.023706
      dx2y2   :     0.004809
      dxy     :     0.004779
      f0      :     0.002721  f :     0.048049
      f+1     :     0.013007
      f-1     :     0.015291
      f+2     :     0.008569
      f-2     :     0.008563
      f+3     :    -0.000050
      f-3     :    -0.000053


                      *****************************
                      * MAYER POPULATION ANALYSIS *
                      *****************************

  NA   - Mulliken gross atomic population
  ZA   - Total nuclear charge
  QA   - Mulliken gross atomic charge
  VA   - Mayer's total valence
  BVA  - Mayer's bonded valence
  FA   - Mayer's free valence

  ATOM       NA         ZA         QA         VA         BVA        FA
  0 Cr    23.7474    24.0000     0.2526     6.2600     2.0416     4.2184
  1 S     16.2526    16.0000    -0.2526     2.4367     2.0416     0.3951

  Mayer bond orders larger than 0.100000
B(  0-Cr,  1-S ) :   2.0416 

-------
TIMINGS
-------

Total SCF time: 0 days 0 hours 8 min 7 sec 

Total time                  ....     487.083 sec
Sum of individual times     ....     486.727 sec  ( 99.9%)

Fock matrix formation       ....     486.230 sec  ( 99.8%)
  XC integration            ....       1.105 sec  (  0.2% of F)
    Basis function eval.    ....       0.148 sec  ( 13.4% of XC)
    Density eval.           ....       0.165 sec  ( 14.9% of XC)
    XC-Functional eval.     ....       0.037 sec  (  3.4% of XC)
    XC-Potential eval.      ....       0.467 sec  ( 42.3% of XC)
Diagonalization             ....       0.159 sec  (  0.0%)
Density matrix formation    ....       0.020 sec  (  0.0%)
Population analysis         ....       0.007 sec  (  0.0%)
Initial guess               ....       0.096 sec  (  0.0%)
Orbital Transformation      ....       0.000 sec  (  0.0%)
Orbital Orthonormalization  ....       0.000 sec  (  0.0%)
DIIS solution               ....       0.055 sec  (  0.0%)
Grid generation             ....       0.160 sec  (  0.0%)

-------------------------   --------------------
FINAL SINGLE POINT ENERGY     -1442.585661090629
-------------------------   --------------------


                            ***************************************
                            *     ORCA property calculations      *
                            ***************************************

                                    ---------------------
                                    Active property flags
                                    ---------------------
   (+) Dipole Moment


------------------------------------------------------------------------------
                       ORCA ELECTRIC PROPERTIES CALCULATION
------------------------------------------------------------------------------

Dipole Moment Calculation                       ... on
Quadrupole Moment Calculation                   ... off
Polarizability Calculation                      ... off
GBWName                                         ... 24_CrS.gbw
Electron density file                           ... 24_CrS.scfp
The origin for moment calculation is the CENTER OF MASS  = ( 0.000000,  0.000000  1.423243)

-------------
DIPOLE MOMENT
-------------
                                X             Y             Z
Electronic contribution:      0.00001      -0.00000      -5.19627
Nuclear contribution   :      0.00000       0.00000       2.92710
                        -----------------------------------------
Total Dipole Moment    :      0.00001      -0.00000      -2.26917
                        -----------------------------------------
Magnitude (a.u.)       :      2.26917
Magnitude (Debye)      :      5.76778



--------------------
Rotational spectrum 
--------------------
 
Rotational constants in cm-1:     0.000000     0.196226     0.196226 
Rotational constants in MHz :     0.000000  5882.717555  5882.717555 

 Dipole components along the rotational axes: 
x,y,z [a.u.] :    -2.269173    -0.000005     0.000006 
x,y,z [Debye]:    -5.767780    -0.000013     0.000015 

 

Timings for individual modules:

Sum of individual times         ...      490.886 sec (=   8.181 min)
GTO integral calculation        ...        3.312 sec (=   0.055 min)   0.7 %
SCF iterations                  ...      487.574 sec (=   8.126 min)  99.3 %
                             ****ORCA TERMINATED NORMALLY****
TOTAL RUN TIME: 0 days 0 hours 8 minutes 11 seconds 512 msec
