
                                 *****************
                                 * O   R   C   A *
                                 *****************

           --- An Ab Initio, DFT and Semiempirical electronic structure package ---

                  #######################################################
                  #                        -***-                        #
                  #          Department of theory and spectroscopy      #
                  #               Directorship: Frank Neese             #
                  #        Max Planck Institute fuer Kohlenforschung    #
                  #                Kaiser Wilhelm Platz 1               #
                  #                 D-45470 Muelheim/Ruhr               #
                  #                      Germany                        #
                  #                                                     #
                  #                  All rights reserved                #
                  #                        -***-                        #
                  #######################################################


                         Program Version 4.2.0 -  RELEASE  -


 With contributions from (in alphabetic order):
   Daniel Aravena         : Magnetic Suceptibility
   Michael Atanasov       : Ab Initio Ligand Field Theory (pilot matlab implementation)
   Alexander A. Auer      : GIAO ZORA, VPT2
   Ute Becker             : Parallelization
   Giovanni Bistoni       : ED, misc. LED, open-shell LED, HFLED
   Martin Brehm           : Molecular dynamics
   Dmytro Bykov           : SCF Hessian
   Vijay G. Chilkuri      : MRCI spin determinant printing, contributions to CSF-ICE
   Dipayan Datta          : RHF DLPNO-CCSD density
   Achintya Kumar Dutta   : EOM-CC, STEOM-CC
   Dmitry Ganyushin       : Spin-Orbit,Spin-Spin,Magnetic field MRCI
   Miquel Garcia          : C-PCM Hessian, Gaussian charge scheme
   Yang Guo               : DLPNO-NEVPT2, CIM, IAO-localization
   Andreas Hansen         : Spin unrestricted coupled pair/coupled cluster methods
   Benjamin Helmich-Paris : CASSCF linear response (MC-RPA)
   Lee Huntington         : MR-EOM, pCC
   Robert Izsak           : Overlap fitted RIJCOSX, COSX-SCS-MP3, EOM
   Christian Kollmar      : KDIIS, OOCD, Brueckner-CCSD(T), CCSD density
   Simone Kossmann        : Meta GGA functionals, TD-DFT gradient, OOMP2, MP2 Hessian
   Martin Krupicka        : AUTO-CI
   Lucas Lang             : DCDCAS
   Dagmar Lenk            : GEPOL surface, SMD
   Dimitrios Liakos       : Extrapolation schemes; Compound Job, initial MDCI parallelization
   Dimitrios Manganas     : Further ROCIS development; embedding schemes
   Dimitrios Pantazis     : SARC Basis sets
   Taras Petrenko         : DFT Hessian,TD-DFT gradient, ASA, ECA, R-Raman, ABS, FL, XAS/XES, NRVS
   Peter Pinski           : DLPNO-MP2, DLPNO-MP2 Gradient
   Christoph Reimann      : Effective Core Potentials
   Marius Retegan         : Local ZFS, SOC
   Christoph Riplinger    : Optimizer, TS searches, QM/MM, DLPNO-CCSD(T), (RO)-DLPNO pert. Triples
   Tobias Risthaus        : Range-separated hybrids, TD-DFT gradient, RPA, STAB
   Michael Roemelt        : Original ROCIS implementation
   Masaaki Saitow         : Open-shell DLPNO-CCSD energy and density
   Barbara Sandhoefer     : DKH picture change effects
   Avijit Sen             : IP-ROCIS
   Kantharuban Sivalingam : CASSCF convergence, NEVPT2, FIC-MRCI
   Bernardo de Souza      : ESD, SOC TD-DFT
   Georgi Stoychev        : AutoAux, RI-MP2 NMR
   Willem Van den Heuvel  : Paramagnetic NMR
   Boris Wezisla          : Elementary symmetry handling
   Frank Wennmohs         : Technical directorship


 We gratefully acknowledge several colleagues who have allowed us to
 interface, adapt or use parts of their codes:
   Stefan Grimme, W. Hujo, H. Kruse,             : VdW corrections, initial TS optimization,
                  C. Bannwarth                     DFT functionals, gCP, sTDA/sTD-DF
   Ed Valeev, F. Pavosevic, A. Kumar             : LibInt (2-el integral package), F12 methods
   Garnet Chan, S. Sharma, J. Yang, R. Olivares  : DMRG
   Ulf Ekstrom                                   : XCFun DFT Library
   Mihaly Kallay                                 : mrcc  (arbitrary order and MRCC methods)
   Andreas Klamt, Michael Diedenhofen            : otool_cosmo (COSMO solvation model)
   Jiri Pittner, Ondrej Demel                    : Mk-CCSD
   Frank Weinhold                                : gennbo (NPA and NBO analysis)
   Christopher J. Cramer and Donald G. Truhlar   : smd solvation model
   Lars Goerigk                                  : TD-DFT with DH, B97 family of functionals
   V. Asgeirsson, H. Jonsson                     : NEB implementation
   FAccTs GmbH                                   : IRC, NEB, NEB-TS, Multilevel, MM, QM/MM, CI optimization
   S Lehtola, MJT Oliveira, MAL Marques          : LibXC Library


 Your calculation uses the libint2 library for the computation of 2-el integrals
 For citations please refer to: http://libint.valeyev.net

 Your ORCA version has been built with support for libXC version: 4.2.3
 For citations please refer to: https://tddft.org/programs/libxc/

 This ORCA versions uses:
   CBLAS   interface :  Fast vector & matrix operations
   LAPACKE interface :  Fast linear algebra routines
   SCALAPACK package :  Parallel linear algebra routines


Your calculation utilizes the DFT-NL dispersion correction.
Cite in your paper:
Vydrov, O. A.; Van Voorhis, T. J. Chem. Phys. 2010, 133, 244103
Hujo, W.; Grimme, S. J. Chem. Theory Comput. 2011, 7, 3866 
   

----- Orbital basis set information -----
Your calculation utilizes the basis: aug-cc-pVTZ 
    H, B-Ne : Obtained from the ccRepo (grant-hill.group.shef.ac.uk/ccrepo) Feb. 2017
              R. A. Kendall, T. H. Dunning, Jr., R. J. Harrison, J. Chem. Phys. 96, 6796 (1992)
         He : Obtained from the ccRepo (grant-hill.group.shef.ac.uk/ccrepo) Feb. 2017
              D. E. Woon, T. H. Dunning, Jr., J. Chem. Phys. 100, 2975 (1994)
  Li-Be, Na : Obtained from the ccRepo (grant-hill.group.shef.ac.uk/ccrepo) Feb. 2017
              B. P. Prascher, D. E. Woon, K. A. Peterson, T. H. Dunning, Jr., A. K. Wilson, Theor. Chem. Acc. 128, 69 (2011)
         Mg : Obtained from the Peterson Research Group Website (tyr0.chem.wsu.edu/~kipeters) Feb. 2017
              B. P. Prascher, D. E. Woon, K. A. Peterson, T. H. Dunning, Jr., A. K. Wilson, Theor. Chem. Acc. 128, 69 (2011)
      Al-Ar : Obtained from the ccRepo (grant-hill.group.shef.ac.uk/ccrepo) Feb. 2017
              D. E. Woon, T. H. Dunning, Jr., J. Chem. Phys. 98, 1358 (1993)
      Sc-Zn : Obtained from the ccRepo (grant-hill.group.shef.ac.uk/ccrepo) Feb. 2017
              N. B. Balabanov, K. A. Peterson, J. Chem. Phys. 123, 064107 (2005)
              N. B. Balabanov, K. A. Peterson, J. Chem. Phys. 125, 074110 (2006)
      Ga-Kr : Obtained from the ccRepo (grant-hill.group.shef.ac.uk/ccrepo) Feb. 2017
              A. K. Wilson, D. E. Woon, K. A. Peterson, T. H. Dunning, Jr., J. Chem. Phys. 110, 7667 (1999)
     Ag, Au : Obtained from the Peterson Research Group Website (tyr0.chem.wsu.edu/~kipeters) Feb. 2017
              K. A. Peterson, C. Puzzarini, Theor. Chem. Acc. 114, 283 (2005)

----- AuxJK basis set information -----
Your calculation utilizes the auxiliary basis: def2/JK
   H-Ba, Hf-Rn: F. Weigend, J. Comput. Chem. 29, 167 (2008).

================================================================================
                                        WARNINGS
                       Please study these warnings very carefully!
================================================================================


WARNING: your system is open-shell and RHF/RKS was chosen
  ===> : WILL SWITCH to UHF/UKS


INFO   : the flag for use of LIBINT has been found!

================================================================================
                                       INPUT FILE
================================================================================
NAME = 26_MnF.in
|  1> #
|  2> # 26_MnF wb97m-v/aug-cc-pvtz
|  3> #
|  4> ! wb97m-v aug-cc-pvtz def2/jk grid4 nofinalgrid slowconv
|  5> 
|  6> *xyz 0 7
|  7>   Mn  0.00000000000000      0.00000000000000      0.08590077209256
|  8>   F   0.00000000000000      0.00000000000000      1.91409922790744
|  9> *
| 10> 
| 11> %scf
| 12> maxiter 300
| 13> diismaxeq 15
| 14> directresetfreq 1
| 15> end
| 16> 
| 17> %pal
| 18> nprocs 24
| 19> end
| 20> 
| 21> 
| 22>                          ****END OF INPUT****
================================================================================

                       ****************************
                       * Single Point Calculation *
                       ****************************

---------------------------------
CARTESIAN COORDINATES (ANGSTROEM)
---------------------------------
  Mn     0.000000    0.000000    0.085901
  F      0.000000    0.000000    1.914099

----------------------------
CARTESIAN COORDINATES (A.U.)
----------------------------
  NO LB      ZA    FRAG     MASS         X           Y           Z
   0 Mn   25.0000    0    54.940    0.000000    0.000000    0.162329
   1 F     9.0000    0    18.998    0.000000    0.000000    3.617123

--------------------------------
INTERNAL COORDINATES (ANGSTROEM)
--------------------------------
 Mn     0   0   0     0.000000000000     0.00000000     0.00000000
 F      1   0   0     1.828198455815     0.00000000     0.00000000

---------------------------
INTERNAL COORDINATES (A.U.)
---------------------------
 Mn     0   0   0     0.000000000000     0.00000000     0.00000000
 F      1   0   0     3.454794399948     0.00000000     0.00000000

---------------------
BASIS SET INFORMATION
---------------------
There are 2 groups of distinct atoms

 Group   1 Type Mn  : 116s77p23d3f2g contracted to 8s7p5d3f2g pattern {19191919191911/151515151511/77711/111/11}
 Group   2 Type F   : 19s6p3d2f contracted to 5s4p3d2f pattern {88111/3111/111/11}

Atom   0Mn   basis set group =>   1
Atom   1F    basis set group =>   2
----------------------------------
AUXILIARY/JK BASIS SET INFORMATION
----------------------------------
There are 2 groups of distinct atoms

 Group   1 Type Mn  : 19s14p12d10f7g3h1i contracted to 16s13p11d9f5g3h1i pattern {4111111111111111/2111111111111/21111111111/211111111/31111/111/1}
 Group   2 Type F   : 14s10p6d2f1g contracted to 10s8p4d2f1g pattern {5111111111/31111111/3111/11/1}

Atom   0Mn   basis set group =>   1
Atom   1F    basis set group =>   2


           ************************************************************
           *        Program running with 24 parallel MPI-processes    *
           *              working on a common directory               *
           ************************************************************
------------------------------------------------------------------------------
                           ORCA GTO INTEGRAL CALCULATION
------------------------------------------------------------------------------

                         BASIS SET STATISTICS AND STARTUP INFO

 # of primitive gaussian shells          ...  251
 # of primitive gaussian functions       ...  567
 # of contracted shells                  ...   39
 # of contracted basis functions         ...  139
 Highest angular momentum                ...    4
 Maximum contraction depth               ...   19
 Integral package used                   ... LIBINT
 Integral threshhold            Thresh   ...  1.000e-10
 Primitive cut-off              TCut     ...  1.000e-11


------------------------------ INTEGRAL EVALUATION ----------------------------


 * One electron integrals 
 Pre-screening matrix                    ... done
 Shell pair data                         ... done (   0.001 sec)



           ************************************************************
           *        Program running with 24 parallel MPI-processes    *
           *              working on a common directory               *
           ************************************************************
-------------------------------------------------------------------------------
                                 ORCA SCF
-------------------------------------------------------------------------------

------------
SCF SETTINGS
------------
Hamiltonian:
 Density Functional     Method          .... DFT(GTOs)
 Exchange Functional    Exchange        .... WB97M-V
 Correlation Functional Correlation     .... WB97M-V
 Gradients option       PostSCFGGA      .... off
 Hybrid DFT is turned on
   Fraction HF Exchange ScalHFX         ....  0.150000
   Scaling of DF-GGA-X  ScalDFX         ....  0.000000
   Scaling of DF-GGA-C  ScalDFC         ....  1.000000
   Scaling of DF-LDA-C  ScalLDAC        ....  1.000000
   Perturbative correction              ....  0.000000
   Density functional embedding theory  .... OFF
 Long-range corrected/Screened/Range-Separated Hybrid DFT is turned on
   Amount of maximum screened exact exchange              ....  0.850000
   Range separation parameter mu (erf(mu*r12)/r12)        ....  0.300000
   NL short-range parameter             ....  6.000000
   NL long-range parameter              ....  0.010000


General Settings:
 Integral files         IntName         .... 26_MnF
 Hartree-Fock type      HFTyp           .... UHF
 Total Charge           Charge          ....    0
 Multiplicity           Mult            ....    7
 Number of Electrons    NEL             ....   34
 Basis Dimension        Dim             ....  139
 Nuclear Repulsion      ENuc            ....     65.1268856993 Eh

Convergence Acceleration:
 DIIS                   CNVDIIS         .... on
   Start iteration      DIISMaxIt       ....     0
   Startup error        DIISStart       ....  0.200000
   # of expansion vecs  DIISMaxEq       ....    15
   Bias factor          DIISBfac        ....   1.050
   Max. coefficient     DIISMaxC        ....  10.000
 Newton-Raphson         CNVNR           .... off
 SOSCF                  CNVSOSCF        .... off
 Level Shifting         CNVShift        .... on
   Level shift para.    LevelShift      ....    0.2500
   Turn off err/grad.   ShiftErr        ....    0.0000
 Zerner damping         CNVZerner       .... off
 Static damping         CNVDamp         .... on
   Fraction old density DampFac         ....    0.8500
   Max. Damping (<1)    DampMax         ....    0.9800
   Min. Damping (>=0)   DampMin         ....    0.0000
   Turn off err/grad.   DampErr         ....    0.0300
 Fernandez-Rico         CNVRico         .... off

SCF Procedure:
 Maximum # iterations   MaxIter         ....   300
 SCF integral mode      SCFMode         .... Direct
   Integral package                     .... LIBINT
 Reset frequency        DirectResetFreq ....     1
 Integral Threshold     Thresh          ....  1.000e-10 Eh
 Primitive CutOff       TCut            ....  1.000e-11 Eh

Convergence Tolerance:
 Convergence Check Mode ConvCheckMode   .... Total+1el-Energy
 Convergence forced     ConvForced      .... 0
 Energy Change          TolE            ....  1.000e-06 Eh
 1-El. energy change                    ....  1.000e-03 Eh
 DIIS Error             TolErr          ....  1.000e-06


Diagonalization of the overlap matrix:
Smallest eigenvalue                        ... 5.155e-05
Time for diagonalization                   ...    0.021 sec
Threshold for overlap eigenvalues          ... 1.000e-08
Number of eigenvalues below threshold      ... 0
Time for construction of square roots      ...    0.002 sec
Total time needed                          ...    0.023 sec

-------------------
DFT GRID GENERATION
-------------------

General Integration Accuracy     IntAcc      ...  4.670
Radial Grid Type                 RadialGrid  ... Gauss-Chebyshev
Angular Grid (max. acc.)         AngularGrid ... Lebedev-302
Angular grid pruning method      GridPruning ... 3 (G Style)
Weight generation scheme         WeightScheme... Becke
Basis function cutoff            BFCut       ...    1.0000e-10
Integration weight cutoff        WCut        ...    1.0000e-14
Grids for H and He will be reduced by one unit

# of grid points (after initial pruning)     ...  15936 (   0.0 sec)
# of grid points (after weights+screening)   ...  15888 (   0.0 sec)
nearest neighbour list constructed           ...    0.0 sec
Grid point re-assignment to atoms done       ...    0.0 sec
Grid point division into batches done        ...    0.1 sec
Reduced shell lists constructed in    0.1 sec

Total number of grid points                  ...    15888
Total number of batches                      ...      250
Average number of points per batch           ...       63
Average number of grid points per atom       ...     7944
Average number of shells per batch           ...    15.17 (38.89%)
Average number of basis functions per batch  ...    36.00 (25.90%)
Average number of large shells per batch     ...     9.58 (63.19%)
Average number of large basis fcns per batch ...    23.25 (64.58%)
Maximum spatial batch extension              ...  28.57, 31.41, 18.58 au
Average spatial batch extension              ...   0.88,  0.94,  0.67 au

Time for grid setup =    0.142 sec

------------------------------
INITIAL GUESS: MODEL POTENTIAL
------------------------------
Loading Hartree-Fock densities                     ... done
Calculating cut-offs                               ... done
Setting up the integral package                    ... done
Initializing the effective Hamiltonian             ... done
Starting the Coulomb interaction                   ... done (   0.0 sec)
Reading the grid                                   ... done
Mapping shells                                     ... done
Starting the XC term evaluation                    ... done (   0.0 sec)
  promolecular density results
     # of electrons  =     34.000001172
     EX              =    -60.549211977
     EC              =     -1.383177405
     EX+EC           =    -61.932389382
Transforming the Hamiltonian                       ... done (   0.0 sec)
Diagonalizing the Hamiltonian                      ... done (   0.0 sec)
Back transforming the eigenvectors                 ... done (   0.0 sec)
Now organizing SCF variables                       ... done
                      ------------------
                      INITIAL GUESS DONE (   0.2 sec)
                      ------------------
--------------
SCF ITERATIONS
--------------
ITER       Energy         Delta-E        Max-DP      RMS-DP      [F,P]     Damp
  0  -1250.8603891621   0.00000000000013.50365151  0.18403750  0.3110819 0.8500
  1  -1250.4355330419   0.424856120229 2.02315682  0.02757742  0.0815245 0.8500
                               ***Turning on DIIS***
  2  -1250.5276192095  -0.092086167588 1.72352455  0.02349125  0.0582113 0.8500
  3  -1250.6019142186  -0.074295009106 1.46786148  0.02000141  0.0598521 0.8500
  4  -1250.6626507132  -0.060736494647 1.24825929  0.01700697  0.0667831 0.8500
  5  -1250.7128413481  -0.050190634837 1.06180232  0.01445455  0.0689753 0.8500
  6  -1250.7546398857  -0.041798537657 0.90217821  0.01226589  0.0681854 0.8500
  7  -1250.7896648329  -0.035024947178 0.76708053  0.01037620  0.0651204 0.8500
  8  -1250.8191459997  -0.029481166820 0.65452875  0.00879981  0.0601217 0.8500
  9  -1250.8440194819  -0.024873482142 0.55522164  0.00741637  0.0537565 0.8500
 10  -1250.8649938683  -0.020974386463 0.47124103  0.00630501  0.0468629 0.8500
 11  -1250.8827014992  -0.017707630825 0.40041095  0.00536839  0.0402726 0.8500
 12  -1250.8976568727  -0.014955373490 0.34054636  0.00456670  0.0343922 0.8500
 13  -1250.9102726208  -0.012615748172 1.93355158  0.02607398  0.0292735 0.0000
 14  -1250.9742776019  -0.064004981065 0.18805370  0.00187593  0.0037505 0.0000
 15  -1250.9746464699  -0.000368868016 0.10460097  0.00113945  0.0022243 0.0000
 16  -1250.9748273316  -0.000180861670 0.04547287  0.00057357  0.0013346 0.0000
 17  -1250.9749661552  -0.000138823587 0.03992155  0.00051167  0.0014082 0.0000
 18  -1250.9751294414  -0.000163286204 0.00883726  0.00011187  0.0019052 0.0000
 19  -1250.9751237347   0.000005706711 0.00645079  0.00008406  0.0018458 0.0000
 20  -1250.9751046524   0.000019082253 0.00594670  0.00007853  0.0018538 0.0000
 21  -1250.9750828929   0.000021759510 0.00416884  0.00005605  0.0018198 0.0000
 22  -1250.9750662307   0.000016662204 0.00286103  0.00003888  0.0017951 0.0000
 23  -1250.9750544467   0.000011784041 0.00208353  0.00002835  0.0017842 0.0000
 24  -1250.9750460170   0.000008429684 0.00164758  0.00002234  0.0017929 0.0000
 25  -1250.9750397203   0.000006296624 0.00131667  0.00001780  0.0018023 0.0000
 26  -1250.9750349356   0.000004784793 0.00106540  0.00001432  0.0018077 0.0000
 27  -1250.9750312151   0.000003720503 0.00094687  0.00001260  0.0018055 0.0000
 28  -1250.9750279228   0.000003292219 0.00161688  0.00002222  0.0017872 0.0000
 29  -1250.9750213833   0.000006539524 0.00621025  0.00008390  0.0017152 0.0000
 30  -1250.9750061165   0.000015266808 0.03346272  0.00042003  0.0017260 0.0000
 31  -1250.9749142609   0.000091855649 0.04278569  0.00054683  0.0017304 0.0000
 32  -1250.9750255303  -0.000111269410 0.00253646  0.00004126  0.0015359 0.0000
 33  -1250.9750351668  -0.000009636574 0.02055688  0.00027662  0.0015216 0.0000
 34  -1250.9749640601   0.000071106724 0.00421713  0.00005228  0.0014822 0.0000
 35  -1250.9749695084  -0.000005448315 0.02457869  0.00033897  0.0014764 0.0000
 36  -1250.9750537778  -0.000084269416 0.01793902  0.00023169  0.0015584 0.0000
 37  -1250.9751303857  -0.000076607819 0.07898528  0.00106151  0.0018734 0.0000
 38  -1250.9748960990   0.000234286676 0.01710073  0.00019703  0.0017474 0.0000
 39  -1250.9748388233   0.000057275682 0.00420928  0.00004761  0.0021219 0.0000
 40  -1250.9748401103  -0.000001287006 0.00596022  0.00006649  0.0021979 0.0000
 41  -1250.9748533463  -0.000013235992 0.00357894  0.00004060  0.0021736 0.0000
 42  -1250.9748631919  -0.000009845620 0.00182029  0.00002087  0.0021408 0.0000
 43  -1250.9748686869  -0.000005494955 0.00094903  0.00001091  0.0021169 0.0000
 44  -1250.9748715977  -0.000002910806 0.00020570  0.00000253  0.0020997 0.0000
                 **** Energy Check signals convergence ****

               *****************************************************
               *                     SUCCESS                       *
               *           SCF CONVERGED AFTER  45 CYCLES          *
               *****************************************************


Setting up the DFT-NL grid :

General Integration Accuracy     IntAcc      ...  4.340
Radial Grid Type                 RadialGrid  ... Gauss-Chebyshev
Angular Grid (max. acc.)         AngularGrid ... Lebedev-110
Angular grid pruning method      GridPruning ... 3 (G Style)
Weight generation scheme         WeightScheme... Becke
Basis function cutoff            BFCut       ...    1.0000e-10
Integration weight cutoff        WCut        ...    1.0000e-14
Grids for H and He will be reduced by one unit

# of grid points (after initial pruning)     ...   4652 (   0.0 sec)
# of grid points (after weights+screening)   ...   4627 (   0.0 sec)
nearest neighbour list constructed           ...    0.0 sec
Grid point re-assignment to atoms done       ...    0.0 sec
Grid point division into batches done        ...    0.0 sec
Reduced shell lists constructed in    0.0 sec

Total number of grid points                  ...     4627
Total number of batches                      ...       73
Average number of points per batch           ...       63
Average number of grid points per atom       ...     2314
Average number of shells per batch           ...    20.80 (53.33%)
Average number of basis functions per batch  ...    59.20 (42.59%)
Average number of large shells per batch     ...    16.40 (78.85%)
Average number of large basis fcns per batch ...    49.60 (83.78%)
Maximum spatial batch extension              ...  19.55, 28.73, 15.95 au
Average spatial batch extension              ...   1.01,  1.33,  0.87 au

Final grid set up in    0.0 sec

-------------------------------------------------------------------------------
                         DFT-NL dispersion correction                          
-------------------------------------------------------------------------------

SC Energy -1250.974871603 
NL    Energy 0.143538326 
SC+NL Energy -1250.831333277 
NL done in    0.0 sec
-------------------------------------------------------------------------------

----------------
TOTAL SCF ENERGY
----------------

Total Energy       :        -1250.83133328 Eh          -34036.85098 eV

Components:
Nuclear Repulsion  :           65.12688570 Eh            1772.19266 eV
Electronic Energy  :        -1315.95821898 Eh          -35809.04363 eV
One Electron Energy:        -1855.41223251 Eh          -50488.33362 eV
Two Electron Energy:          539.45401353 Eh           14679.28999 eV

Virial components:
Potential Energy   :        -2500.00993163 Eh          -68028.72875 eV
Kinetic Energy     :         1249.17859835 Eh           33991.87777 eV
Virial Ratio       :            2.00132306


DFT components:
N(Alpha)           :       20.000015001407 electrons
N(Beta)            :       14.000014949988 electrons
N(Total)           :       34.000029951395 electrons
E(X)               :      -47.264987328619 Eh       
E(C)               :       -1.556823606239 Eh       
NL Energy, E(C,NL) :        0.143538326415 Eh       
E(XC)              :      -48.678272608442 Eh       
DFET-embed. en.    :        0.000000000000 Eh       

---------------
SCF CONVERGENCE
---------------

  Last Energy change         ...   -5.6293e-09  Tolerance :   1.0000e-06
  Last MAX-Density change    ...    3.5068e-04  Tolerance :   1.0000e-05
  Last RMS-Density change    ...    4.0688e-06  Tolerance :   1.0000e-06
  Last DIIS Error            ...    2.0925e-03  Tolerance :   1.0000e-06

             **** THE GBW FILE WAS UPDATED (26_MnF.gbw) ****
             **** DENSITY FILE WAS UPDATED (26_MnF.scfp) ****
             **** ENERGY FILE WAS UPDATED (26_MnF.en.tmp) ****
----------------------
UHF SPIN CONTAMINATION
----------------------

Warning: in a DFT calculation there is little theoretical justification to 
         calculate <S**2> as in Hartree-Fock theory. We will do it anyways
         but you should keep in mind that the values have only limited relevance

Expectation value of <S**2>     :    12.005691
Ideal value S*(S+1) for S=3.0   :    12.000000
Deviation                       :     0.005691

             **** THE GBW FILE WAS UPDATED (26_MnF.gbw) ****
             **** DENSITY FILE WAS UPDATED (26_MnF.scfp) ****
----------------
ORBITAL ENERGIES
----------------
                 SPIN UP ORBITALS
  NO   OCC          E(Eh)            E(eV) 
   0   1.0000    -236.004324     -6422.0042 
   1   1.0000     -27.633057      -751.9337 
   2   1.0000     -24.836692      -675.8407 
   3   1.0000     -23.615164      -642.6013 
   4   1.0000     -23.615164      -642.6013 
   5   1.0000     -23.611988      -642.5149 
   6   1.0000      -3.469599       -94.4126 
   7   1.0000      -2.319114       -63.1063 
   8   1.0000      -2.319114       -63.1063 
   9   1.0000      -2.310773       -62.8793 
  10   1.0000      -1.232893       -33.5487 
  11   1.0000      -0.557820       -15.1791 
  12   1.0000      -0.525785       -14.3073 
  13   1.0000      -0.525784       -14.3073 
  14   1.0000      -0.500083       -13.6080 
  15   1.0000      -0.500083       -13.6079 
  16   1.0000      -0.443534       -12.0692 
  17   1.0000      -0.443534       -12.0692 
  18   1.0000      -0.431601       -11.7445 
  19   1.0000      -0.284446        -7.7402 
  20   0.0000       0.000299         0.0081 
  21   0.0000       0.000300         0.0082 
  22   0.0000       0.010320         0.2808 
  23   0.0000       0.017740         0.4827 
  24   0.0000       0.047632         1.2961 
  25   0.0000       0.047633         1.2962 
  26   0.0000       0.064474         1.7544 
  27   0.0000       0.064474         1.7544 
  28   0.0000       0.067323         1.8320 
  29   0.0000       0.070940         1.9304 
  30   0.0000       0.070941         1.9304 
  31   0.0000       0.093930         2.5560 
  32   0.0000       0.124006         3.3744 
  33   0.0000       0.192487         5.2378 
  34   0.0000       0.192487         5.2378 
  35   0.0000       0.231223         6.2919 
  36   0.0000       0.264981         7.2105 
  37   0.0000       0.270738         7.3671 
  38   0.0000       0.270738         7.3672 
  39   0.0000       0.271711         7.3936 
  40   0.0000       0.271711         7.3936 
  41   0.0000       0.300167         8.1679 
  42   0.0000       0.300167         8.1680 
  43   0.0000       0.351931         9.5765 
  44   0.0000       0.475588        12.9414 
  45   0.0000       0.573489        15.6054 
  46   0.0000       0.683512        18.5993 
  47   0.0000       0.683513        18.5993 
  48   0.0000       0.711101        19.3500 
  49   0.0000       0.711101        19.3500 
  50   0.0000       0.715553        19.4712 
  51   0.0000       0.715553        19.4712 
  52   0.0000       0.815986        22.2041 
  53   0.0000       0.819910        22.3109 
  54   0.0000       0.819911        22.3109 
  55   0.0000       0.918874        25.0038 
  56   0.0000       0.918874        25.0038 
  57   0.0000       0.930800        25.3284 
  58   0.0000       0.948159        25.8007 
  59   0.0000       0.948162        25.8008 
  60   0.0000       1.012602        27.5543 
  61   0.0000       1.012604        27.5544 
  62   0.0000       1.037866        28.2418 
  63   0.0000       1.091025        29.6883 
  64   0.0000       1.091025        29.6883 
  65   0.0000       1.322742        35.9936 
  66   0.0000       1.429447        38.8972 
  67   0.0000       1.475969        40.1631 
  68   0.0000       1.475969        40.1631 
  69   0.0000       2.139879        58.2291 
  70   0.0000       2.139879        58.2291 
  71   0.0000       2.192976        59.6739 
  72   0.0000       2.192976        59.6739 
  73   0.0000       2.199446        59.8500 
  74   0.0000       2.199446        59.8500 
  75   0.0000       2.218538        60.3695 
  76   0.0000       2.345967        63.8370 
  77   0.0000       2.517571        68.5066 
  78   0.0000       2.517579        68.5068 
  79   0.0000       2.595787        70.6349 
  80   0.0000       2.615281        71.1654 
  81   0.0000       2.615281        71.1654 
  82   0.0000       2.632361        71.6302 
  83   0.0000       2.632361        71.6302 
  84   0.0000       2.681809        72.9757 
  85   0.0000       2.681814        72.9759 
  86   0.0000       2.698904        73.4409 
  87   0.0000       2.698904        73.4409 
  88   0.0000       2.752004        74.8858 
  89   0.0000       2.752138        74.8895 
  90   0.0000       2.833246        77.0965 
  91   0.0000       2.870066        78.0985 
  92   0.0000       2.870066        78.0985 
  93   0.0000       2.934110        79.8412 
  94   0.0000       3.092110        84.1406 
  95   0.0000       3.092111        84.1406 
  96   0.0000       3.273506        89.0766 
  97   0.0000       3.273542        89.0776 
  98   0.0000       3.336754        90.7977 
  99   0.0000       3.785150       102.9992 
 100   0.0000       3.785151       102.9992 
 101   0.0000       3.889543       105.8398 
 102   0.0000       3.889545       105.8399 
 103   0.0000       4.116989       112.0290 
 104   0.0000       4.173578       113.5688 
 105   0.0000       4.173578       113.5688 
 106   0.0000       4.724355       128.5562 
 107   0.0000       5.028810       136.8409 
 108   0.0000       5.028811       136.8409 
 109   0.0000       5.548803       150.9906 
 110   0.0000       7.449466       202.7103 
 111   0.0000       7.449466       202.7103 
 112   0.0000       7.462494       203.0648 
 113   0.0000       7.462494       203.0648 
 114   0.0000       7.540493       205.1872 
 115   0.0000       7.540493       205.1872 
 116   0.0000       7.716869       209.9867 
 117   0.0000       7.965850       216.7618 
 118   0.0000       7.965902       216.7632 
 119   0.0000       7.971285       216.9097 
 120   0.0000       7.971285       216.9097 
 121   0.0000       8.029406       218.4912 
 122   0.0000       8.029416       218.4915 
 123   0.0000       8.238587       224.1834 
 124   0.0000       8.238587       224.1834 
 125   0.0000       8.279641       225.3005 
 126   0.0000       8.478124       230.7015 
 127   0.0000       8.478124       230.7015 
 128   0.0000       8.613827       234.3942 
 129   0.0000       8.613968       234.3980 
 130   0.0000       8.911461       242.4932 
 131   0.0000       8.911804       242.5025 
 132   0.0000       8.912790       242.5293 
 133   0.0000       8.915978       242.6161 
 134   0.0000       8.915979       242.6161 
 135   0.0000       9.072969       246.8880 
 136   0.0000       9.072970       246.8881 
 137   0.0000       9.350575       254.4421 
 138   0.0000      14.239529       387.4773 

                 SPIN DOWN ORBITALS
  NO   OCC          E(Eh)            E(eV) 
   0   1.0000    -236.001050     -6421.9151 
   1   1.0000     -27.535260      -749.2725 
   2   1.0000     -24.830948      -675.6845 
   3   1.0000     -23.536796      -640.4688 
   4   1.0000     -23.536796      -640.4688 
   5   1.0000     -23.533999      -640.3927 
   6   1.0000      -3.254083       -88.5481 
   7   1.0000      -2.081463       -56.6395 
   8   1.0000      -2.081463       -56.6395 
   9   1.0000      -2.074198       -56.4418 
  10   1.0000      -1.218797       -33.1652 
  11   1.0000      -0.499304       -13.5868 
  12   1.0000      -0.472432       -12.8555 
  13   1.0000      -0.472431       -12.8555 
  14   0.0000      -0.297390        -8.0924 
  15   0.0000      -0.214303        -5.8315 
  16   0.0000      -0.214195        -5.8285 
  17   0.0000      -0.125975        -3.4280 
  18   0.0000      -0.075375        -2.0511 
  19   0.0000      -0.074770        -2.0346 
  20   0.0000      -0.034803        -0.9470 
  21   0.0000      -0.006248        -0.1700 
  22   0.0000      -0.005697        -0.1550 
  23   0.0000      -0.002087        -0.0568 
  24   0.0000      -0.001936        -0.0527 
  25   0.0000       0.018279         0.4974 
  26   0.0000       0.024354         0.6627 
  27   0.0000       0.024705         0.6722 
  28   0.0000       0.052978         1.4416 
  29   0.0000       0.053134         1.4458 
  30   0.0000       0.064043         1.7427 
  31   0.0000       0.090430         2.4607 
  32   0.0000       0.140955         3.8356 
  33   0.0000       0.141092         3.8393 
  34   0.0000       0.158405         4.3104 
  35   0.0000       0.171295         4.6612 
  36   0.0000       0.171826         4.6756 
  37   0.0000       0.185909         5.0589 
  38   0.0000       0.210477         5.7274 
  39   0.0000       0.210480         5.7274 
  40   0.0000       0.231863         6.3093 
  41   0.0000       0.251191         6.8352 
  42   0.0000       0.251313         6.8386 
  43   0.0000       0.324756         8.8371 
  44   0.0000       0.447763        12.1843 
  45   0.0000       0.547072        14.8866 
  46   0.0000       0.671381        18.2692 
  47   0.0000       0.671433        18.2706 
  48   0.0000       0.672445        18.2981 
  49   0.0000       0.672445        18.2982 
  50   0.0000       0.689817        18.7709 
  51   0.0000       0.689825        18.7711 
  52   0.0000       0.828474        22.5439 
  53   0.0000       0.828488        22.5443 
  54   0.0000       0.830765        22.6063 
  55   0.0000       0.954058        25.9612 
  56   0.0000       0.954064        25.9614 
  57   0.0000       0.960863        26.1464 
  58   0.0000       0.973867        26.5003 
  59   0.0000       0.973930        26.5020 
  60   0.0000       1.023983        27.8640 
  61   0.0000       1.031272        28.0623 
  62   0.0000       1.031319        28.0636 
  63   0.0000       1.096595        29.8399 
  64   0.0000       1.096615        29.8404 
  65   0.0000       1.376492        37.4563 
  66   0.0000       1.431761        38.9602 
  67   0.0000       1.491142        40.5760 
  68   0.0000       1.491147        40.5762 
  69   0.0000       2.198115        59.8138 
  70   0.0000       2.198119        59.8138 
  71   0.0000       2.273313        61.8600 
  72   0.0000       2.273317        61.8601 
  73   0.0000       2.279812        62.0368 
  74   0.0000       2.279812        62.0368 
  75   0.0000       2.288985        62.2864 
  76   0.0000       2.389325        65.0168 
  77   0.0000       2.548334        69.3437 
  78   0.0000       2.548359        69.3444 
  79   0.0000       2.640656        71.8559 
  80   0.0000       2.640656        71.8559 
  81   0.0000       2.679339        72.9085 
  82   0.0000       2.679340        72.9085 
  83   0.0000       2.716276        73.9136 
  84   0.0000       2.723109        74.0996 
  85   0.0000       2.723128        74.1001 
  86   0.0000       2.760228        75.1096 
  87   0.0000       2.760372        75.1135 
  88   0.0000       2.807099        76.3851 
  89   0.0000       2.807104        76.3852 
  90   0.0000       2.879056        78.3431 
  91   0.0000       2.884845        78.5006 
  92   0.0000       2.884845        78.5006 
  93   0.0000       2.992104        81.4193 
  94   0.0000       3.111614        84.6713 
  95   0.0000       3.111614        84.6713 
  96   0.0000       3.294892        89.6586 
  97   0.0000       3.294942        89.6599 
  98   0.0000       3.423367        93.1545 
  99   0.0000       3.849141       104.7404 
 100   0.0000       3.849142       104.7405 
 101   0.0000       4.060696       110.4971 
 102   0.0000       4.060718       110.4978 
 103   0.0000       4.150424       112.9388 
 104   0.0000       4.308315       117.2352 
 105   0.0000       4.308316       117.2352 
 106   0.0000       4.854991       132.1110 
 107   0.0000       5.040245       137.1520 
 108   0.0000       5.040247       137.1521 
 109   0.0000       5.584420       151.9598 
 110   0.0000       7.662597       208.5099 
 111   0.0000       7.662597       208.5099 
 112   0.0000       7.677703       208.9209 
 113   0.0000       7.677705       208.9210 
 114   0.0000       7.745279       210.7597 
 115   0.0000       7.745279       210.7598 
 116   0.0000       7.907089       215.1628 
 117   0.0000       8.129216       221.2072 
 118   0.0000       8.129255       221.2083 
 119   0.0000       8.131013       221.2561 
 120   0.0000       8.131013       221.2561 
 121   0.0000       8.177728       222.5273 
 122   0.0000       8.177742       222.5277 
 123   0.0000       8.387958       228.2479 
 124   0.0000       8.387959       228.2480 
 125   0.0000       8.401144       228.6068 
 126   0.0000       8.490106       231.0275 
 127   0.0000       8.490106       231.0275 
 128   0.0000       8.634908       234.9678 
 129   0.0000       8.635020       234.9708 
 130   0.0000       8.926123       242.8922 
 131   0.0000       8.926468       242.9015 
 132   0.0000       8.929716       242.9899 
 133   0.0000       8.929716       242.9899 
 134   0.0000       8.950335       243.5510 
 135   0.0000       9.097880       247.5659 
 136   0.0000       9.097880       247.5659 
 137   0.0000       9.382554       255.3123 
 138   0.0000      14.252543       387.8314 

                    ********************************
                    * MULLIKEN POPULATION ANALYSIS *
                    ********************************

--------------------------------------------
MULLIKEN ATOMIC CHARGES AND SPIN POPULATIONS
--------------------------------------------
   0 Mn:    0.594631    5.852078
   1 F :   -0.594631    0.147922
Sum of atomic charges         :    0.0000000
Sum of atomic spin populations:    6.0000000

-----------------------------------------------------
MULLIKEN REDUCED ORBITAL CHARGES AND SPIN POPULATIONS
-----------------------------------------------------
CHARGE
  0 Mns       :     6.931607  s :     6.931607
      pz      :     4.249662  p :    12.324094
      px      :     4.037216
      py      :     4.037217
      dz2     :     1.048787  d :     5.126817
      dxz     :     1.039192
      dyz     :     1.039194
      dx2y2   :     0.999822
      dxy     :     0.999822
      f0      :     0.008564  f :     0.019802
      f+1     :     0.005585
      f-1     :     0.005585
      f+2     :     0.000034
      f-2     :     0.000034
      f+3     :     0.000000
      f-3     :     0.000000
      g0      :     0.001604  g :     0.003049
      g+1     :     0.000720
      g-1     :     0.000720
      g+2     :     0.000002
      g-2     :     0.000002
      g+3     :     0.000000
      g-3     :     0.000000
      g+4     :     0.000000
      g-4     :     0.000000
  1 F s       :     3.968729  s :     3.968729
      pz      :     1.788215  p :     5.615766
      px      :     1.913777
      py      :     1.913774
      dz2     :     0.002267  d :     0.008831
      dxz     :     0.003168
      dyz     :     0.003168
      dx2y2   :     0.000114
      dxy     :     0.000114
      f0      :     0.000565  f :     0.001305
      f+1     :     0.000343
      f-1     :     0.000343
      f+2     :     0.000027
      f-2     :     0.000027
      f+3     :     0.000000
      f-3     :     0.000000

SPIN
  0 Mns       :     0.822633  s :     0.822633
      pz      :     0.190672  p :     0.188231
      px      :    -0.001220
      py      :    -0.001221
      dz2     :     0.919118  d :     4.839437
      dxz     :     0.960338
      dyz     :     0.960337
      dx2y2   :     0.999822
      dxy     :     0.999822
      f0      :     0.000760  f :     0.001480
      f+1     :     0.000326
      f-1     :     0.000326
      f+2     :     0.000034
      f-2     :     0.000034
      f+3     :     0.000000
      f-3     :     0.000000
      g0      :     0.000099  g :     0.000296
      g+1     :     0.000096
      g-1     :     0.000096
      g+2     :     0.000002
      g-2     :     0.000002
      g+3     :    -0.000000
      g-3     :    -0.000000
      g+4     :    -0.000000
      g-4     :     0.000000
  1 F s       :     0.002814  s :     0.002814
      pz      :     0.063740  p :     0.145983
      px      :     0.041120
      py      :     0.041123
      dz2     :     0.000032  d :    -0.001192
      dxz     :    -0.000726
      dyz     :    -0.000726
      dx2y2   :     0.000114
      dxy     :     0.000114
      f0      :     0.000130  f :     0.000317
      f+1     :     0.000066
      f-1     :     0.000066
      f+2     :     0.000027
      f-2     :     0.000027
      f+3     :    -0.000000
      f-3     :    -0.000000


                     *******************************
                     * LOEWDIN POPULATION ANALYSIS *
                     *******************************

-------------------------------------------
LOEWDIN ATOMIC CHARGES AND SPIN POPULATIONS
-------------------------------------------
   0 Mn:    0.439459    5.751431
   1 F :   -0.439459    0.248569

----------------------------------------------------
LOEWDIN REDUCED ORBITAL CHARGES AND SPIN POPULATIONS
----------------------------------------------------
CHARGE
  0 Mns       :     6.717091  s :     6.717091
      pz      :     4.325905  p :    12.415370
      px      :     4.044732
      py      :     4.044733
      dz2     :     1.121140  d :     5.210375
      dxz     :     1.046791
      dyz     :     1.046791
      dx2y2   :     0.997827
      dxy     :     0.997827
      f0      :     0.084461  f :     0.192657
      f+1     :     0.053984
      f-1     :     0.053984
      f+2     :     0.000114
      f-2     :     0.000114
      f+3     :     0.000000
      f-3     :     0.000000
      g0      :     0.012597  g :     0.025048
      g+1     :     0.006207
      g-1     :     0.006207
      g+2     :     0.000018
      g-2     :     0.000018
      g+3     :     0.000000
      g-3     :     0.000000
      g+4     :     0.000000
      g-4     :     0.000000
  1 F s       :     3.732918  s :     3.732918
      pz      :     1.897988  p :     5.518026
      px      :     1.810019
      py      :     1.810018
      dz2     :     0.091190  d :     0.156790
      dxz     :     0.031325
      dyz     :     0.031325
      dx2y2   :     0.001475
      dxy     :     0.001475
      f0      :     0.016711  f :     0.031725
      f+1     :     0.006941
      f-1     :     0.006941
      f+2     :     0.000566
      f-2     :     0.000566
      f+3     :     0.000000
      f-3     :     0.000000

SPIN
  0 Mns       :     0.726986  s :     0.726986
      pz      :     0.246973  p :     0.261051
      px      :     0.007039
      py      :     0.007039
      dz2     :     0.892633  d :     4.744922
      dxz     :     0.928318
      dyz     :     0.928318
      dx2y2   :     0.997827
      dxy     :     0.997827
      f0      :     0.003789  f :     0.015410
      f+1     :     0.005697
      f-1     :     0.005697
      f+2     :     0.000114
      f-2     :     0.000114
      f+3     :     0.000000
      f-3     :     0.000000
      g0      :     0.001145  g :     0.003062
      g+1     :     0.000940
      g-1     :     0.000940
      g+2     :     0.000018
      g-2     :     0.000018
      g+3     :    -0.000000
      g-3     :    -0.000000
      g+4     :    -0.000000
      g-4     :     0.000000
  1 F s       :     0.028624  s :     0.028624
      pz      :     0.089757  p :     0.159288
      px      :     0.034765
      py      :     0.034766
      dz2     :     0.006285  d :     0.045340
      dxz     :     0.018052
      dyz     :     0.018052
      dx2y2   :     0.001475
      dxy     :     0.001475
      f0      :     0.003808  f :     0.015318
      f+1     :     0.005189
      f-1     :     0.005189
      f+2     :     0.000566
      f-2     :     0.000566
      f+3     :    -0.000000
      f-3     :    -0.000000


                      *****************************
                      * MAYER POPULATION ANALYSIS *
                      *****************************

  NA   - Mulliken gross atomic population
  ZA   - Total nuclear charge
  QA   - Mulliken gross atomic charge
  VA   - Mayer's total valence
  BVA  - Mayer's bonded valence
  FA   - Mayer's free valence

  ATOM       NA         ZA         QA         VA         BVA        FA
  0 Mn    24.4054    25.0000     0.5946     6.4927     0.7257     5.7670
  1 F      9.5946     9.0000    -0.5946     0.7302     0.7257     0.0045

  Mayer bond orders larger than 0.100000
B(  0-Mn,  1-F ) :   0.7257 

-------
TIMINGS
-------

Total SCF time: 0 days 0 hours 9 min 43 sec 

Total time                  ....     583.652 sec
Sum of individual times     ....     583.130 sec  ( 99.9%)

Fock matrix formation       ....     582.264 sec  ( 99.8%)
  XC integration            ....       1.714 sec  (  0.3% of F)
    Basis function eval.    ....       0.204 sec  ( 11.9% of XC)
    Density eval.           ....       0.246 sec  ( 14.4% of XC)
    XC-Functional eval.     ....       0.051 sec  (  3.0% of XC)
    XC-Potential eval.      ....       0.678 sec  ( 39.6% of XC)
Diagonalization             ....       0.259 sec  (  0.0%)
Density matrix formation    ....       0.035 sec  (  0.0%)
Population analysis         ....       0.007 sec  (  0.0%)
Initial guess               ....       0.098 sec  (  0.0%)
Orbital Transformation      ....       0.000 sec  (  0.0%)
Orbital Orthonormalization  ....       0.000 sec  (  0.0%)
DIIS solution               ....       0.305 sec  (  0.1%)
Grid generation             ....       0.160 sec  (  0.0%)

-------------------------   --------------------
FINAL SINGLE POINT ENERGY     -1250.831333276898
-------------------------   --------------------


                            ***************************************
                            *     ORCA property calculations      *
                            ***************************************

                                    ---------------------
                                    Active property flags
                                    ---------------------
   (+) Dipole Moment


------------------------------------------------------------------------------
                       ORCA ELECTRIC PROPERTIES CALCULATION
------------------------------------------------------------------------------

Dipole Moment Calculation                       ... on
Quadrupole Moment Calculation                   ... off
Polarizability Calculation                      ... off
GBWName                                         ... 26_MnF.gbw
Electron density file                           ... 26_MnF.scfp
The origin for moment calculation is the CENTER OF MASS  = ( 0.000000,  0.000000  1.050021)

-------------
DIPOLE MOMENT
-------------
                                X             Y             Z
Electronic contribution:     -0.00007       0.00004      -1.80985
Nuclear contribution   :      0.00000       0.00000       0.91162
                        -----------------------------------------
Total Dipole Moment    :     -0.00007       0.00004      -0.89823
                        -----------------------------------------
Magnitude (a.u.)       :      0.89823
Magnitude (Debye)      :      2.28313



--------------------
Rotational spectrum 
--------------------
 
Rotational constants in cm-1:     0.000000     0.357290     0.357290 
Rotational constants in MHz :     0.000000 10711.297675 10711.297675 

 Dipole components along the rotational axes: 
x,y,z [a.u.] :    -0.898233     0.000036    -0.000068 
x,y,z [Debye]:    -2.283126     0.000093    -0.000172 

 

Timings for individual modules:

Sum of individual times         ...      588.949 sec (=   9.816 min)
GTO integral calculation        ...        4.510 sec (=   0.075 min)   0.8 %
SCF iterations                  ...      584.440 sec (=   9.741 min)  99.2 %
                             ****ORCA TERMINATED NORMALLY****
TOTAL RUN TIME: 0 days 0 hours 9 minutes 49 seconds 813 msec
