
                                 *****************
                                 * O   R   C   A *
                                 *****************

           --- An Ab Initio, DFT and Semiempirical electronic structure package ---

                  #######################################################
                  #                        -***-                        #
                  #          Department of theory and spectroscopy      #
                  #               Directorship: Frank Neese             #
                  #        Max Planck Institute fuer Kohlenforschung    #
                  #                Kaiser Wilhelm Platz 1               #
                  #                 D-45470 Muelheim/Ruhr               #
                  #                      Germany                        #
                  #                                                     #
                  #                  All rights reserved                #
                  #                        -***-                        #
                  #######################################################


                         Program Version 4.2.0 -  RELEASE  -


 With contributions from (in alphabetic order):
   Daniel Aravena         : Magnetic Suceptibility
   Michael Atanasov       : Ab Initio Ligand Field Theory (pilot matlab implementation)
   Alexander A. Auer      : GIAO ZORA, VPT2
   Ute Becker             : Parallelization
   Giovanni Bistoni       : ED, misc. LED, open-shell LED, HFLED
   Martin Brehm           : Molecular dynamics
   Dmytro Bykov           : SCF Hessian
   Vijay G. Chilkuri      : MRCI spin determinant printing, contributions to CSF-ICE
   Dipayan Datta          : RHF DLPNO-CCSD density
   Achintya Kumar Dutta   : EOM-CC, STEOM-CC
   Dmitry Ganyushin       : Spin-Orbit,Spin-Spin,Magnetic field MRCI
   Miquel Garcia          : C-PCM Hessian, Gaussian charge scheme
   Yang Guo               : DLPNO-NEVPT2, CIM, IAO-localization
   Andreas Hansen         : Spin unrestricted coupled pair/coupled cluster methods
   Benjamin Helmich-Paris : CASSCF linear response (MC-RPA)
   Lee Huntington         : MR-EOM, pCC
   Robert Izsak           : Overlap fitted RIJCOSX, COSX-SCS-MP3, EOM
   Christian Kollmar      : KDIIS, OOCD, Brueckner-CCSD(T), CCSD density
   Simone Kossmann        : Meta GGA functionals, TD-DFT gradient, OOMP2, MP2 Hessian
   Martin Krupicka        : AUTO-CI
   Lucas Lang             : DCDCAS
   Dagmar Lenk            : GEPOL surface, SMD
   Dimitrios Liakos       : Extrapolation schemes; Compound Job, initial MDCI parallelization
   Dimitrios Manganas     : Further ROCIS development; embedding schemes
   Dimitrios Pantazis     : SARC Basis sets
   Taras Petrenko         : DFT Hessian,TD-DFT gradient, ASA, ECA, R-Raman, ABS, FL, XAS/XES, NRVS
   Peter Pinski           : DLPNO-MP2, DLPNO-MP2 Gradient
   Christoph Reimann      : Effective Core Potentials
   Marius Retegan         : Local ZFS, SOC
   Christoph Riplinger    : Optimizer, TS searches, QM/MM, DLPNO-CCSD(T), (RO)-DLPNO pert. Triples
   Tobias Risthaus        : Range-separated hybrids, TD-DFT gradient, RPA, STAB
   Michael Roemelt        : Original ROCIS implementation
   Masaaki Saitow         : Open-shell DLPNO-CCSD energy and density
   Barbara Sandhoefer     : DKH picture change effects
   Avijit Sen             : IP-ROCIS
   Kantharuban Sivalingam : CASSCF convergence, NEVPT2, FIC-MRCI
   Bernardo de Souza      : ESD, SOC TD-DFT
   Georgi Stoychev        : AutoAux, RI-MP2 NMR
   Willem Van den Heuvel  : Paramagnetic NMR
   Boris Wezisla          : Elementary symmetry handling
   Frank Wennmohs         : Technical directorship


 We gratefully acknowledge several colleagues who have allowed us to
 interface, adapt or use parts of their codes:
   Stefan Grimme, W. Hujo, H. Kruse,             : VdW corrections, initial TS optimization,
                  C. Bannwarth                     DFT functionals, gCP, sTDA/sTD-DF
   Ed Valeev, F. Pavosevic, A. Kumar             : LibInt (2-el integral package), F12 methods
   Garnet Chan, S. Sharma, J. Yang, R. Olivares  : DMRG
   Ulf Ekstrom                                   : XCFun DFT Library
   Mihaly Kallay                                 : mrcc  (arbitrary order and MRCC methods)
   Andreas Klamt, Michael Diedenhofen            : otool_cosmo (COSMO solvation model)
   Jiri Pittner, Ondrej Demel                    : Mk-CCSD
   Frank Weinhold                                : gennbo (NPA and NBO analysis)
   Christopher J. Cramer and Donald G. Truhlar   : smd solvation model
   Lars Goerigk                                  : TD-DFT with DH, B97 family of functionals
   V. Asgeirsson, H. Jonsson                     : NEB implementation
   FAccTs GmbH                                   : IRC, NEB, NEB-TS, Multilevel, MM, QM/MM, CI optimization
   S Lehtola, MJT Oliveira, MAL Marques          : LibXC Library


 Your calculation uses the libint2 library for the computation of 2-el integrals
 For citations please refer to: http://libint.valeyev.net

 Your ORCA version has been built with support for libXC version: 4.2.3
 For citations please refer to: https://tddft.org/programs/libxc/

 This ORCA versions uses:
   CBLAS   interface :  Fast vector & matrix operations
   LAPACKE interface :  Fast linear algebra routines
   SCALAPACK package :  Parallel linear algebra routines


Your calculation utilizes the DFT-NL dispersion correction.
Cite in your paper:
Vydrov, O. A.; Van Voorhis, T. J. Chem. Phys. 2010, 133, 244103
Hujo, W.; Grimme, S. J. Chem. Theory Comput. 2011, 7, 3866 
   

----- Orbital basis set information -----
Your calculation utilizes the basis: aug-cc-pVTZ 
    H, B-Ne : Obtained from the ccRepo (grant-hill.group.shef.ac.uk/ccrepo) Feb. 2017
              R. A. Kendall, T. H. Dunning, Jr., R. J. Harrison, J. Chem. Phys. 96, 6796 (1992)
         He : Obtained from the ccRepo (grant-hill.group.shef.ac.uk/ccrepo) Feb. 2017
              D. E. Woon, T. H. Dunning, Jr., J. Chem. Phys. 100, 2975 (1994)
  Li-Be, Na : Obtained from the ccRepo (grant-hill.group.shef.ac.uk/ccrepo) Feb. 2017
              B. P. Prascher, D. E. Woon, K. A. Peterson, T. H. Dunning, Jr., A. K. Wilson, Theor. Chem. Acc. 128, 69 (2011)
         Mg : Obtained from the Peterson Research Group Website (tyr0.chem.wsu.edu/~kipeters) Feb. 2017
              B. P. Prascher, D. E. Woon, K. A. Peterson, T. H. Dunning, Jr., A. K. Wilson, Theor. Chem. Acc. 128, 69 (2011)
      Al-Ar : Obtained from the ccRepo (grant-hill.group.shef.ac.uk/ccrepo) Feb. 2017
              D. E. Woon, T. H. Dunning, Jr., J. Chem. Phys. 98, 1358 (1993)
      Sc-Zn : Obtained from the ccRepo (grant-hill.group.shef.ac.uk/ccrepo) Feb. 2017
              N. B. Balabanov, K. A. Peterson, J. Chem. Phys. 123, 064107 (2005)
              N. B. Balabanov, K. A. Peterson, J. Chem. Phys. 125, 074110 (2006)
      Ga-Kr : Obtained from the ccRepo (grant-hill.group.shef.ac.uk/ccrepo) Feb. 2017
              A. K. Wilson, D. E. Woon, K. A. Peterson, T. H. Dunning, Jr., J. Chem. Phys. 110, 7667 (1999)
     Ag, Au : Obtained from the Peterson Research Group Website (tyr0.chem.wsu.edu/~kipeters) Feb. 2017
              K. A. Peterson, C. Puzzarini, Theor. Chem. Acc. 114, 283 (2005)

----- AuxJK basis set information -----
Your calculation utilizes the auxiliary basis: def2/JK
   H-Ba, Hf-Rn: F. Weigend, J. Comput. Chem. 29, 167 (2008).

================================================================================
                                        WARNINGS
                       Please study these warnings very carefully!
================================================================================


WARNING: your system is open-shell and RHF/RKS was chosen
  ===> : WILL SWITCH to UHF/UKS


INFO   : the flag for use of LIBINT has been found!

================================================================================
                                       INPUT FILE
================================================================================
NAME = 30_MnS.in
|  1> #
|  2> # 30_MnS wb97m-v/aug-cc-pvtz
|  3> #
|  4> ! wb97m-v aug-cc-pvtz def2/jk grid4 nofinalgrid
|  5> 
|  6> *xyz 0 6
|  7>   Mn  0.00000000000000      0.00000000000000     -0.02260858554296
|  8>   S   0.00000000000000      0.00000000000000      2.02260858554296
|  9> *
| 10> 
| 11> %pal
| 12> nprocs 24
| 13> end
| 14> 
| 15> 
| 16>                          ****END OF INPUT****
================================================================================

                       ****************************
                       * Single Point Calculation *
                       ****************************

---------------------------------
CARTESIAN COORDINATES (ANGSTROEM)
---------------------------------
  Mn     0.000000    0.000000   -0.022609
  S      0.000000    0.000000    2.022609

----------------------------
CARTESIAN COORDINATES (A.U.)
----------------------------
  NO LB      ZA    FRAG     MASS         X           Y           Z
   0 Mn   25.0000    0    54.940    0.000000    0.000000   -0.042724
   1 S    16.0000    0    32.060    0.000000    0.000000    3.822176

--------------------------------
INTERNAL COORDINATES (ANGSTROEM)
--------------------------------
 Mn     0   0   0     0.000000000000     0.00000000     0.00000000
 S      1   0   0     2.045217171086     0.00000000     0.00000000

---------------------------
INTERNAL COORDINATES (A.U.)
---------------------------
 Mn     0   0   0     0.000000000000     0.00000000     0.00000000
 S      1   0   0     3.864900337746     0.00000000     0.00000000

---------------------
BASIS SET INFORMATION
---------------------
There are 2 groups of distinct atoms

 Group   1 Type Mn  : 116s77p23d3f2g contracted to 8s7p5d3f2g pattern {19191919191911/151515151511/77711/111/11}
 Group   2 Type S   : 42s17p3d2f contracted to 6s5p3d2f pattern {131313111/77111/111/11}

Atom   0Mn   basis set group =>   1
Atom   1S    basis set group =>   2
----------------------------------
AUXILIARY/JK BASIS SET INFORMATION
----------------------------------
There are 2 groups of distinct atoms

 Group   1 Type Mn  : 19s14p12d10f7g3h1i contracted to 16s13p11d9f5g3h1i pattern {4111111111111111/2111111111111/21111111111/211111111/31111/111/1}
 Group   2 Type S   : 16s12p10d4f1g contracted to 13s11p9d4f1g pattern {4111111111111/21111111111/211111111/1111/1}

Atom   0Mn   basis set group =>   1
Atom   1S    basis set group =>   2


           ************************************************************
           *        Program running with 24 parallel MPI-processes    *
           *              working on a common directory               *
           ************************************************************
------------------------------------------------------------------------------
                           ORCA GTO INTEGRAL CALCULATION
------------------------------------------------------------------------------

                         BASIS SET STATISTICS AND STARTUP INFO

 # of primitive gaussian shells          ...  285
 # of primitive gaussian functions       ...  623
 # of contracted shells                  ...   41
 # of contracted basis functions         ...  143
 Highest angular momentum                ...    4
 Maximum contraction depth               ...   19
 Integral package used                   ... LIBINT
 Integral threshhold            Thresh   ...  1.000e-10
 Primitive cut-off              TCut     ...  1.000e-11


------------------------------ INTEGRAL EVALUATION ----------------------------


 * One electron integrals 
 Pre-screening matrix                    ... done
 Shell pair data                         ... done (   0.001 sec)



           ************************************************************
           *        Program running with 24 parallel MPI-processes    *
           *              working on a common directory               *
           ************************************************************
-------------------------------------------------------------------------------
                                 ORCA SCF
-------------------------------------------------------------------------------

------------
SCF SETTINGS
------------
Hamiltonian:
 Density Functional     Method          .... DFT(GTOs)
 Exchange Functional    Exchange        .... WB97M-V
 Correlation Functional Correlation     .... WB97M-V
 Gradients option       PostSCFGGA      .... off
 Hybrid DFT is turned on
   Fraction HF Exchange ScalHFX         ....  0.150000
   Scaling of DF-GGA-X  ScalDFX         ....  0.000000
   Scaling of DF-GGA-C  ScalDFC         ....  1.000000
   Scaling of DF-LDA-C  ScalLDAC        ....  1.000000
   Perturbative correction              ....  0.000000
   Density functional embedding theory  .... OFF
 Long-range corrected/Screened/Range-Separated Hybrid DFT is turned on
   Amount of maximum screened exact exchange              ....  0.850000
   Range separation parameter mu (erf(mu*r12)/r12)        ....  0.300000
   NL short-range parameter             ....  6.000000
   NL long-range parameter              ....  0.010000


General Settings:
 Integral files         IntName         .... 30_MnS
 Hartree-Fock type      HFTyp           .... UHF
 Total Charge           Charge          ....    0
 Multiplicity           Mult            ....    6
 Number of Electrons    NEL             ....   41
 Basis Dimension        Dim             ....  143
 Nuclear Repulsion      ENuc            ....    103.4955535835 Eh

Convergence Acceleration:
 DIIS                   CNVDIIS         .... on
   Start iteration      DIISMaxIt       ....    12
   Startup error        DIISStart       ....  0.200000
   # of expansion vecs  DIISMaxEq       ....     5
   Bias factor          DIISBfac        ....   1.050
   Max. coefficient     DIISMaxC        ....  10.000
 Newton-Raphson         CNVNR           .... off
 SOSCF                  CNVSOSCF        .... off
 Level Shifting         CNVShift        .... on
   Level shift para.    LevelShift      ....    0.2500
   Turn off err/grad.   ShiftErr        ....    0.0010
 Zerner damping         CNVZerner       .... off
 Static damping         CNVDamp         .... on
   Fraction old density DampFac         ....    0.7000
   Max. Damping (<1)    DampMax         ....    0.9800
   Min. Damping (>=0)   DampMin         ....    0.0000
   Turn off err/grad.   DampErr         ....    0.1000
 Fernandez-Rico         CNVRico         .... off

SCF Procedure:
 Maximum # iterations   MaxIter         ....   125
 SCF integral mode      SCFMode         .... Direct
   Integral package                     .... LIBINT
 Reset frequency        DirectResetFreq ....    20
 Integral Threshold     Thresh          ....  1.000e-10 Eh
 Primitive CutOff       TCut            ....  1.000e-11 Eh

Convergence Tolerance:
 Convergence Check Mode ConvCheckMode   .... Total+1el-Energy
 Convergence forced     ConvForced      .... 0
 Energy Change          TolE            ....  1.000e-06 Eh
 1-El. energy change                    ....  1.000e-03 Eh
 DIIS Error             TolErr          ....  1.000e-06


Diagonalization of the overlap matrix:
Smallest eigenvalue                        ... 6.120e-05
Time for diagonalization                   ...    0.005 sec
Threshold for overlap eigenvalues          ... 1.000e-08
Number of eigenvalues below threshold      ... 0
Time for construction of square roots      ...    0.002 sec
Total time needed                          ...    0.008 sec

-------------------
DFT GRID GENERATION
-------------------

General Integration Accuracy     IntAcc      ...  4.670
Radial Grid Type                 RadialGrid  ... Gauss-Chebyshev
Angular Grid (max. acc.)         AngularGrid ... Lebedev-302
Angular grid pruning method      GridPruning ... 3 (G Style)
Weight generation scheme         WeightScheme... Becke
Basis function cutoff            BFCut       ...    1.0000e-10
Integration weight cutoff        WCut        ...    1.0000e-14
Grids for H and He will be reduced by one unit

# of grid points (after initial pruning)     ...  16510 (   0.0 sec)
# of grid points (after weights+screening)   ...  16481 (   0.0 sec)
nearest neighbour list constructed           ...    0.0 sec
Grid point re-assignment to atoms done       ...    0.0 sec
Grid point division into batches done        ...    0.1 sec
Reduced shell lists constructed in    0.1 sec

Total number of grid points                  ...    16481
Total number of batches                      ...      259
Average number of points per batch           ...       63
Average number of grid points per atom       ...     8240
Average number of shells per batch           ...    15.83 (38.62%)
Average number of basis functions per batch  ...    39.83 (27.86%)
Average number of large shells per batch     ...     8.67 (54.74%)
Average number of large basis fcns per batch ...    21.50 (53.97%)
Maximum spatial batch extension              ...  24.49, 24.19, 17.58 au
Average spatial batch extension              ...   0.84,  0.83,  0.64 au

Time for grid setup =    0.158 sec

------------------------------
INITIAL GUESS: MODEL POTENTIAL
------------------------------
Loading Hartree-Fock densities                     ... done
Calculating cut-offs                               ... done
Setting up the integral package                    ... done
Initializing the effective Hamiltonian             ... done
Starting the Coulomb interaction                   ... done (   0.0 sec)
Reading the grid                                   ... done
Mapping shells                                     ... done
Starting the XC term evaluation                    ... done (   0.0 sec)
  promolecular density results
     # of electrons  =     40.999994885
     EX              =    -75.480000248
     EC              =     -1.693816944
     EX+EC           =    -77.173817192
Transforming the Hamiltonian                       ... done (   0.0 sec)
Diagonalizing the Hamiltonian                      ... done (   0.0 sec)
Back transforming the eigenvectors                 ... done (   0.0 sec)
Now organizing SCF variables                       ... done
                      ------------------
                      INITIAL GUESS DONE (   0.3 sec)
                      ------------------
--------------
SCF ITERATIONS
--------------
ITER       Energy         Delta-E        Max-DP      RMS-DP      [F,P]     Damp
               ***  Starting incremental Fock matrix formation  ***
  0  -1549.1879750979   0.000000000000 0.11587365  0.00150388  0.1387799 0.7000
  1  -1549.2315541622  -0.043579064247 0.04364097  0.00095706  0.0777372 0.7000
                               ***Turning on DIIS***
  2  -1549.2512352404  -0.019681078236 0.10020853  0.00207536  0.0356601 0.0000
  3  -1549.2922810473  -0.041045806899 0.06801222  0.00102337  0.0313683 0.0000
  4  -1549.3004802775  -0.008199230204 0.01918452  0.00038807  0.0178238 0.0000
  5  -1549.3029798947  -0.002499617185 0.03066460  0.00053300  0.0127350 0.0000
  6  -1549.3049864182  -0.002006523511 0.02242309  0.00039101  0.0105198 0.0000
  7  -1549.3066925758  -0.001706157580 0.01240534  0.00024132  0.0069389 0.0000
  8  -1549.3074274343  -0.000734858491 0.00928402  0.00018128  0.0048799 0.0000
  9  -1549.3077445182  -0.000317083963 0.00517882  0.00008469  0.0025095 0.0000
 10  -1549.3078248697  -0.000080351425 0.00426347  0.00007608  0.0019078 0.0000
 11  -1549.3078356217  -0.000010752024 0.00314788  0.00004894  0.0009627 0.0000
 12  -1549.3078158161   0.000019805606 0.00109544  0.00001798  0.0005243 0.0000
 13  -1549.3078214312  -0.000005615067 0.00074248  0.00000960  0.0003118 0.0000
 14  -1549.3078170691   0.000004362078 0.00118307  0.00001619  0.0002493 0.0000
 15  -1549.3078185844  -0.000001515343 0.00059489  0.00000788  0.0000669 0.0000
                 **** Energy Check signals convergence ****

               *****************************************************
               *                     SUCCESS                       *
               *           SCF CONVERGED AFTER  16 CYCLES          *
               *****************************************************


Setting up the DFT-NL grid :

General Integration Accuracy     IntAcc      ...  4.340
Radial Grid Type                 RadialGrid  ... Gauss-Chebyshev
Angular Grid (max. acc.)         AngularGrid ... Lebedev-110
Angular grid pruning method      GridPruning ... 3 (G Style)
Weight generation scheme         WeightScheme... Becke
Basis function cutoff            BFCut       ...    1.0000e-10
Integration weight cutoff        WCut        ...    1.0000e-14
Grids for H and He will be reduced by one unit

# of grid points (after initial pruning)     ...   4718 (   0.0 sec)
# of grid points (after weights+screening)   ...   4693 (   0.0 sec)
nearest neighbour list constructed           ...    0.0 sec
Grid point re-assignment to atoms done       ...    0.0 sec
Grid point division into batches done        ...    0.0 sec
Reduced shell lists constructed in    0.0 sec

Total number of grid points                  ...     4693
Total number of batches                      ...       74
Average number of points per batch           ...       63
Average number of grid points per atom       ...     2346
Average number of shells per batch           ...    23.20 (56.59%)
Average number of basis functions per batch  ...    71.20 (49.79%)
Average number of large shells per batch     ...    18.00 (77.59%)
Average number of large basis fcns per batch ...    54.80 (76.97%)
Maximum spatial batch extension              ...  18.98, 28.73, 16.15 au
Average spatial batch extension              ...   0.97,  1.30,  0.87 au

Final grid set up in    0.0 sec

-------------------------------------------------------------------------------
                         DFT-NL dispersion correction                          
-------------------------------------------------------------------------------

SC Energy -1549.307818210 
NL    Energy 0.171031799 
SC+NL Energy -1549.136786412 
NL done in    0.0 sec
-------------------------------------------------------------------------------

----------------
TOTAL SCF ENERGY
----------------

Total Energy       :        -1549.13678641 Eh          -42154.15503 eV

Components:
Nuclear Repulsion  :          103.49555358 Eh            2816.25719 eV
Electronic Energy  :        -1652.63234000 Eh          -44970.41222 eV
One Electron Energy:        -2343.10000408 Eh          -63758.99256 eV
Two Electron Energy:          690.46766408 Eh           18788.58033 eV

Virial components:
Potential Energy   :        -3096.01030487 Eh          -84246.72342 eV
Kinetic Energy     :         1546.87351845 Eh           42092.56838 eV
Virial Ratio       :            2.00146312


DFT components:
N(Alpha)           :       23.000002054142 electrons
N(Beta)            :       18.000001987578 electrons
N(Total)           :       41.000004041720 electrons
E(X)               :      -58.968402414523 Eh       
E(C)               :       -1.938504680257 Eh       
NL Energy, E(C,NL) :        0.171031798503 Eh       
E(XC)              :      -60.735875296277 Eh       
DFET-embed. en.    :        0.000000000000 Eh       

---------------
SCF CONVERGENCE
---------------

  Last Energy change         ...    3.7400e-07  Tolerance :   1.0000e-06
  Last MAX-Density change    ...    1.5613e-04  Tolerance :   1.0000e-05
  Last RMS-Density change    ...    2.0376e-06  Tolerance :   1.0000e-06
  Last DIIS Error            ...    1.6796e-05  Tolerance :   1.0000e-06

             **** THE GBW FILE WAS UPDATED (30_MnS.gbw) ****
             **** DENSITY FILE WAS UPDATED (30_MnS.scfp) ****
             **** ENERGY FILE WAS UPDATED (30_MnS.en.tmp) ****
----------------------
UHF SPIN CONTAMINATION
----------------------

Warning: in a DFT calculation there is little theoretical justification to 
         calculate <S**2> as in Hartree-Fock theory. We will do it anyways
         but you should keep in mind that the values have only limited relevance

Expectation value of <S**2>     :     8.770793
Ideal value S*(S+1) for S=2.5   :     8.750000
Deviation                       :     0.020793

             **** THE GBW FILE WAS UPDATED (30_MnS.gbw) ****
             **** DENSITY FILE WAS UPDATED (30_MnS.scfp) ****
----------------
ORBITAL ENERGIES
----------------
                 SPIN UP ORBITALS
  NO   OCC          E(Eh)            E(eV) 
   0   1.0000    -235.996997     -6421.8048 
   1   1.0000     -89.145772     -2425.7798 
   2   1.0000     -27.619151      -751.5553 
   3   1.0000     -23.602855      -642.2663 
   4   1.0000     -23.602855      -642.2663 
   5   1.0000     -23.598163      -642.1387 
   6   1.0000      -8.059601      -219.3129 
   7   1.0000      -5.967343      -162.3797 
   8   1.0000      -5.965997      -162.3430 
   9   1.0000      -5.965997      -162.3430 
  10   1.0000      -3.450407       -93.8903 
  11   1.0000      -2.299248       -62.5657 
  12   1.0000      -2.299248       -62.5657 
  13   1.0000      -2.294082       -62.4251 
  14   1.0000      -0.744069       -20.2471 
  15   1.0000      -0.489063       -13.3081 
  16   1.0000      -0.489063       -13.3081 
  17   1.0000      -0.482285       -13.1236 
  18   1.0000      -0.482284       -13.1236 
  19   1.0000      -0.479907       -13.0589 
  20   1.0000      -0.340218        -9.2578 
  21   1.0000      -0.301959        -8.2167 
  22   1.0000      -0.301959        -8.2167 
  23   0.0000      -0.062923        -1.7122 
  24   0.0000       0.003562         0.0969 
  25   0.0000       0.003562         0.0969 
  26   0.0000       0.009981         0.2716 
  27   0.0000       0.019872         0.5407 
  28   0.0000       0.045665         1.2426 
  29   0.0000       0.045665         1.2426 
  30   0.0000       0.062807         1.7091 
  31   0.0000       0.063130         1.7179 
  32   0.0000       0.063131         1.7179 
  33   0.0000       0.080474         2.1898 
  34   0.0000       0.080474         2.1898 
  35   0.0000       0.092982         2.5302 
  36   0.0000       0.116573         3.1721 
  37   0.0000       0.131049         3.5660 
  38   0.0000       0.131049         3.5660 
  39   0.0000       0.138264         3.7624 
  40   0.0000       0.193665         5.2699 
  41   0.0000       0.193665         5.2699 
  42   0.0000       0.254327         6.9206 
  43   0.0000       0.258138         7.0243 
  44   0.0000       0.258138         7.0243 
  45   0.0000       0.271249         7.3811 
  46   0.0000       0.286291         7.7904 
  47   0.0000       0.286291         7.7904 
  48   0.0000       0.305381         8.3098 
  49   0.0000       0.305381         8.3098 
  50   0.0000       0.356382         9.6977 
  51   0.0000       0.379044        10.3143 
  52   0.0000       0.379044        10.3143 
  53   0.0000       0.462189        12.5768 
  54   0.0000       0.499373        13.5886 
  55   0.0000       0.592892        16.1334 
  56   0.0000       0.592892        16.1334 
  57   0.0000       0.679021        18.4771 
  58   0.0000       0.685933        18.6652 
  59   0.0000       0.685933        18.6652 
  60   0.0000       0.687137        18.6979 
  61   0.0000       0.687141        18.6980 
  62   0.0000       0.693296        18.8655 
  63   0.0000       0.693296        18.8655 
  64   0.0000       0.760336        20.6898 
  65   0.0000       0.760336        20.6898 
  66   0.0000       0.765947        20.8425 
  67   0.0000       0.765948        20.8425 
  68   0.0000       0.781437        21.2640 
  69   0.0000       0.850110        23.1327 
  70   0.0000       0.856316        23.3015 
  71   0.0000       0.856316        23.3015 
  72   0.0000       0.860599        23.4181 
  73   0.0000       0.860599        23.4181 
  74   0.0000       0.933292        25.3962 
  75   0.0000       0.933292        25.3962 
  76   0.0000       0.967453        26.3257 
  77   0.0000       1.007375        27.4121 
  78   0.0000       1.007375        27.4121 
  79   0.0000       1.042664        28.3723 
  80   0.0000       1.094597        29.7855 
  81   0.0000       1.094599        29.7856 
  82   0.0000       1.348055        36.6824 
  83   0.0000       1.443810        39.2881 
  84   0.0000       1.443810        39.2881 
  85   0.0000       1.841460        50.1087 
  86   0.0000       1.883825        51.2615 
  87   0.0000       1.883839        51.2619 
  88   0.0000       2.001379        54.4603 
  89   0.0000       2.001379        54.4603 
  90   0.0000       2.086899        56.7874 
  91   0.0000       2.086899        56.7874 
  92   0.0000       2.122852        57.7657 
  93   0.0000       2.142914        58.3117 
  94   0.0000       2.142931        58.3121 
  95   0.0000       2.182474        59.3881 
  96   0.0000       2.182474        59.3881 
  97   0.0000       2.184755        59.4502 
  98   0.0000       2.231979        60.7352 
  99   0.0000       2.231979        60.7352 
 100   0.0000       2.236967        60.8710 
 101   0.0000       2.236967        60.8710 
 102   0.0000       2.329881        63.3993 
 103   0.0000       2.329891        63.3995 
 104   0.0000       2.381896        64.8147 
 105   0.0000       2.510875        68.3244 
 106   0.0000       2.510875        68.3244 
 107   0.0000       2.609955        71.0205 
 108   0.0000       2.692507        73.2669 
 109   0.0000       2.692521        73.2672 
 110   0.0000       2.707660        73.6792 
 111   0.0000       2.707660        73.6792 
 112   0.0000       2.718072        73.9625 
 113   0.0000       2.718072        73.9625 
 114   0.0000       2.842829        77.3573 
 115   0.0000       2.842835        77.3575 
 116   0.0000       2.917811        79.3977 
 117   0.0000       3.140758        85.4644 
 118   0.0000       3.219186        87.5985 
 119   0.0000       3.219186        87.5985 
 120   0.0000       3.664227        99.7087 
 121   0.0000       3.911315       106.4323 
 122   0.0000       3.911331       106.4327 
 123   0.0000       4.289562       116.7249 
 124   0.0000       4.289562       116.7249 
 125   0.0000       5.223941       142.1507 
 126   0.0000       5.413371       147.3053 
 127   0.0000       7.473102       203.3534 
 128   0.0000       7.473102       203.3534 
 129   0.0000       7.501479       204.1256 
 130   0.0000       7.501485       204.1258 
 131   0.0000       7.558815       205.6858 
 132   0.0000       7.558815       205.6858 
 133   0.0000       7.788577       211.9379 
 134   0.0000       7.983417       217.2398 
 135   0.0000       7.983650       217.2462 
 136   0.0000       7.993629       217.5177 
 137   0.0000       7.993629       217.5177 
 138   0.0000       8.048131       219.0008 
 139   0.0000       8.048178       219.0021 
 140   0.0000       8.206583       223.3125 
 141   0.0000       8.206583       223.3125 
 142   0.0000       8.344431       227.0635 

                 SPIN DOWN ORBITALS
  NO   OCC          E(Eh)            E(eV) 
   0   1.0000    -235.994794     -6421.7448 
   1   1.0000     -89.145150     -2425.7629 
   2   1.0000     -27.529830      -749.1248 
   3   1.0000     -23.530974      -640.3104 
   4   1.0000     -23.529453      -640.2690 
   5   1.0000     -23.529453      -640.2690 
   6   1.0000      -8.058995      -219.2964 
   7   1.0000      -5.968986      -162.4244 
   8   1.0000      -5.963659      -162.2794 
   9   1.0000      -5.963659      -162.2794 
  10   1.0000      -3.253534       -88.5332 
  11   1.0000      -2.084130       -56.7121 
  12   1.0000      -2.078277       -56.5528 
  13   1.0000      -2.078277       -56.5528 
  14   1.0000      -0.733325       -19.9548 
  15   1.0000      -0.360771        -9.8171 
  16   1.0000      -0.321830        -8.7574 
  17   1.0000      -0.321830        -8.7574 
  18   0.0000      -0.099746        -2.7142 
  19   0.0000      -0.040064        -1.0902 
  20   0.0000      -0.040064        -1.0902 
  21   0.0000      -0.015281        -0.4158 
  22   0.0000       0.003190         0.0868 
  23   0.0000       0.008194         0.2230 
  24   0.0000       0.008194         0.2230 
  25   0.0000       0.020544         0.5590 
  26   0.0000       0.020544         0.5590 
  27   0.0000       0.022579         0.6144 
  28   0.0000       0.042424         1.1544 
  29   0.0000       0.042424         1.1544 
  30   0.0000       0.052581         1.4308 
  31   0.0000       0.052582         1.4308 
  32   0.0000       0.053940         1.4678 
  33   0.0000       0.067486         1.8364 
  34   0.0000       0.067487         1.8364 
  35   0.0000       0.092463         2.5160 
  36   0.0000       0.098583         2.6826 
  37   0.0000       0.126077         3.4307 
  38   0.0000       0.126077         3.4307 
  39   0.0000       0.133893         3.6434 
  40   0.0000       0.176082         4.7914 
  41   0.0000       0.176082         4.7914 
  42   0.0000       0.252575         6.8729 
  43   0.0000       0.255009         6.9391 
  44   0.0000       0.255009         6.9392 
  45   0.0000       0.269209         7.3256 
  46   0.0000       0.275799         7.5049 
  47   0.0000       0.275799         7.5049 
  48   0.0000       0.288089         7.8393 
  49   0.0000       0.288089         7.8393 
  50   0.0000       0.356875         9.7111 
  51   0.0000       0.374077        10.1792 
  52   0.0000       0.374077        10.1792 
  53   0.0000       0.449309        12.2263 
  54   0.0000       0.502820        13.6824 
  55   0.0000       0.588576        16.0160 
  56   0.0000       0.588576        16.0160 
  57   0.0000       0.661806        18.0086 
  58   0.0000       0.661806        18.0086 
  59   0.0000       0.683467        18.5981 
  60   0.0000       0.683474        18.5983 
  61   0.0000       0.683950        18.6112 
  62   0.0000       0.687758        18.7148 
  63   0.0000       0.687758        18.7148 
  64   0.0000       0.759691        20.6723 
  65   0.0000       0.759697        20.6724 
  66   0.0000       0.762625        20.7521 
  67   0.0000       0.762625        20.7521 
  68   0.0000       0.780740        21.2450 
  69   0.0000       0.851547        23.1718 
  70   0.0000       0.852314        23.1926 
  71   0.0000       0.852314        23.1926 
  72   0.0000       0.856894        23.3173 
  73   0.0000       0.856894        23.3173 
  74   0.0000       0.941358        25.6157 
  75   0.0000       0.941367        25.6159 
  76   0.0000       0.963644        26.2221 
  77   0.0000       1.004181        27.3251 
  78   0.0000       1.004181        27.3252 
  79   0.0000       1.034194        28.1418 
  80   0.0000       1.112140        30.2629 
  81   0.0000       1.112142        30.2629 
  82   0.0000       1.365127        37.1470 
  83   0.0000       1.464020        39.8380 
  84   0.0000       1.464020        39.8380 
  85   0.0000       1.860733        50.6331 
  86   0.0000       1.895350        51.5751 
  87   0.0000       1.895367        51.5756 
  88   0.0000       2.004889        54.5558 
  89   0.0000       2.004889        54.5558 
  90   0.0000       2.102309        57.2067 
  91   0.0000       2.102309        57.2067 
  92   0.0000       2.125113        57.8273 
  93   0.0000       2.160350        58.7861 
  94   0.0000       2.160377        58.7869 
  95   0.0000       2.191393        59.6308 
  96   0.0000       2.206821        60.0507 
  97   0.0000       2.206821        60.0507 
  98   0.0000       2.246860        61.1402 
  99   0.0000       2.246860        61.1402 
 100   0.0000       2.301670        62.6316 
 101   0.0000       2.301670        62.6316 
 102   0.0000       2.385299        64.9073 
 103   0.0000       2.385320        64.9078 
 104   0.0000       2.420448        65.8637 
 105   0.0000       2.554431        69.5096 
 106   0.0000       2.554431        69.5096 
 107   0.0000       2.706754        73.6545 
 108   0.0000       2.706759        73.6547 
 109   0.0000       2.716495        73.9196 
 110   0.0000       2.726742        74.1984 
 111   0.0000       2.726742        74.1984 
 112   0.0000       2.820826        76.7586 
 113   0.0000       2.820826        76.7586 
 114   0.0000       2.849405        77.5362 
 115   0.0000       2.849413        77.5365 
 116   0.0000       2.978799        81.0573 
 117   0.0000       3.163674        86.0879 
 118   0.0000       3.233432        87.9862 
 119   0.0000       3.233432        87.9862 
 120   0.0000       3.727058       101.4184 
 121   0.0000       4.070759       110.7710 
 122   0.0000       4.070764       110.7711 
 123   0.0000       4.432001       120.6009 
 124   0.0000       4.432001       120.6009 
 125   0.0000       5.330660       145.0546 
 126   0.0000       5.418696       147.4502 
 127   0.0000       7.670031       208.7121 
 128   0.0000       7.670031       208.7121 
 129   0.0000       7.697522       209.4602 
 130   0.0000       7.697527       209.4604 
 131   0.0000       7.749923       210.8861 
 132   0.0000       7.749923       210.8861 
 133   0.0000       7.964632       216.7287 
 134   0.0000       8.132922       221.3081 
 135   0.0000       8.133140       221.3140 
 136   0.0000       8.138637       221.4636 
 137   0.0000       8.138637       221.4636 
 138   0.0000       8.186510       222.7663 
 139   0.0000       8.186527       222.7667 
 140   0.0000       8.340604       226.9594 
 141   0.0000       8.340604       226.9594 
 142   0.0000       8.479569       230.7408 

                    ********************************
                    * MULLIKEN POPULATION ANALYSIS *
                    ********************************

--------------------------------------------
MULLIKEN ATOMIC CHARGES AND SPIN POPULATIONS
--------------------------------------------
   0 Mn:    0.344675    4.748221
   1 S :   -0.344675    0.251779
Sum of atomic charges         :   -0.0000000
Sum of atomic spin populations:    5.0000000

-----------------------------------------------------
MULLIKEN REDUCED ORBITAL CHARGES AND SPIN POPULATIONS
-----------------------------------------------------
CHARGE
  0 Mns       :     6.800523  s :     6.800523
      pz      :     4.113190  p :    12.413050
      px      :     4.149930
      py      :     4.149930
      dz2     :     1.078359  d :     5.423140
      dxz     :     1.173199
      dyz     :     1.173199
      dx2y2   :     0.999192
      dxy     :     0.999192
      f0      :     0.003837  f :     0.017279
      f+1     :     0.006604
      f-1     :     0.006604
      f+2     :     0.000117
      f-2     :     0.000117
      f+3     :     0.000000
      f-3     :     0.000000
      g0      :     0.000397  g :     0.001335
      g+1     :     0.000468
      g-1     :     0.000468
      g+2     :     0.000000
      g-2     :     0.000000
      g+3     :     0.000000
      g-3     :     0.000000
      g+4     :     0.000000
      g-4     :     0.000000
  1 S s       :     5.805002  s :     5.805002
      pz      :     3.193974  p :    10.502186
      px      :     3.654106
      py      :     3.654106
      dz2     :     0.004367  d :     0.035130
      dxz     :     0.014939
      dyz     :     0.014939
      dx2y2   :     0.000442
      dxy     :     0.000442
      f0      :     0.000351  f :     0.002357
      f+1     :     0.000754
      f-1     :     0.000754
      f+2     :     0.000249
      f-2     :     0.000249
      f+3     :     0.000000
      f-3     :     0.000000

SPIN
  0 Mns       :     0.248453  s :     0.248453
      pz      :    -0.012996  p :     0.050701
      px      :     0.031848
      py      :     0.031848
      dz2     :     0.808652  d :     4.445943
      dxz     :     0.819454
      dyz     :     0.819454
      dx2y2   :     0.999192
      dxy     :     0.999192
      f0      :    -0.000166  f :     0.003404
      f+1     :     0.001668
      f-1     :     0.001668
      f+2     :     0.000117
      f-2     :     0.000117
      f+3     :     0.000000
      f-3     :     0.000000
      g0      :    -0.000142  g :    -0.000281
      g+1     :    -0.000070
      g-1     :    -0.000070
      g+2     :     0.000000
      g-2     :     0.000000
      g+3     :     0.000000
      g-3     :     0.000000
      g+4     :    -0.000000
      g-4     :    -0.000000
  1 S s       :     0.018222  s :     0.018222
      pz      :    -0.065442  p :     0.237350
      px      :     0.151396
      py      :     0.151396
      dz2     :     0.003134  d :    -0.002783
      dxz     :    -0.003400
      dyz     :    -0.003400
      dx2y2   :     0.000442
      dxy     :     0.000442
      f0      :     0.000285  f :    -0.001010
      f+1     :    -0.000896
      f-1     :    -0.000896
      f+2     :     0.000249
      f-2     :     0.000249
      f+3     :    -0.000000
      f-3     :    -0.000000


                     *******************************
                     * LOEWDIN POPULATION ANALYSIS *
                     *******************************

-------------------------------------------
LOEWDIN ATOMIC CHARGES AND SPIN POPULATIONS
-------------------------------------------
   0 Mn:    0.192879    4.740865
   1 S :   -0.192879    0.259135

----------------------------------------------------
LOEWDIN REDUCED ORBITAL CHARGES AND SPIN POPULATIONS
----------------------------------------------------
CHARGE
  0 Mns       :     6.439863  s :     6.439863
      pz      :     4.210726  p :    12.562145
      px      :     4.175709
      py      :     4.175709
      dz2     :     1.198820  d :     5.624731
      dxz     :     1.222189
      dyz     :     1.222189
      dx2y2   :     0.990766
      dxy     :     0.990766
      f0      :     0.058150  f :     0.170889
      f+1     :     0.055864
      f-1     :     0.055864
      f+2     :     0.000505
      f-2     :     0.000505
      f+3     :     0.000000
      f-3     :     0.000000
      g0      :     0.003407  g :     0.009493
      g+1     :     0.003032
      g-1     :     0.003032
      g+2     :     0.000011
      g-2     :     0.000011
      g+3     :     0.000000
      g-3     :     0.000000
      g+4     :     0.000000
      g-4     :     0.000000
  1 S s       :     5.453745  s :     5.453745
      pz      :     3.399673  p :    10.309688
      px      :     3.455008
      py      :     3.455008
      dz2     :     0.143091  d :     0.241472
      dxz     :     0.046589
      dyz     :     0.046589
      dx2y2   :     0.002602
      dxy     :     0.002602
      f0      :     0.092525  f :     0.187974
      f+1     :     0.041609
      f-1     :     0.041609
      f+2     :     0.006116
      f-2     :     0.006116
      f+3     :     0.000000
      f-3     :     0.000000

SPIN
  0 Mns       :     0.226506  s :     0.226506
      pz      :    -0.003393  p :     0.137896
      px      :     0.070644
      py      :     0.070644
      dz2     :     0.783212  d :     4.354420
      dxz     :     0.794838
      dyz     :     0.794838
      dx2y2   :     0.990766
      dxy     :     0.990766
      f0      :    -0.000370  f :     0.021678
      f+1     :     0.010519
      f-1     :     0.010519
      f+2     :     0.000505
      f-2     :     0.000505
      f+3     :     0.000000
      f-3     :     0.000000
      g0      :    -0.000308  g :     0.000365
      g+1     :     0.000326
      g-1     :     0.000326
      g+2     :     0.000011
      g-2     :     0.000011
      g+3     :    -0.000000
      g-3     :    -0.000000
      g+4     :    -0.000000
      g-4     :    -0.000000
  1 S s       :     0.011719  s :     0.011719
      pz      :    -0.032054  p :     0.169880
      px      :     0.100967
      py      :     0.100967
      dz2     :     0.011713  d :     0.038374
      dxz     :     0.010729
      dyz     :     0.010729
      dx2y2   :     0.002602
      dxy     :     0.002602
      f0      :     0.002974  f :     0.039162
      f+1     :     0.011978
      f-1     :     0.011978
      f+2     :     0.006116
      f-2     :     0.006116
      f+3     :    -0.000000
      f-3     :    -0.000000


                      *****************************
                      * MAYER POPULATION ANALYSIS *
                      *****************************

  NA   - Mulliken gross atomic population
  ZA   - Total nuclear charge
  QA   - Mulliken gross atomic charge
  VA   - Mayer's total valence
  BVA  - Mayer's bonded valence
  FA   - Mayer's free valence

  ATOM       NA         ZA         QA         VA         BVA        FA
  0 Mn    24.6553    25.0000     0.3447     6.6657     2.2271     4.4387
  1 S     16.3447    16.0000    -0.3447     2.2880     2.2271     0.0609

  Mayer bond orders larger than 0.100000
B(  0-Mn,  1-S ) :   2.2271 

-------
TIMINGS
-------

Total SCF time: 0 days 0 hours 4 min 33 sec 

Total time                  ....     273.497 sec
Sum of individual times     ....     273.168 sec  ( 99.9%)

Fock matrix formation       ....     272.762 sec  ( 99.7%)
  XC integration            ....       0.620 sec  (  0.2% of F)
    Basis function eval.    ....       0.084 sec  ( 13.5% of XC)
    Density eval.           ....       0.091 sec  ( 14.7% of XC)
    XC-Functional eval.     ....       0.020 sec  (  3.3% of XC)
    XC-Potential eval.      ....       0.251 sec  ( 40.4% of XC)
Diagonalization             ....       0.087 sec  (  0.0%)
Density matrix formation    ....       0.011 sec  (  0.0%)
Population analysis         ....       0.007 sec  (  0.0%)
Initial guess               ....       0.097 sec  (  0.0%)
Orbital Transformation      ....       0.000 sec  (  0.0%)
Orbital Orthonormalization  ....       0.000 sec  (  0.0%)
DIIS solution               ....       0.030 sec  (  0.0%)
Grid generation             ....       0.174 sec  (  0.1%)

-------------------------   --------------------
FINAL SINGLE POINT ENERGY     -1549.136786411917
-------------------------   --------------------


                            ***************************************
                            *     ORCA property calculations      *
                            ***************************************

                                    ---------------------
                                    Active property flags
                                    ---------------------
   (+) Dipole Moment


------------------------------------------------------------------------------
                       ORCA ELECTRIC PROPERTIES CALCULATION
------------------------------------------------------------------------------

Dipole Moment Calculation                       ... on
Quadrupole Moment Calculation                   ... off
Polarizability Calculation                      ... off
GBWName                                         ... 30_MnS.gbw
Electron density file                           ... 30_MnS.scfp
The origin for moment calculation is the CENTER OF MASS  = ( 0.000000,  0.000000  1.381514)

-------------
DIPOLE MOMENT
-------------
                                X             Y             Z
Electronic contribution:      0.00000       0.00000      -6.08383
Nuclear contribution   :      0.00000       0.00000       3.44465
                        -----------------------------------------
Total Dipole Moment    :      0.00000       0.00000      -2.63919
                        -----------------------------------------
Magnitude (a.u.)       :      2.63919
Magnitude (Debye)      :      6.70828



--------------------
Rotational spectrum 
--------------------
 
Rotational constants in cm-1:     0.000000     0.199061     0.199061 
Rotational constants in MHz :     0.000000  5967.684062  5967.684062 

 Dipole components along the rotational axes: 
x,y,z [a.u.] :    -2.639186     0.000000     0.000000 
x,y,z [Debye]:    -6.708279     0.000000     0.000000 

 

Timings for individual modules:

Sum of individual times         ...      277.434 sec (=   4.624 min)
GTO integral calculation        ...        3.433 sec (=   0.057 min)   1.2 %
SCF iterations                  ...      274.001 sec (=   4.567 min)  98.8 %
                             ****ORCA TERMINATED NORMALLY****
TOTAL RUN TIME: 0 days 0 hours 4 minutes 38 seconds 57 msec
