
                                 *****************
                                 * O   R   C   A *
                                 *****************

           --- An Ab Initio, DFT and Semiempirical electronic structure package ---

                  #######################################################
                  #                        -***-                        #
                  #          Department of theory and spectroscopy      #
                  #               Directorship: Frank Neese             #
                  #        Max Planck Institute fuer Kohlenforschung    #
                  #                Kaiser Wilhelm Platz 1               #
                  #                 D-45470 Muelheim/Ruhr               #
                  #                      Germany                        #
                  #                                                     #
                  #                  All rights reserved                #
                  #                        -***-                        #
                  #######################################################


                         Program Version 4.2.0 -  RELEASE  -


 With contributions from (in alphabetic order):
   Daniel Aravena         : Magnetic Suceptibility
   Michael Atanasov       : Ab Initio Ligand Field Theory (pilot matlab implementation)
   Alexander A. Auer      : GIAO ZORA, VPT2
   Ute Becker             : Parallelization
   Giovanni Bistoni       : ED, misc. LED, open-shell LED, HFLED
   Martin Brehm           : Molecular dynamics
   Dmytro Bykov           : SCF Hessian
   Vijay G. Chilkuri      : MRCI spin determinant printing, contributions to CSF-ICE
   Dipayan Datta          : RHF DLPNO-CCSD density
   Achintya Kumar Dutta   : EOM-CC, STEOM-CC
   Dmitry Ganyushin       : Spin-Orbit,Spin-Spin,Magnetic field MRCI
   Miquel Garcia          : C-PCM Hessian, Gaussian charge scheme
   Yang Guo               : DLPNO-NEVPT2, CIM, IAO-localization
   Andreas Hansen         : Spin unrestricted coupled pair/coupled cluster methods
   Benjamin Helmich-Paris : CASSCF linear response (MC-RPA)
   Lee Huntington         : MR-EOM, pCC
   Robert Izsak           : Overlap fitted RIJCOSX, COSX-SCS-MP3, EOM
   Christian Kollmar      : KDIIS, OOCD, Brueckner-CCSD(T), CCSD density
   Simone Kossmann        : Meta GGA functionals, TD-DFT gradient, OOMP2, MP2 Hessian
   Martin Krupicka        : AUTO-CI
   Lucas Lang             : DCDCAS
   Dagmar Lenk            : GEPOL surface, SMD
   Dimitrios Liakos       : Extrapolation schemes; Compound Job, initial MDCI parallelization
   Dimitrios Manganas     : Further ROCIS development; embedding schemes
   Dimitrios Pantazis     : SARC Basis sets
   Taras Petrenko         : DFT Hessian,TD-DFT gradient, ASA, ECA, R-Raman, ABS, FL, XAS/XES, NRVS
   Peter Pinski           : DLPNO-MP2, DLPNO-MP2 Gradient
   Christoph Reimann      : Effective Core Potentials
   Marius Retegan         : Local ZFS, SOC
   Christoph Riplinger    : Optimizer, TS searches, QM/MM, DLPNO-CCSD(T), (RO)-DLPNO pert. Triples
   Tobias Risthaus        : Range-separated hybrids, TD-DFT gradient, RPA, STAB
   Michael Roemelt        : Original ROCIS implementation
   Masaaki Saitow         : Open-shell DLPNO-CCSD energy and density
   Barbara Sandhoefer     : DKH picture change effects
   Avijit Sen             : IP-ROCIS
   Kantharuban Sivalingam : CASSCF convergence, NEVPT2, FIC-MRCI
   Bernardo de Souza      : ESD, SOC TD-DFT
   Georgi Stoychev        : AutoAux, RI-MP2 NMR
   Willem Van den Heuvel  : Paramagnetic NMR
   Boris Wezisla          : Elementary symmetry handling
   Frank Wennmohs         : Technical directorship


 We gratefully acknowledge several colleagues who have allowed us to
 interface, adapt or use parts of their codes:
   Stefan Grimme, W. Hujo, H. Kruse,             : VdW corrections, initial TS optimization,
                  C. Bannwarth                     DFT functionals, gCP, sTDA/sTD-DF
   Ed Valeev, F. Pavosevic, A. Kumar             : LibInt (2-el integral package), F12 methods
   Garnet Chan, S. Sharma, J. Yang, R. Olivares  : DMRG
   Ulf Ekstrom                                   : XCFun DFT Library
   Mihaly Kallay                                 : mrcc  (arbitrary order and MRCC methods)
   Andreas Klamt, Michael Diedenhofen            : otool_cosmo (COSMO solvation model)
   Jiri Pittner, Ondrej Demel                    : Mk-CCSD
   Frank Weinhold                                : gennbo (NPA and NBO analysis)
   Christopher J. Cramer and Donald G. Truhlar   : smd solvation model
   Lars Goerigk                                  : TD-DFT with DH, B97 family of functionals
   V. Asgeirsson, H. Jonsson                     : NEB implementation
   FAccTs GmbH                                   : IRC, NEB, NEB-TS, Multilevel, MM, QM/MM, CI optimization
   S Lehtola, MJT Oliveira, MAL Marques          : LibXC Library


 Your calculation uses the libint2 library for the computation of 2-el integrals
 For citations please refer to: http://libint.valeyev.net

 Your ORCA version has been built with support for libXC version: 4.2.3
 For citations please refer to: https://tddft.org/programs/libxc/

 This ORCA versions uses:
   CBLAS   interface :  Fast vector & matrix operations
   LAPACKE interface :  Fast linear algebra routines
   SCALAPACK package :  Parallel linear algebra routines


Your calculation utilizes the DFT-NL dispersion correction.
Cite in your paper:
Vydrov, O. A.; Van Voorhis, T. J. Chem. Phys. 2010, 133, 244103
Hujo, W.; Grimme, S. J. Chem. Theory Comput. 2011, 7, 3866 
   

----- Orbital basis set information -----
Your calculation utilizes the basis: aug-cc-pVTZ 
    H, B-Ne : Obtained from the ccRepo (grant-hill.group.shef.ac.uk/ccrepo) Feb. 2017
              R. A. Kendall, T. H. Dunning, Jr., R. J. Harrison, J. Chem. Phys. 96, 6796 (1992)
         He : Obtained from the ccRepo (grant-hill.group.shef.ac.uk/ccrepo) Feb. 2017
              D. E. Woon, T. H. Dunning, Jr., J. Chem. Phys. 100, 2975 (1994)
  Li-Be, Na : Obtained from the ccRepo (grant-hill.group.shef.ac.uk/ccrepo) Feb. 2017
              B. P. Prascher, D. E. Woon, K. A. Peterson, T. H. Dunning, Jr., A. K. Wilson, Theor. Chem. Acc. 128, 69 (2011)
         Mg : Obtained from the Peterson Research Group Website (tyr0.chem.wsu.edu/~kipeters) Feb. 2017
              B. P. Prascher, D. E. Woon, K. A. Peterson, T. H. Dunning, Jr., A. K. Wilson, Theor. Chem. Acc. 128, 69 (2011)
      Al-Ar : Obtained from the ccRepo (grant-hill.group.shef.ac.uk/ccrepo) Feb. 2017
              D. E. Woon, T. H. Dunning, Jr., J. Chem. Phys. 98, 1358 (1993)
      Sc-Zn : Obtained from the ccRepo (grant-hill.group.shef.ac.uk/ccrepo) Feb. 2017
              N. B. Balabanov, K. A. Peterson, J. Chem. Phys. 123, 064107 (2005)
              N. B. Balabanov, K. A. Peterson, J. Chem. Phys. 125, 074110 (2006)
      Ga-Kr : Obtained from the ccRepo (grant-hill.group.shef.ac.uk/ccrepo) Feb. 2017
              A. K. Wilson, D. E. Woon, K. A. Peterson, T. H. Dunning, Jr., J. Chem. Phys. 110, 7667 (1999)
     Ag, Au : Obtained from the Peterson Research Group Website (tyr0.chem.wsu.edu/~kipeters) Feb. 2017
              K. A. Peterson, C. Puzzarini, Theor. Chem. Acc. 114, 283 (2005)

----- AuxJK basis set information -----
Your calculation utilizes the auxiliary basis: def2/JK
   H-Ba, Hf-Rn: F. Weigend, J. Comput. Chem. 29, 167 (2008).

================================================================================
                                        WARNINGS
                       Please study these warnings very carefully!
================================================================================


WARNING: your system is open-shell and RHF/RKS was chosen
  ===> : WILL SWITCH to UHF/UKS


INFO   : the flag for use of LIBINT has been found!

================================================================================
                                       INPUT FILE
================================================================================
NAME = 32_FeF.in
|  1> #
|  2> # 32_FeF wb97m-v/aug-cc-pvtz
|  3> #
|  4> ! wb97m-v aug-cc-pvtz def2/jk grid4 nofinalgrid slowconv
|  5> 
|  6> *xyz 0 6
|  7>   Fe  0.00000000000000      0.00000000000000      0.10964273788681
|  8>   F   0.00000000000000      0.00000000000000      1.89035726211319
|  9> *
| 10> 
| 11> %pal
| 12> nprocs 24
| 13> end
| 14> 
| 15> 
| 16>                          ****END OF INPUT****
================================================================================

                       ****************************
                       * Single Point Calculation *
                       ****************************

---------------------------------
CARTESIAN COORDINATES (ANGSTROEM)
---------------------------------
  Fe     0.000000    0.000000    0.109643
  F      0.000000    0.000000    1.890357

----------------------------
CARTESIAN COORDINATES (A.U.)
----------------------------
  NO LB      ZA    FRAG     MASS         X           Y           Z
   0 Fe   26.0000    0    55.850    0.000000    0.000000    0.207195
   1 F     9.0000    0    18.998    0.000000    0.000000    3.572258

--------------------------------
INTERNAL COORDINATES (ANGSTROEM)
--------------------------------
 Fe     0   0   0     0.000000000000     0.00000000     0.00000000
 F      1   0   0     1.780714524226     0.00000000     0.00000000

---------------------------
INTERNAL COORDINATES (A.U.)
---------------------------
 Fe     0   0   0     0.000000000000     0.00000000     0.00000000
 F      1   0   0     3.365062773484     0.00000000     0.00000000

---------------------
BASIS SET INFORMATION
---------------------
There are 2 groups of distinct atoms

 Group   1 Type Fe  : 116s77p23d3f2g contracted to 8s7p5d3f2g pattern {19191919191911/151515151511/77711/111/11}
 Group   2 Type F   : 19s6p3d2f contracted to 5s4p3d2f pattern {88111/3111/111/11}

Atom   0Fe   basis set group =>   1
Atom   1F    basis set group =>   2
----------------------------------
AUXILIARY/JK BASIS SET INFORMATION
----------------------------------
There are 2 groups of distinct atoms

 Group   1 Type Fe  : 19s14p12d10f7g3h1i contracted to 16s13p11d9f5g3h1i pattern {4111111111111111/2111111111111/21111111111/211111111/31111/111/1}
 Group   2 Type F   : 14s10p6d2f1g contracted to 10s8p4d2f1g pattern {5111111111/31111111/3111/11/1}

Atom   0Fe   basis set group =>   1
Atom   1F    basis set group =>   2


           ************************************************************
           *        Program running with 24 parallel MPI-processes    *
           *              working on a common directory               *
           ************************************************************
------------------------------------------------------------------------------
                           ORCA GTO INTEGRAL CALCULATION
------------------------------------------------------------------------------

                         BASIS SET STATISTICS AND STARTUP INFO

 # of primitive gaussian shells          ...  251
 # of primitive gaussian functions       ...  567
 # of contracted shells                  ...   39
 # of contracted basis functions         ...  139
 Highest angular momentum                ...    4
 Maximum contraction depth               ...   19
 Integral package used                   ... LIBINT
 Integral threshhold            Thresh   ...  1.000e-10
 Primitive cut-off              TCut     ...  1.000e-11


------------------------------ INTEGRAL EVALUATION ----------------------------


 * One electron integrals 
 Pre-screening matrix                    ... done
 Shell pair data                         ... done (   0.001 sec)



           ************************************************************
           *        Program running with 24 parallel MPI-processes    *
           *              working on a common directory               *
           ************************************************************
-------------------------------------------------------------------------------
                                 ORCA SCF
-------------------------------------------------------------------------------

------------
SCF SETTINGS
------------
Hamiltonian:
 Density Functional     Method          .... DFT(GTOs)
 Exchange Functional    Exchange        .... WB97M-V
 Correlation Functional Correlation     .... WB97M-V
 Gradients option       PostSCFGGA      .... off
 Hybrid DFT is turned on
   Fraction HF Exchange ScalHFX         ....  0.150000
   Scaling of DF-GGA-X  ScalDFX         ....  0.000000
   Scaling of DF-GGA-C  ScalDFC         ....  1.000000
   Scaling of DF-LDA-C  ScalLDAC        ....  1.000000
   Perturbative correction              ....  0.000000
   Density functional embedding theory  .... OFF
 Long-range corrected/Screened/Range-Separated Hybrid DFT is turned on
   Amount of maximum screened exact exchange              ....  0.850000
   Range separation parameter mu (erf(mu*r12)/r12)        ....  0.300000
   NL short-range parameter             ....  6.000000
   NL long-range parameter              ....  0.010000


General Settings:
 Integral files         IntName         .... 32_FeF
 Hartree-Fock type      HFTyp           .... UHF
 Total Charge           Charge          ....    0
 Multiplicity           Mult            ....    6
 Number of Electrons    NEL             ....   35
 Basis Dimension        Dim             ....  139
 Nuclear Repulsion      ENuc            ....     69.5380787080 Eh

Convergence Acceleration:
 DIIS                   CNVDIIS         .... on
   Start iteration      DIISMaxIt       ....     0
   Startup error        DIISStart       ....  0.200000
   # of expansion vecs  DIISMaxEq       ....     5
   Bias factor          DIISBfac        ....   1.050
   Max. coefficient     DIISMaxC        ....  10.000
 Newton-Raphson         CNVNR           .... off
 SOSCF                  CNVSOSCF        .... off
 Level Shifting         CNVShift        .... on
   Level shift para.    LevelShift      ....    0.2500
   Turn off err/grad.   ShiftErr        ....    0.0000
 Zerner damping         CNVZerner       .... off
 Static damping         CNVDamp         .... on
   Fraction old density DampFac         ....    0.8500
   Max. Damping (<1)    DampMax         ....    0.9800
   Min. Damping (>=0)   DampMin         ....    0.0000
   Turn off err/grad.   DampErr         ....    0.0300
 Fernandez-Rico         CNVRico         .... off

SCF Procedure:
 Maximum # iterations   MaxIter         ....   125
 SCF integral mode      SCFMode         .... Direct
   Integral package                     .... LIBINT
 Reset frequency        DirectResetFreq ....    20
 Integral Threshold     Thresh          ....  1.000e-10 Eh
 Primitive CutOff       TCut            ....  1.000e-11 Eh

Convergence Tolerance:
 Convergence Check Mode ConvCheckMode   .... Total+1el-Energy
 Convergence forced     ConvForced      .... 0
 Energy Change          TolE            ....  1.000e-06 Eh
 1-El. energy change                    ....  1.000e-03 Eh
 DIIS Error             TolErr          ....  1.000e-06


Diagonalization of the overlap matrix:
Smallest eigenvalue                        ... 9.071e-05
Time for diagonalization                   ...    0.005 sec
Threshold for overlap eigenvalues          ... 1.000e-08
Number of eigenvalues below threshold      ... 0
Time for construction of square roots      ...    0.003 sec
Total time needed                          ...    0.008 sec

-------------------
DFT GRID GENERATION
-------------------

General Integration Accuracy     IntAcc      ...  4.670
Radial Grid Type                 RadialGrid  ... Gauss-Chebyshev
Angular Grid (max. acc.)         AngularGrid ... Lebedev-302
Angular grid pruning method      GridPruning ... 3 (G Style)
Weight generation scheme         WeightScheme... Becke
Basis function cutoff            BFCut       ...    1.0000e-10
Integration weight cutoff        WCut        ...    1.0000e-14
Grids for H and He will be reduced by one unit

# of grid points (after initial pruning)     ...  15912 (   0.0 sec)
# of grid points (after weights+screening)   ...  15863 (   0.0 sec)
nearest neighbour list constructed           ...    0.0 sec
Grid point re-assignment to atoms done       ...    0.0 sec
Grid point division into batches done        ...    0.1 sec
Reduced shell lists constructed in    0.1 sec

Total number of grid points                  ...    15863
Total number of batches                      ...      249
Average number of points per batch           ...       63
Average number of grid points per atom       ...     7932
Average number of shells per batch           ...    14.33 (36.75%)
Average number of basis functions per batch  ...    34.17 (24.58%)
Average number of large shells per batch     ...     7.42 (51.74%)
Average number of large basis fcns per batch ...    18.75 (54.88%)
Maximum spatial batch extension              ...  28.57, 31.41, 18.49 au
Average spatial batch extension              ...   0.89,  0.95,  0.67 au

Time for grid setup =    0.152 sec

------------------------------
INITIAL GUESS: MODEL POTENTIAL
------------------------------
Loading Hartree-Fock densities                     ... done
Calculating cut-offs                               ... done
Setting up the integral package                    ... done
Initializing the effective Hamiltonian             ... done
Starting the Coulomb interaction                   ... done (   0.0 sec)
Reading the grid                                   ... done
Mapping shells                                     ... done
Starting the XC term evaluation                    ... done (   0.0 sec)
  promolecular density results
     # of electrons  =     34.999991727
     EX              =    -64.049736230
     EC              =     -1.448763918
     EX+EC           =    -65.498500148
Transforming the Hamiltonian                       ... done (   0.0 sec)
Diagonalizing the Hamiltonian                      ... done (   0.0 sec)
Back transforming the eigenvectors                 ... done (   0.0 sec)
Now organizing SCF variables                       ... done
                      ------------------
                      INITIAL GUESS DONE (   0.2 sec)
                      ------------------
--------------
SCF ITERATIONS
--------------
ITER       Energy         Delta-E        Max-DP      RMS-DP      [F,P]     Damp
               ***  Starting incremental Fock matrix formation  ***
  0  -1363.5743528261   0.00000000000015.65037322  0.15739011  0.2868752 0.8500
  1  -1363.0603249864   0.514027839751 2.34438059  0.02357634  0.1408579 0.8500
                               ***Turning on DIIS***
  2  -1363.1700914708  -0.109766484404 1.99591680  0.02006566  0.0778004 0.8500
  3  -1363.2566009781  -0.086509507342 1.69980953  0.01708326  0.0487048 0.8500
  4  -1363.3262521489  -0.069651170754 1.44535922  0.01452554  0.0562587 0.8500
  5  -1363.3831719567  -0.056919807825 1.22897221  0.01235070  0.0593132 0.8500
  6  -1363.4301359730  -0.046964016273 1.04761353  0.01052298  0.0595817 0.8500
  7  -1363.4690124769  -0.038876503978 0.88841586  0.00892746  0.0575578 0.8500
  8  -1363.5015988748  -0.032586397831 0.75674182  0.00760176  0.0543159 0.8500
  9  -1363.5289137237  -0.027314848951 0.64457694  0.00647645  0.0485974 0.8500
 10  -1363.5517823389  -0.022868615163 0.54755685  0.00550562  0.0399686 0.8500
 11  -1363.5709016839  -0.019119345056 0.46507117  0.00467809  0.0320585 0.8500
 12  -1363.5869907582  -0.016089074278 2.63435741  0.02651112  0.0269455 0.0000
 13  -1363.6663708550  -0.079380096809 0.02978942  0.00047922  0.0045843 0.0000
 14  -1363.6664427545  -0.000071899492 0.00749518  0.00012391  0.0056731 0.0000
 15  -1363.6664670046  -0.000024250104 0.00655152  0.00008506  0.0012983 0.0000
 16  -1363.6664708930  -0.000003888374 0.00519096  0.00006688  0.0008150 0.0000
 17  -1363.6664669280   0.000003965009 0.00542269  0.00007712  0.0008074 0.0000
 18  -1363.6664862230  -0.000019295028 0.00319431  0.00004303  0.0002932 0.0000
 19  -1363.6664925174  -0.000006294385 0.00044446  0.00000668  0.0008289 0.0000
               *** Restarting incremental Fock matrix formation ***
                                   *** Resetting DIIS ***
                 **** Energy Check signals convergence ****

               *****************************************************
               *                     SUCCESS                       *
               *           SCF CONVERGED AFTER  20 CYCLES          *
               *****************************************************


Setting up the DFT-NL grid :

General Integration Accuracy     IntAcc      ...  4.340
Radial Grid Type                 RadialGrid  ... Gauss-Chebyshev
Angular Grid (max. acc.)         AngularGrid ... Lebedev-110
Angular grid pruning method      GridPruning ... 3 (G Style)
Weight generation scheme         WeightScheme... Becke
Basis function cutoff            BFCut       ...    1.0000e-10
Integration weight cutoff        WCut        ...    1.0000e-14
Grids for H and He will be reduced by one unit

# of grid points (after initial pruning)     ...   4652 (   0.0 sec)
# of grid points (after weights+screening)   ...   4627 (   0.0 sec)
nearest neighbour list constructed           ...    0.0 sec
Grid point re-assignment to atoms done       ...    0.0 sec
Grid point division into batches done        ...    0.0 sec
Reduced shell lists constructed in    0.0 sec

Total number of grid points                  ...     4627
Total number of batches                      ...       73
Average number of points per batch           ...       63
Average number of grid points per atom       ...     2314
Average number of shells per batch           ...    20.80 (53.33%)
Average number of basis functions per batch  ...    59.20 (42.59%)
Average number of large shells per batch     ...    14.80 (71.15%)
Average number of large basis fcns per batch ...    41.60 (70.27%)
Maximum spatial batch extension              ...  19.55, 28.73, 15.95 au
Average spatial batch extension              ...   1.01,  1.33,  0.87 au

Final grid set up in    0.0 sec

-------------------------------------------------------------------------------
                         DFT-NL dispersion correction                          
-------------------------------------------------------------------------------

SC Energy -1363.666493243 
NL    Energy 0.147827355 
SC+NL Energy -1363.518665889 
NL done in    0.0 sec
-------------------------------------------------------------------------------

----------------
TOTAL SCF ENERGY
----------------

Total Energy       :        -1363.51866589 Eh          -37103.22919 eV

Components:
Nuclear Repulsion  :           69.53807871 Eh            1892.22732 eV
Electronic Energy  :        -1433.05674460 Eh          -38995.45651 eV
One Electron Energy:        -2023.28850269 Eh          -55056.47918 eV
Two Electron Energy:          590.23175809 Eh           16061.02266 eV

Virial components:
Potential Energy   :        -2725.27877655 Eh          -74158.60566 eV
Kinetic Energy     :         1361.76011066 Eh           37055.37647 eV
Virial Ratio       :            2.00129138


DFT components:
N(Alpha)           :       20.000013931724 electrons
N(Beta)            :       15.000013880812 electrons
N(Total)           :       35.000027812537 electrons
E(X)               :      -50.035710571052 Eh       
E(C)               :       -1.643954759644 Eh       
NL Energy, E(C,NL) :        0.147827354642 Eh       
E(XC)              :      -51.531837976053 Eh       
DFET-embed. en.    :        0.000000000000 Eh       

---------------
SCF CONVERGENCE
---------------

  Last Energy change         ...   -7.2602e-07  Tolerance :   1.0000e-06
  Last MAX-Density change    ...    3.7716e-03  Tolerance :   1.0000e-05
  Last RMS-Density change    ...    4.8466e-05  Tolerance :   1.0000e-06
  Last DIIS Error            ...    3.0661e-04  Tolerance :   1.0000e-06

             **** THE GBW FILE WAS UPDATED (32_FeF.gbw) ****
             **** DENSITY FILE WAS UPDATED (32_FeF.scfp) ****
             **** ENERGY FILE WAS UPDATED (32_FeF.en.tmp) ****
----------------------
UHF SPIN CONTAMINATION
----------------------

Warning: in a DFT calculation there is little theoretical justification to 
         calculate <S**2> as in Hartree-Fock theory. We will do it anyways
         but you should keep in mind that the values have only limited relevance

Expectation value of <S**2>     :     8.759058
Ideal value S*(S+1) for S=2.5   :     8.750000
Deviation                       :     0.009058

             **** THE GBW FILE WAS UPDATED (32_FeF.gbw) ****
             **** DENSITY FILE WAS UPDATED (32_FeF.scfp) ****
----------------
ORBITAL ENERGIES
----------------
                 SPIN UP ORBITALS
  NO   OCC          E(Eh)            E(eV) 
   0   1.0000    -256.642893     -6983.6082 
   1   1.0000     -30.373872      -826.5151 
   2   1.0000     -26.153357      -711.6690 
   3   1.0000     -26.126291      -710.9325 
   4   1.0000     -26.126291      -710.9325 
   5   1.0000     -24.854460      -676.3242 
   6   1.0000      -3.764759      -102.4443 
   7   1.0000      -2.551856       -69.4395 
   8   1.0000      -2.501697       -68.0746 
   9   1.0000      -2.501697       -68.0746 
  10   1.0000      -1.252809       -34.0907 
  11   1.0000      -0.594557       -16.1787 
  12   1.0000      -0.560800       -15.2601 
  13   1.0000      -0.560800       -15.2601 
  14   1.0000      -0.516484       -14.0543 
  15   1.0000      -0.490253       -13.3405 
  16   1.0000      -0.469148       -12.7662 
  17   1.0000      -0.469147       -12.7661 
  18   1.0000      -0.466807       -12.7025 
  19   1.0000      -0.290865        -7.9148 
  20   0.0000       0.003480         0.0947 
  21   0.0000       0.003480         0.0947 
  22   0.0000       0.011640         0.3167 
  23   0.0000       0.018047         0.4911 
  24   0.0000       0.052685         1.4336 
  25   0.0000       0.052685         1.4336 
  26   0.0000       0.074358         2.0234 
  27   0.0000       0.074710         2.0330 
  28   0.0000       0.075446         2.0530 
  29   0.0000       0.080192         2.1821 
  30   0.0000       0.080193         2.1822 
  31   0.0000       0.098958         2.6928 
  32   0.0000       0.133015         3.6195 
  33   0.0000       0.205404         5.5893 
  34   0.0000       0.205404         5.5893 
  35   0.0000       0.239215         6.5094 
  36   0.0000       0.271880         7.3982 
  37   0.0000       0.274134         7.4596 
  38   0.0000       0.274134         7.4596 
  39   0.0000       0.310801         8.4573 
  40   0.0000       0.312239         8.4965 
  41   0.0000       0.335501         9.1294 
  42   0.0000       0.335501         9.1295 
  43   0.0000       0.386005        10.5037 
  44   0.0000       0.504353        13.7242 
  45   0.0000       0.606985        16.5169 
  46   0.0000       0.769681        20.9441 
  47   0.0000       0.770318        20.9614 
  48   0.0000       0.771469        20.9927 
  49   0.0000       0.771470        20.9928 
  50   0.0000       0.878410        23.9028 
  51   0.0000       0.879234        23.9252 
  52   0.0000       0.879234        23.9252 
  53   0.0000       0.946568        25.7574 
  54   0.0000       0.946568        25.7574 
  55   0.0000       1.000071        27.2133 
  56   0.0000       1.008232        27.4354 
  57   0.0000       1.008232        27.4354 
  58   0.0000       1.046842        28.4860 
  59   0.0000       1.047204        28.4959 
  60   0.0000       1.116995        30.3950 
  61   0.0000       1.116995        30.3950 
  62   0.0000       1.135455        30.8973 
  63   0.0000       1.142207        31.0810 
  64   0.0000       1.148417        31.2500 
  65   0.0000       1.419124        38.6163 
  66   0.0000       1.462512        39.7970 
  67   0.0000       1.566691        42.6318 
  68   0.0000       1.566691        42.6318 
  69   0.0000       2.363423        64.3120 
  70   0.0000       2.460934        66.9654 
  71   0.0000       2.460934        66.9654 
  72   0.0000       2.598435        70.7070 
  73   0.0000       2.601962        70.8030 
  74   0.0000       2.623085        71.3778 
  75   0.0000       2.674325        72.7721 
  76   0.0000       2.674325        72.7721 
  77   0.0000       2.736877        74.4742 
  78   0.0000       2.746424        74.7340 
  79   0.0000       2.762736        75.1779 
  80   0.0000       2.762736        75.1779 
  81   0.0000       2.812580        76.5342 
  82   0.0000       2.813617        76.5624 
  83   0.0000       2.862289        77.8869 
  84   0.0000       2.863533        77.9207 
  85   0.0000       2.863533        77.9207 
  86   0.0000       2.999060        81.6086 
  87   0.0000       3.024553        82.3023 
  88   0.0000       3.024553        82.3023 
  89   0.0000       3.282812        89.3299 
  90   0.0000       3.282812        89.3299 
  91   0.0000       3.344185        90.9999 
  92   0.0000       3.344834        91.0176 
  93   0.0000       3.369803        91.6970 
  94   0.0000       3.369803        91.6970 
  95   0.0000       3.375449        91.8506 
  96   0.0000       3.631405        98.8156 
  97   0.0000       3.659466        99.5791 
  98   0.0000       3.665211        99.7355 
  99   0.0000       4.134103       112.4947 
 100   0.0000       4.134103       112.4947 
 101   0.0000       4.294930       116.8710 
 102   0.0000       4.532082       123.3242 
 103   0.0000       4.558949       124.0553 
 104   0.0000       4.843673       131.8030 
 105   0.0000       4.843673       131.8030 
 106   0.0000       5.012802       136.4053 
 107   0.0000       5.012802       136.4053 
 108   0.0000       5.172783       140.7586 
 109   0.0000       5.979131       162.7004 
 110   0.0000       8.451420       229.9748 
 111   0.0000       8.451420       229.9748 
 112   0.0000       8.538360       232.3406 
 113   0.0000       8.538964       232.3570 
 114   0.0000       8.728579       237.5167 
 115   0.0000       8.728579       237.5167 
 116   0.0000       8.758471       238.3301 
 117   0.0000       8.868956       241.3365 
 118   0.0000       8.873196       241.4519 
 119   0.0000       8.890114       241.9123 
 120   0.0000       8.951054       243.5706 
 121   0.0000       8.952571       243.6118 
 122   0.0000       8.952571       243.6118 
 123   0.0000       8.962641       243.8859 
 124   0.0000       8.962641       243.8859 
 125   0.0000       8.968312       244.0402 
 126   0.0000       9.167246       249.4534 
 127   0.0000       9.167246       249.4534 
 128   0.0000       9.453955       257.2552 
 129   0.0000       9.684893       263.5393 
 130   0.0000       9.684893       263.5393 
 131   0.0000       9.699144       263.9271 
 132   0.0000       9.699745       263.9435 
 133   0.0000       9.759202       265.5614 
 134   0.0000       9.777422       266.0572 
 135   0.0000      10.030789       272.9516 
 136   0.0000      10.030789       272.9516 
 137   0.0000      10.257720       279.1267 
 138   0.0000      14.239611       387.4795 

                 SPIN DOWN ORBITALS
  NO   OCC          E(Eh)            E(eV) 
   0   1.0000    -256.639682     -6983.5208 
   1   1.0000     -30.283267      -824.0496 
   2   1.0000     -26.069913      -709.3984 
   3   1.0000     -26.060188      -709.1338 
   4   1.0000     -26.060188      -709.1338 
   5   1.0000     -24.847688      -676.1400 
   6   1.0000      -3.580449       -97.4290 
   7   1.0000      -2.317850       -63.0719 
   8   1.0000      -2.317849       -63.0719 
   9   1.0000      -2.314982       -62.9938 
  10   1.0000      -1.236698       -33.6523 
  11   1.0000      -0.521291       -14.1850 
  12   1.0000      -0.488088       -13.2816 
  13   1.0000      -0.488088       -13.2815 
  14   1.0000      -0.394442       -10.7333 
  15   0.0000      -0.350426        -9.5356 
  16   0.0000      -0.285565        -7.7706 
  17   0.0000      -0.194903        -5.3036 
  18   0.0000      -0.194859        -5.3024 
  19   0.0000      -0.108288        -2.9467 
  20   0.0000      -0.074758        -2.0343 
  21   0.0000      -0.030112        -0.8194 
  22   0.0000      -0.020369        -0.5543 
  23   0.0000      -0.020185        -0.5492 
  24   0.0000      -0.008570        -0.2332 
  25   0.0000      -0.002863        -0.0779 
  26   0.0000      -0.002049        -0.0558 
  27   0.0000       0.014454         0.3933 
  28   0.0000       0.016257         0.4424 
  29   0.0000       0.016626         0.4524 
  30   0.0000       0.017285         0.4703 
  31   0.0000       0.059010         1.6057 
  32   0.0000       0.125709         3.4207 
  33   0.0000       0.154489         4.2039 
  34   0.0000       0.154601         4.2069 
  35   0.0000       0.235258         6.4017 
  36   0.0000       0.239253         6.5104 
  37   0.0000       0.245848         6.6899 
  38   0.0000       0.245877         6.6907 
  39   0.0000       0.247282         6.7289 
  40   0.0000       0.267307         7.2738 
  41   0.0000       0.279144         7.5959 
  42   0.0000       0.279228         7.5982 
  43   0.0000       0.341650         9.2968 
  44   0.0000       0.475152        12.9295 
  45   0.0000       0.569493        15.4967 
  46   0.0000       0.756564        20.5871 
  47   0.0000       0.756596        20.5880 
  48   0.0000       0.759718        20.6730 
  49   0.0000       0.767658        20.8890 
  50   0.0000       0.859972        23.4010 
  51   0.0000       0.859972        23.4010 
  52   0.0000       0.898248        24.4426 
  53   0.0000       0.952844        25.9282 
  54   0.0000       0.952847        25.9283 
  55   0.0000       1.008213        27.4349 
  56   0.0000       1.022196        27.8154 
  57   0.0000       1.022199        27.8155 
  58   0.0000       1.043091        28.3839 
  59   0.0000       1.053887        28.6777 
  60   0.0000       1.117444        30.4072 
  61   0.0000       1.127673        30.6855 
  62   0.0000       1.127680        30.6857 
  63   0.0000       1.173226        31.9251 
  64   0.0000       1.174938        31.9717 
  65   0.0000       1.423260        38.7289 
  66   0.0000       1.492597        40.6156 
  67   0.0000       1.588723        43.2314 
  68   0.0000       1.588724        43.2314 
  69   0.0000       2.385086        64.9015 
  70   0.0000       2.488839        67.7248 
  71   0.0000       2.488840        67.7248 
  72   0.0000       2.616187        71.1901 
  73   0.0000       2.616434        71.1968 
  74   0.0000       2.684404        73.0463 
  75   0.0000       2.725437        74.1629 
  76   0.0000       2.725437        74.1629 
  77   0.0000       2.781756        75.6954 
  78   0.0000       2.781757        75.6954 
  79   0.0000       2.807332        76.3914 
  80   0.0000       2.812931        76.5437 
  81   0.0000       2.823781        76.8390 
  82   0.0000       2.824008        76.8452 
  83   0.0000       2.909501        79.1715 
  84   0.0000       2.909501        79.1715 
  85   0.0000       2.926302        79.6287 
  86   0.0000       3.073845        83.6436 
  87   0.0000       3.118172        84.8498 
  88   0.0000       3.118180        84.8500 
  89   0.0000       3.311809        90.1189 
  90   0.0000       3.311809        90.1189 
  91   0.0000       3.362273        91.4921 
  92   0.0000       3.379808        91.9693 
  93   0.0000       3.399016        92.4919 
  94   0.0000       3.399017        92.4919 
  95   0.0000       3.435346        93.4805 
  96   0.0000       3.688028       100.3563 
  97   0.0000       3.693935       100.5171 
  98   0.0000       3.707439       100.8845 
  99   0.0000       4.191511       114.0568 
 100   0.0000       4.191512       114.0568 
 101   0.0000       4.327126       117.7471 
 102   0.0000       4.648646       126.4961 
 103   0.0000       4.701611       127.9373 
 104   0.0000       4.947987       134.6416 
 105   0.0000       4.947988       134.6416 
 106   0.0000       5.054053       137.5278 
 107   0.0000       5.054054       137.5278 
 108   0.0000       5.256694       143.0419 
 109   0.0000       6.056430       164.8038 
 110   0.0000       8.462821       230.2851 
 111   0.0000       8.462821       230.2851 
 112   0.0000       8.552099       232.7144 
 113   0.0000       8.552128       232.7152 
 114   0.0000       8.778904       238.8861 
 115   0.0000       8.792947       239.2682 
 116   0.0000       8.792947       239.2682 
 117   0.0000       8.899652       242.1719 
 118   0.0000       8.899702       242.1732 
 119   0.0000       8.975511       244.2361 
 120   0.0000       8.975511       244.2361 
 121   0.0000       8.993244       244.7186 
 122   0.0000       9.122229       248.2285 
 123   0.0000       9.122229       248.2285 
 124   0.0000       9.128110       248.3885 
 125   0.0000       9.157239       249.1811 
 126   0.0000       9.316371       253.5113 
 127   0.0000       9.316371       253.5113 
 128   0.0000       9.567626       260.3484 
 129   0.0000       9.811692       266.9897 
 130   0.0000       9.818947       267.1871 
 131   0.0000       9.819079       267.1907 
 132   0.0000       9.819079       267.1907 
 133   0.0000       9.901344       269.4293 
 134   0.0000       9.916403       269.8390 
 135   0.0000      10.169221       276.7186 
 136   0.0000      10.169221       276.7186 
 137   0.0000      10.388452       282.6841 
 138   0.0000      14.253965       387.8701 

                    ********************************
                    * MULLIKEN POPULATION ANALYSIS *
                    ********************************

--------------------------------------------
MULLIKEN ATOMIC CHARGES AND SPIN POPULATIONS
--------------------------------------------
   0 Fe:    0.571338    4.833504
   1 F :   -0.571338    0.166496
Sum of atomic charges         :    0.0000000
Sum of atomic spin populations:    5.0000000

-----------------------------------------------------
MULLIKEN REDUCED ORBITAL CHARGES AND SPIN POPULATIONS
-----------------------------------------------------
CHARGE
  0 Fes       :     6.923239  s :     6.923239
      pz      :     4.248746  p :    12.312443
      px      :     4.031849
      py      :     4.031849
      dz2     :     1.071229  d :     6.170330
      dxz     :     1.049755
      dyz     :     1.049752
      dx2y2   :     0.999795
      dxy     :     1.999799
      f0      :     0.009104  f :     0.020540
      f+1     :     0.005650
      f-1     :     0.005650
      f+2     :     0.000022
      f-2     :     0.000026
      f+3     :     0.000044
      f-3     :     0.000044
      g0      :     0.001037  g :     0.002111
      g+1     :     0.000526
      g-1     :     0.000526
      g+2     :     0.000002
      g-2     :     0.000006
      g+3     :     0.000001
      g-3     :     0.000001
      g+4     :     0.000011
      g-4     :     0.000000
  1 F s       :     3.967386  s :     3.967386
      pz      :     1.775759  p :     5.591484
      px      :     1.907861
      py      :     1.907864
      dz2     :     0.002894  d :     0.010905
      dxz     :     0.003890
      dyz     :     0.003890
      dx2y2   :     0.000143
      dxy     :     0.000088
      f0      :     0.000595  f :     0.001563
      f+1     :     0.000425
      f-1     :     0.000425
      f+2     :     0.000038
      f-2     :     0.000080
      f+3     :     0.000000
      f-3     :     0.000000

SPIN
  0 Fes       :     0.834302  s :     0.834302
      pz      :     0.195493  p :     0.195766
      px      :     0.000136
      py      :     0.000136
      dz2     :     0.902576  d :     3.802304
      dxz     :     0.950081
      dyz     :     0.950084
      dx2y2   :     0.999795
      dxy     :    -0.000231
      f0      :     0.001048  f :     0.001052
      f+1     :     0.000018
      f-1     :     0.000019
      f+2     :     0.000022
      f-2     :     0.000015
      f+3     :    -0.000035
      f-3     :    -0.000035
      g0      :     0.000053  g :     0.000080
      g+1     :     0.000010
      g-1     :     0.000010
      g+2     :     0.000002
      g-2     :     0.000005
      g+3     :     0.000001
      g-3     :     0.000001
      g+4     :    -0.000002
      g-4     :    -0.000000
  1 F s       :    -0.002237  s :    -0.002237
      pz      :     0.068627  p :     0.169120
      px      :     0.050248
      py      :     0.050245
      dz2     :     0.000021  d :    -0.000668
      dxz     :    -0.000523
      dyz     :    -0.000523
      dx2y2   :     0.000143
      dxy     :     0.000213
      f0      :     0.000118  f :     0.000281
      f+1     :     0.000064
      f-1     :     0.000064
      f+2     :     0.000038
      f-2     :    -0.000003
      f+3     :    -0.000000
      f-3     :    -0.000000


                     *******************************
                     * LOEWDIN POPULATION ANALYSIS *
                     *******************************

-------------------------------------------
LOEWDIN ATOMIC CHARGES AND SPIN POPULATIONS
-------------------------------------------
   0 Fe:    0.425331    4.729774
   1 F :   -0.425331    0.270226

----------------------------------------------------
LOEWDIN REDUCED ORBITAL CHARGES AND SPIN POPULATIONS
----------------------------------------------------
CHARGE
  0 Fes       :     6.707604  s :     6.707604
      pz      :     4.334735  p :    12.414208
      px      :     4.039735
      py      :     4.039737
      dz2     :     1.151010  d :     6.269650
      dxz     :     1.063060
      dyz     :     1.063059
      dx2y2   :     0.997860
      dxy     :     1.994662
      f0      :     0.075177  f :     0.169402
      f+1     :     0.046946
      f-1     :     0.046946
      f+2     :     0.000087
      f-2     :     0.000157
      f+3     :     0.000044
      f-3     :     0.000044
      g0      :     0.007215  g :     0.013805
      g+1     :     0.003277
      g-1     :     0.003277
      g+2     :     0.000006
      g-2     :     0.000017
      g+3     :     0.000001
      g-3     :     0.000001
      g+4     :     0.000011
      g-4     :     0.000000
  1 F s       :     3.730600  s :     3.730600
      pz      :     1.884107  p :     5.502373
      px      :     1.809133
      py      :     1.809133
      dz2     :     0.090977  d :     0.156375
      dxz     :     0.030125
      dyz     :     0.030125
      dx2y2   :     0.001427
      dxy     :     0.003722
      f0      :     0.018564  f :     0.035983
      f+1     :     0.007679
      f-1     :     0.007679
      f+2     :     0.000620
      f-2     :     0.001442
      f+3     :     0.000000
      f-3     :     0.000000

SPIN
  0 Fes       :     0.721473  s :     0.721473
      pz      :     0.249975  p :     0.265317
      px      :     0.007672
      py      :     0.007670
      dz2     :     0.883323  d :     3.726895
      dxz     :     0.922497
      dyz     :     0.922498
      dx2y2   :     0.997860
      dxy     :     0.000716
      f0      :     0.004282  f :     0.014352
      f+1     :     0.005017
      f-1     :     0.005017
      f+2     :     0.000087
      f-2     :     0.000019
      f+3     :    -0.000035
      f-3     :    -0.000035
      g0      :     0.000734  g :     0.001737
      g+1     :     0.000499
      g-1     :     0.000499
      g+2     :     0.000006
      g-2     :    -0.000001
      g+3     :     0.000001
      g-3     :     0.000001
      g+4     :    -0.000002
      g-4     :    -0.000000
  1 F s       :     0.028287  s :     0.028287
      pz      :     0.102226  p :     0.187425
      px      :     0.042599
      py      :     0.042600
      dz2     :     0.005689  d :     0.038831
      dxz     :     0.016159
      dyz     :     0.016159
      dx2y2   :     0.001427
      dxy     :    -0.000603
      f0      :     0.004013  f :     0.015684
      f+1     :     0.005591
      f-1     :     0.005591
      f+2     :     0.000620
      f-2     :    -0.000131
      f+3     :    -0.000000
      f-3     :    -0.000000


                      *****************************
                      * MAYER POPULATION ANALYSIS *
                      *****************************

  NA   - Mulliken gross atomic population
  ZA   - Total nuclear charge
  QA   - Mulliken gross atomic charge
  VA   - Mayer's total valence
  BVA  - Mayer's bonded valence
  FA   - Mayer's free valence

  ATOM       NA         ZA         QA         VA         BVA        FA
  0 Fe    25.4287    26.0000     0.5713     5.4889     0.7477     4.7412
  1 F      9.5713     9.0000    -0.5713     0.7579     0.7477     0.0102

  Mayer bond orders larger than 0.100000
B(  0-Fe,  1-F ) :   0.7477 

-------
TIMINGS
-------

Total SCF time: 0 days 0 hours 4 min 58 sec 

Total time                  ....     298.049 sec
Sum of individual times     ....     297.625 sec  ( 99.9%)

Fock matrix formation       ....     297.204 sec  ( 99.7%)
  XC integration            ....       0.751 sec  (  0.3% of F)
    Basis function eval.    ....       0.096 sec  ( 12.8% of XC)
    Density eval.           ....       0.108 sec  ( 14.4% of XC)
    XC-Functional eval.     ....       0.025 sec  (  3.3% of XC)
    XC-Potential eval.      ....       0.297 sec  ( 39.6% of XC)
Diagonalization             ....       0.101 sec  (  0.0%)
Density matrix formation    ....       0.014 sec  (  0.0%)
Population analysis         ....       0.007 sec  (  0.0%)
Initial guess               ....       0.096 sec  (  0.0%)
Orbital Transformation      ....       0.000 sec  (  0.0%)
Orbital Orthonormalization  ....       0.000 sec  (  0.0%)
DIIS solution               ....       0.036 sec  (  0.0%)
Grid generation             ....       0.167 sec  (  0.1%)

-------------------------   --------------------
FINAL SINGLE POINT ENERGY     -1363.518665888773
-------------------------   --------------------


                            ***************************************
                            *     ORCA property calculations      *
                            ***************************************

                                    ---------------------
                                    Active property flags
                                    ---------------------
   (+) Dipole Moment


------------------------------------------------------------------------------
                       ORCA ELECTRIC PROPERTIES CALCULATION
------------------------------------------------------------------------------

Dipole Moment Calculation                       ... on
Quadrupole Moment Calculation                   ... off
Polarizability Calculation                      ... off
GBWName                                         ... 32_FeF.gbw
Electron density file                           ... 32_FeF.scfp
The origin for moment calculation is the CENTER OF MASS  = ( 0.000000,  0.000000  1.061319)

-------------
DIPOLE MOMENT
-------------
                                X             Y             Z
Electronic contribution:      0.00000       0.00000      -1.19055
Nuclear contribution   :      0.00000       0.00000       0.39123
                        -----------------------------------------
Total Dipole Moment    :      0.00000       0.00000      -0.79932
                        -----------------------------------------
Magnitude (a.u.)       :      0.79932
Magnitude (Debye)      :      2.03172



--------------------
Rotational spectrum 
--------------------
 
Rotational constants in cm-1:     0.000000     0.375023     0.375023 
Rotational constants in MHz :     0.000000 11242.894653 11242.894653 

 Dipole components along the rotational axes: 
x,y,z [a.u.] :    -0.799324     0.000003     0.000000 
x,y,z [Debye]:    -2.031720     0.000007     0.000000 

 

Timings for individual modules:

Sum of individual times         ...      301.871 sec (=   5.031 min)
GTO integral calculation        ...        3.241 sec (=   0.054 min)   1.1 %
SCF iterations                  ...      298.630 sec (=   4.977 min)  98.9 %
                             ****ORCA TERMINATED NORMALLY****
TOTAL RUN TIME: 0 days 0 hours 5 minutes 2 seconds 476 msec
