
                                 *****************
                                 * O   R   C   A *
                                 *****************

           --- An Ab Initio, DFT and Semiempirical electronic structure package ---

                  #######################################################
                  #                        -***-                        #
                  #          Department of theory and spectroscopy      #
                  #               Directorship: Frank Neese             #
                  #        Max Planck Institute fuer Kohlenforschung    #
                  #                Kaiser Wilhelm Platz 1               #
                  #                 D-45470 Muelheim/Ruhr               #
                  #                      Germany                        #
                  #                                                     #
                  #                  All rights reserved                #
                  #                        -***-                        #
                  #######################################################


                         Program Version 4.2.0 -  RELEASE  -


 With contributions from (in alphabetic order):
   Daniel Aravena         : Magnetic Suceptibility
   Michael Atanasov       : Ab Initio Ligand Field Theory (pilot matlab implementation)
   Alexander A. Auer      : GIAO ZORA, VPT2
   Ute Becker             : Parallelization
   Giovanni Bistoni       : ED, misc. LED, open-shell LED, HFLED
   Martin Brehm           : Molecular dynamics
   Dmytro Bykov           : SCF Hessian
   Vijay G. Chilkuri      : MRCI spin determinant printing, contributions to CSF-ICE
   Dipayan Datta          : RHF DLPNO-CCSD density
   Achintya Kumar Dutta   : EOM-CC, STEOM-CC
   Dmitry Ganyushin       : Spin-Orbit,Spin-Spin,Magnetic field MRCI
   Miquel Garcia          : C-PCM Hessian, Gaussian charge scheme
   Yang Guo               : DLPNO-NEVPT2, CIM, IAO-localization
   Andreas Hansen         : Spin unrestricted coupled pair/coupled cluster methods
   Benjamin Helmich-Paris : CASSCF linear response (MC-RPA)
   Lee Huntington         : MR-EOM, pCC
   Robert Izsak           : Overlap fitted RIJCOSX, COSX-SCS-MP3, EOM
   Christian Kollmar      : KDIIS, OOCD, Brueckner-CCSD(T), CCSD density
   Simone Kossmann        : Meta GGA functionals, TD-DFT gradient, OOMP2, MP2 Hessian
   Martin Krupicka        : AUTO-CI
   Lucas Lang             : DCDCAS
   Dagmar Lenk            : GEPOL surface, SMD
   Dimitrios Liakos       : Extrapolation schemes; Compound Job, initial MDCI parallelization
   Dimitrios Manganas     : Further ROCIS development; embedding schemes
   Dimitrios Pantazis     : SARC Basis sets
   Taras Petrenko         : DFT Hessian,TD-DFT gradient, ASA, ECA, R-Raman, ABS, FL, XAS/XES, NRVS
   Peter Pinski           : DLPNO-MP2, DLPNO-MP2 Gradient
   Christoph Reimann      : Effective Core Potentials
   Marius Retegan         : Local ZFS, SOC
   Christoph Riplinger    : Optimizer, TS searches, QM/MM, DLPNO-CCSD(T), (RO)-DLPNO pert. Triples
   Tobias Risthaus        : Range-separated hybrids, TD-DFT gradient, RPA, STAB
   Michael Roemelt        : Original ROCIS implementation
   Masaaki Saitow         : Open-shell DLPNO-CCSD energy and density
   Barbara Sandhoefer     : DKH picture change effects
   Avijit Sen             : IP-ROCIS
   Kantharuban Sivalingam : CASSCF convergence, NEVPT2, FIC-MRCI
   Bernardo de Souza      : ESD, SOC TD-DFT
   Georgi Stoychev        : AutoAux, RI-MP2 NMR
   Willem Van den Heuvel  : Paramagnetic NMR
   Boris Wezisla          : Elementary symmetry handling
   Frank Wennmohs         : Technical directorship


 We gratefully acknowledge several colleagues who have allowed us to
 interface, adapt or use parts of their codes:
   Stefan Grimme, W. Hujo, H. Kruse,             : VdW corrections, initial TS optimization,
                  C. Bannwarth                     DFT functionals, gCP, sTDA/sTD-DF
   Ed Valeev, F. Pavosevic, A. Kumar             : LibInt (2-el integral package), F12 methods
   Garnet Chan, S. Sharma, J. Yang, R. Olivares  : DMRG
   Ulf Ekstrom                                   : XCFun DFT Library
   Mihaly Kallay                                 : mrcc  (arbitrary order and MRCC methods)
   Andreas Klamt, Michael Diedenhofen            : otool_cosmo (COSMO solvation model)
   Jiri Pittner, Ondrej Demel                    : Mk-CCSD
   Frank Weinhold                                : gennbo (NPA and NBO analysis)
   Christopher J. Cramer and Donald G. Truhlar   : smd solvation model
   Lars Goerigk                                  : TD-DFT with DH, B97 family of functionals
   V. Asgeirsson, H. Jonsson                     : NEB implementation
   FAccTs GmbH                                   : IRC, NEB, NEB-TS, Multilevel, MM, QM/MM, CI optimization
   S Lehtola, MJT Oliveira, MAL Marques          : LibXC Library


 Your calculation uses the libint2 library for the computation of 2-el integrals
 For citations please refer to: http://libint.valeyev.net

 Your ORCA version has been built with support for libXC version: 4.2.3
 For citations please refer to: https://tddft.org/programs/libxc/

 This ORCA versions uses:
   CBLAS   interface :  Fast vector & matrix operations
   LAPACKE interface :  Fast linear algebra routines
   SCALAPACK package :  Parallel linear algebra routines


Your calculation utilizes the DFT-NL dispersion correction.
Cite in your paper:
Vydrov, O. A.; Van Voorhis, T. J. Chem. Phys. 2010, 133, 244103
Hujo, W.; Grimme, S. J. Chem. Theory Comput. 2011, 7, 3866 
   

----- Orbital basis set information -----
Your calculation utilizes the basis: aug-cc-pVTZ 
    H, B-Ne : Obtained from the ccRepo (grant-hill.group.shef.ac.uk/ccrepo) Feb. 2017
              R. A. Kendall, T. H. Dunning, Jr., R. J. Harrison, J. Chem. Phys. 96, 6796 (1992)
         He : Obtained from the ccRepo (grant-hill.group.shef.ac.uk/ccrepo) Feb. 2017
              D. E. Woon, T. H. Dunning, Jr., J. Chem. Phys. 100, 2975 (1994)
  Li-Be, Na : Obtained from the ccRepo (grant-hill.group.shef.ac.uk/ccrepo) Feb. 2017
              B. P. Prascher, D. E. Woon, K. A. Peterson, T. H. Dunning, Jr., A. K. Wilson, Theor. Chem. Acc. 128, 69 (2011)
         Mg : Obtained from the Peterson Research Group Website (tyr0.chem.wsu.edu/~kipeters) Feb. 2017
              B. P. Prascher, D. E. Woon, K. A. Peterson, T. H. Dunning, Jr., A. K. Wilson, Theor. Chem. Acc. 128, 69 (2011)
      Al-Ar : Obtained from the ccRepo (grant-hill.group.shef.ac.uk/ccrepo) Feb. 2017
              D. E. Woon, T. H. Dunning, Jr., J. Chem. Phys. 98, 1358 (1993)
      Sc-Zn : Obtained from the ccRepo (grant-hill.group.shef.ac.uk/ccrepo) Feb. 2017
              N. B. Balabanov, K. A. Peterson, J. Chem. Phys. 123, 064107 (2005)
              N. B. Balabanov, K. A. Peterson, J. Chem. Phys. 125, 074110 (2006)
      Ga-Kr : Obtained from the ccRepo (grant-hill.group.shef.ac.uk/ccrepo) Feb. 2017
              A. K. Wilson, D. E. Woon, K. A. Peterson, T. H. Dunning, Jr., J. Chem. Phys. 110, 7667 (1999)
     Ag, Au : Obtained from the Peterson Research Group Website (tyr0.chem.wsu.edu/~kipeters) Feb. 2017
              K. A. Peterson, C. Puzzarini, Theor. Chem. Acc. 114, 283 (2005)

----- AuxJK basis set information -----
Your calculation utilizes the auxiliary basis: def2/JK
   H-Ba, Hf-Rn: F. Weigend, J. Comput. Chem. 29, 167 (2008).

================================================================================
                                        WARNINGS
                       Please study these warnings very carefully!
================================================================================


WARNING: your system is open-shell and RHF/RKS was chosen
  ===> : WILL SWITCH to UHF/UKS


INFO   : the flag for use of LIBINT has been found!

================================================================================
                                       INPUT FILE
================================================================================
NAME = 33_FeCl.in
|  1> #
|  2> # 33_FeCl wb97m-v/aug-cc-pvtz
|  3> #
|  4> ! wb97m-v aug-cc-pvtz def2/jk grid4 nofinalgrid
|  5> 
|  6> *xyz 0 6
|  7>   Fe  0.00000000000000      0.00000000000000     -0.08894892709089
|  8>   Cl  0.00000000000000      0.00000000000000      2.08894892709089
|  9> *
| 10> 
| 11> %pal
| 12> nprocs 24
| 13> end
| 14> 
| 15> 
| 16>                          ****END OF INPUT****
================================================================================

                       ****************************
                       * Single Point Calculation *
                       ****************************

---------------------------------
CARTESIAN COORDINATES (ANGSTROEM)
---------------------------------
  Fe     0.000000    0.000000   -0.088949
  Cl     0.000000    0.000000    2.088949

----------------------------
CARTESIAN COORDINATES (A.U.)
----------------------------
  NO LB      ZA    FRAG     MASS         X           Y           Z
   0 Fe   26.0000    0    55.850    0.000000    0.000000   -0.168089
   1 Cl   17.0000    0    35.453    0.000000    0.000000    3.947541

--------------------------------
INTERNAL COORDINATES (ANGSTROEM)
--------------------------------
 Fe     0   0   0     0.000000000000     0.00000000     0.00000000
 Cl     1   0   0     2.177897854182     0.00000000     0.00000000

---------------------------
INTERNAL COORDINATES (A.U.)
---------------------------
 Fe     0   0   0     0.000000000000     0.00000000     0.00000000
 Cl     1   0   0     4.115630492058     0.00000000     0.00000000

---------------------
BASIS SET INFORMATION
---------------------
There are 2 groups of distinct atoms

 Group   1 Type Fe  : 116s77p23d3f2g contracted to 8s7p5d3f2g pattern {19191919191911/151515151511/77711/111/11}
 Group   2 Type Cl  : 42s17p3d2f contracted to 6s5p3d2f pattern {131313111/77111/111/11}

Atom   0Fe   basis set group =>   1
Atom   1Cl   basis set group =>   2
----------------------------------
AUXILIARY/JK BASIS SET INFORMATION
----------------------------------
There are 2 groups of distinct atoms

 Group   1 Type Fe  : 19s14p12d10f7g3h1i contracted to 16s13p11d9f5g3h1i pattern {4111111111111111/2111111111111/21111111111/211111111/31111/111/1}
 Group   2 Type Cl  : 16s12p10d4f1g contracted to 13s11p9d4f1g pattern {4111111111111/21111111111/211111111/1111/1}

Atom   0Fe   basis set group =>   1
Atom   1Cl   basis set group =>   2


           ************************************************************
           *        Program running with 24 parallel MPI-processes    *
           *              working on a common directory               *
           ************************************************************
------------------------------------------------------------------------------
                           ORCA GTO INTEGRAL CALCULATION
------------------------------------------------------------------------------

                         BASIS SET STATISTICS AND STARTUP INFO

 # of primitive gaussian shells          ...  285
 # of primitive gaussian functions       ...  623
 # of contracted shells                  ...   41
 # of contracted basis functions         ...  143
 Highest angular momentum                ...    4
 Maximum contraction depth               ...   19
 Integral package used                   ... LIBINT
 Integral threshhold            Thresh   ...  1.000e-10
 Primitive cut-off              TCut     ...  1.000e-11


------------------------------ INTEGRAL EVALUATION ----------------------------


 * One electron integrals 
 Pre-screening matrix                    ... done
 Shell pair data                         ... done (   0.001 sec)



           ************************************************************
           *        Program running with 24 parallel MPI-processes    *
           *              working on a common directory               *
           ************************************************************
-------------------------------------------------------------------------------
                                 ORCA SCF
-------------------------------------------------------------------------------

------------
SCF SETTINGS
------------
Hamiltonian:
 Density Functional     Method          .... DFT(GTOs)
 Exchange Functional    Exchange        .... WB97M-V
 Correlation Functional Correlation     .... WB97M-V
 Gradients option       PostSCFGGA      .... off
 Hybrid DFT is turned on
   Fraction HF Exchange ScalHFX         ....  0.150000
   Scaling of DF-GGA-X  ScalDFX         ....  0.000000
   Scaling of DF-GGA-C  ScalDFC         ....  1.000000
   Scaling of DF-LDA-C  ScalLDAC        ....  1.000000
   Perturbative correction              ....  0.000000
   Density functional embedding theory  .... OFF
 Long-range corrected/Screened/Range-Separated Hybrid DFT is turned on
   Amount of maximum screened exact exchange              ....  0.850000
   Range separation parameter mu (erf(mu*r12)/r12)        ....  0.300000
   NL short-range parameter             ....  6.000000
   NL long-range parameter              ....  0.010000


General Settings:
 Integral files         IntName         .... 33_FeCl
 Hartree-Fock type      HFTyp           .... UHF
 Total Charge           Charge          ....    0
 Multiplicity           Mult            ....    6
 Number of Electrons    NEL             ....   43
 Basis Dimension        Dim             ....  143
 Nuclear Repulsion      ENuc            ....    107.3954527387 Eh

Convergence Acceleration:
 DIIS                   CNVDIIS         .... on
   Start iteration      DIISMaxIt       ....    12
   Startup error        DIISStart       ....  0.200000
   # of expansion vecs  DIISMaxEq       ....     5
   Bias factor          DIISBfac        ....   1.050
   Max. coefficient     DIISMaxC        ....  10.000
 Newton-Raphson         CNVNR           .... off
 SOSCF                  CNVSOSCF        .... off
 Level Shifting         CNVShift        .... on
   Level shift para.    LevelShift      ....    0.2500
   Turn off err/grad.   ShiftErr        ....    0.0010
 Zerner damping         CNVZerner       .... off
 Static damping         CNVDamp         .... on
   Fraction old density DampFac         ....    0.7000
   Max. Damping (<1)    DampMax         ....    0.9800
   Min. Damping (>=0)   DampMin         ....    0.0000
   Turn off err/grad.   DampErr         ....    0.1000
 Fernandez-Rico         CNVRico         .... off

SCF Procedure:
 Maximum # iterations   MaxIter         ....   125
 SCF integral mode      SCFMode         .... Direct
   Integral package                     .... LIBINT
 Reset frequency        DirectResetFreq ....    20
 Integral Threshold     Thresh          ....  1.000e-10 Eh
 Primitive CutOff       TCut            ....  1.000e-11 Eh

Convergence Tolerance:
 Convergence Check Mode ConvCheckMode   .... Total+1el-Energy
 Convergence forced     ConvForced      .... 0
 Energy Change          TolE            ....  1.000e-06 Eh
 1-El. energy change                    ....  1.000e-03 Eh
 DIIS Error             TolErr          ....  1.000e-06


Diagonalization of the overlap matrix:
Smallest eigenvalue                        ... 1.510e-04
Time for diagonalization                   ...    0.005 sec
Threshold for overlap eigenvalues          ... 1.000e-08
Number of eigenvalues below threshold      ... 0
Time for construction of square roots      ...    0.003 sec
Total time needed                          ...    0.008 sec

-------------------
DFT GRID GENERATION
-------------------

General Integration Accuracy     IntAcc      ...  4.670
Radial Grid Type                 RadialGrid  ... Gauss-Chebyshev
Angular Grid (max. acc.)         AngularGrid ... Lebedev-302
Angular grid pruning method      GridPruning ... 3 (G Style)
Weight generation scheme         WeightScheme... Becke
Basis function cutoff            BFCut       ...    1.0000e-10
Integration weight cutoff        WCut        ...    1.0000e-14
Grids for H and He will be reduced by one unit

# of grid points (after initial pruning)     ...  16378 (   0.0 sec)
# of grid points (after weights+screening)   ...  16351 (   0.0 sec)
nearest neighbour list constructed           ...    0.0 sec
Grid point re-assignment to atoms done       ...    0.0 sec
Grid point division into batches done        ...    0.1 sec
Reduced shell lists constructed in    0.1 sec

Total number of grid points                  ...    16351
Total number of batches                      ...      256
Average number of points per batch           ...       63
Average number of grid points per atom       ...     8176
Average number of shells per batch           ...    14.17 (34.55%)
Average number of basis functions per batch  ...    33.83 (23.66%)
Average number of large shells per batch     ...     7.08 (50.00%)
Average number of large basis fcns per batch ...    18.08 (53.45%)
Maximum spatial batch extension              ...  24.49, 24.19, 18.13 au
Average spatial batch extension              ...   0.85,  0.84,  0.66 au

Time for grid setup =    0.160 sec

------------------------------
INITIAL GUESS: MODEL POTENTIAL
------------------------------
Loading Hartree-Fock densities                     ... done
Calculating cut-offs                               ... done
Setting up the integral package                    ... done
Initializing the effective Hamiltonian             ... done
Starting the Coulomb interaction                   ... done (   0.0 sec)
Reading the grid                                   ... done
Mapping shells                                     ... done
Starting the XC term evaluation                    ... done (   0.0 sec)
  promolecular density results
     # of electrons  =     42.999994011
     EX              =    -81.468928064
     EC              =     -1.805784947
     EX+EC           =    -83.274713011
Transforming the Hamiltonian                       ... done (   0.0 sec)
Diagonalizing the Hamiltonian                      ... done (   0.0 sec)
Back transforming the eigenvectors                 ... done (   0.0 sec)
Now organizing SCF variables                       ... done
                      ------------------
                      INITIAL GUESS DONE (   0.3 sec)
                      ------------------
--------------
SCF ITERATIONS
--------------
ITER       Energy         Delta-E        Max-DP      RMS-DP      [F,P]     Damp
               ***  Starting incremental Fock matrix formation  ***
  0  -1723.9980055224   0.000000000000 4.15306544  0.06398272  0.0841416 0.7000
  1  -1723.5294517724   0.468553749971 1.24650733  0.01920928  0.0578128 0.7000
                               ***Turning on DIIS***
  2  -1723.7137347662  -0.184282993772 2.90594743  0.04481259  0.0329761 0.0000
  3  -1724.0167542843  -0.303019518189 0.00288684  0.00007346  0.1003676 0.7000
  4  -1724.0204343239  -0.003680039510 0.01576021  0.00026163  0.0934334 0.0000
  5  -1724.0318924813  -0.011458157468 0.01497778  0.00032088  0.0704621 0.0000
  6  -1724.0398060575  -0.007913576138 0.02760615  0.00049726  0.0526035 0.0000
  7  -1724.0468938536  -0.007087796107 5.97939162  0.11812386  0.0290536 0.0000
  8  -1723.4442267568   0.602667096767 0.05825644  0.00071992  0.2452371 0.7000
  9  -1723.4456515508  -0.001424793974 0.12977901  0.00168454  0.2431970 0.7000
 10  -1723.4467877612  -0.001136210451 0.17648571  0.00206819  0.2412405 0.7000
 11  -1723.4485189345  -0.001731173263 0.50357971  0.00840094  0.2388471 0.7000
 12  -1723.4567495662  -0.008230631679 1.72404048  0.03389797  0.2358239 0.7000
 13  -1723.6762957350  -0.219546168828 4.11772250  0.07932042  0.0493800 0.0000
 14  -1723.8607172631  -0.184421528106 0.01651527  0.00022609  0.3900869 0.7000
 15  -1723.8901826517  -0.029465388549 0.01620060  0.00023771  0.3567883 0.7000
 16  -1723.9189181594  -0.028735507708 0.01397511  0.00021202  0.3220190 0.7000
 17  -1723.9428711734  -0.023953014032 0.01072164  0.00018392  0.2899795 0.7000
 18  -1723.9618273178  -0.018956144390 0.03682137  0.00058729  0.2601029 0.7000
 19  -1723.9973003852  -0.035473067391 0.03360060  0.00052221  0.1699067 0.7000
               *** Restarting incremental Fock matrix formation ***
                                   *** Resetting DIIS ***
 20  -1724.0179674309  -0.020667045700 0.02827528  0.00050433  0.1109288 0.7000
 21  -1724.0300509220  -0.012083491148 0.06395582  0.00107985  0.0237769 0.0000
 22  -1724.0488014604  -0.018750538417 0.01311657  0.00016462  0.0467079 0.0000
 23  -1724.0506128832  -0.001811422754 0.00989608  0.00012630  0.0148924 0.0000
 24  -1724.0509012707  -0.000288387504 0.00692166  0.00008539  0.0043209 0.0000
 25  -1724.0509597607  -0.00005849004948.43345733  0.43675319  0.0015746 0.0000
 26  -1723.4724243809   0.578535379844 0.05174168  0.00048029  0.2406861 0.7000
 27  -1723.4724890525  -0.000064671590 0.30159984  0.00287498  0.2406116 0.7000
 28  -1723.4728943141  -0.000405261625 0.25214141  0.00240159  0.2404907 0.7000
 29  -1723.4725611773   0.000333136798 2.27393222  0.02169469  0.2404901 0.7000
 30  -1723.4748536266  -0.00229244928113.81726346  0.12436778  0.2406763 0.7000
 31  -1723.6914492121  -0.21659558552932.24111358  0.29020866  0.0621621 0.0000
 32  -1723.8397301489  -0.148280936819 0.01745310  0.00024852  0.4068453 0.7000
 33  -1723.8740909329  -0.034360783918 0.01721060  0.00026535  0.3709228 0.7000
 34  -1723.9075409185  -0.033449985643 0.01518776  0.00024297  0.3330306 0.7000
 35  -1723.9353829484  -0.027842029937 0.01309713  0.00022387  0.2976272 0.7000
 36  -1723.9582966320  -0.022913683547 0.04178756  0.00072579  0.2620533 0.7000
 37  -1723.9952072247  -0.036910592751 0.03424666  0.00057675  0.1720821 0.7000
 38  -1724.0167070046  -0.021499779836 0.02693596  0.00043658  0.1125703 0.7000
 39  -1724.0291631604  -0.012456155847 0.06637068  0.00105720  0.0731470 0.0000
               *** Restarting incremental Fock matrix formation ***
                                   *** Resetting DIIS ***
 40  -1724.0508438596  -0.021680699182 0.01214259  0.00015237  0.0142945 0.0000
 41  -1724.0509634901  -0.000119630480 0.00757043  0.00014455  0.0116380 0.0000
 42  -1724.0510270412  -0.000063551065 0.00817689  0.00011319  0.0018482 0.0000
 43  -1724.0510159000   0.000011141194 0.00419010  0.00005674  0.0011019 0.0000
 44  -1724.0509806735   0.000035226502 0.00425746  0.00004214  0.0006634 0.0000
 45  -1724.0509375958   0.000043077644 0.00262377  0.00003617  0.0002286 0.0000
 46  -1724.0509330217   0.000004574143 0.00128245  0.00001916  0.0001773 0.0000
                 **** Energy Check signals convergence ****

               *****************************************************
               *                     SUCCESS                       *
               *           SCF CONVERGED AFTER  47 CYCLES          *
               *****************************************************


Setting up the DFT-NL grid :

General Integration Accuracy     IntAcc      ...  4.340
Radial Grid Type                 RadialGrid  ... Gauss-Chebyshev
Angular Grid (max. acc.)         AngularGrid ... Lebedev-110
Angular grid pruning method      GridPruning ... 3 (G Style)
Weight generation scheme         WeightScheme... Becke
Basis function cutoff            BFCut       ...    1.0000e-10
Integration weight cutoff        WCut        ...    1.0000e-14
Grids for H and He will be reduced by one unit

# of grid points (after initial pruning)     ...   4756 (   0.0 sec)
# of grid points (after weights+screening)   ...   4731 (   0.0 sec)
nearest neighbour list constructed           ...    0.0 sec
Grid point re-assignment to atoms done       ...    0.0 sec
Grid point division into batches done        ...    0.0 sec
Reduced shell lists constructed in    0.0 sec

Total number of grid points                  ...     4731
Total number of batches                      ...       75
Average number of points per batch           ...       63
Average number of grid points per atom       ...     2366
Average number of shells per batch           ...    22.40 (54.63%)
Average number of basis functions per batch  ...    68.80 (48.11%)
Average number of large shells per batch     ...    16.00 (71.43%)
Average number of large basis fcns per batch ...    44.00 (63.95%)
Maximum spatial batch extension              ...  18.98, 28.73, 16.15 au
Average spatial batch extension              ...   0.95,  1.29,  0.86 au

Final grid set up in    0.0 sec

-------------------------------------------------------------------------------
                         DFT-NL dispersion correction                          
-------------------------------------------------------------------------------

SC Energy -1724.050933666 
NL    Energy 0.180267226 
SC+NL Energy -1723.870666440 
NL done in    0.0 sec
-------------------------------------------------------------------------------

----------------
TOTAL SCF ENERGY
----------------

Total Energy       :        -1723.87066644 Eh          -46908.90564 eV

Components:
Nuclear Repulsion  :          107.39545274 Eh            2922.37884 eV
Electronic Energy  :        -1831.26611918 Eh          -49831.28448 eV
One Electron Energy:        -2594.37683008 Eh          -70596.58261 eV
Two Electron Energy:          763.11071090 Eh           20765.29813 eV

Virial components:
Potential Energy   :        -3445.30775749 Eh          -93751.59032 eV
Kinetic Energy     :         1721.43709105 Eh           46842.68468 eV
Virial Ratio       :            2.00141369


DFT components:
N(Alpha)           :       24.000004255509 electrons
N(Beta)            :       19.000004842768 electrons
N(Total)           :       43.000009098277 electrons
E(X)               :      -63.734903054079 Eh       
E(C)               :       -2.052385212128 Eh       
NL Energy, E(C,NL) :        0.180267225698 Eh       
E(XC)              :      -65.607021040509 Eh       
DFET-embed. en.    :        0.000000000000 Eh       

---------------
SCF CONVERGENCE
---------------

  Last Energy change         ...   -6.4437e-07  Tolerance :   1.0000e-06
  Last MAX-Density change    ...    2.6420e-03  Tolerance :   1.0000e-05
  Last RMS-Density change    ...    3.1708e-05  Tolerance :   1.0000e-06
  Last DIIS Error            ...    3.4371e-04  Tolerance :   1.0000e-06

             **** THE GBW FILE WAS UPDATED (33_FeCl.gbw) ****
             **** DENSITY FILE WAS UPDATED (33_FeCl.scfp) ****
             **** ENERGY FILE WAS UPDATED (33_FeCl.en.tmp) ****
----------------------
UHF SPIN CONTAMINATION
----------------------

Warning: in a DFT calculation there is little theoretical justification to 
         calculate <S**2> as in Hartree-Fock theory. We will do it anyways
         but you should keep in mind that the values have only limited relevance

Expectation value of <S**2>     :     8.758759
Ideal value S*(S+1) for S=2.5   :     8.750000
Deviation                       :     0.008759

             **** THE GBW FILE WAS UPDATED (33_FeCl.gbw) ****
             **** DENSITY FILE WAS UPDATED (33_FeCl.scfp) ****
----------------
ORBITAL ENERGIES
----------------
                 SPIN UP ORBITALS
  NO   OCC          E(Eh)            E(eV) 
   0   1.0000    -256.659585     -6984.0624 
   1   1.0000    -101.868822     -2771.9916 
   2   1.0000     -30.390711      -826.9733 
   3   1.0000     -26.171083      -712.1514 
   4   1.0000     -26.142681      -711.3785 
   5   1.0000     -26.142637      -711.3773 
   6   1.0000      -9.626918      -261.9618 
   7   1.0000      -7.328326      -199.4139 
   8   1.0000      -7.325916      -199.3483 
   9   1.0000      -7.325915      -199.3483 
  10   1.0000      -3.780466      -102.8717 
  11   1.0000      -2.568775       -69.8999 
  12   1.0000      -2.516311       -68.4723 
  13   1.0000      -2.516220       -68.4698 
  14   1.0000      -0.917865       -24.9764 
  15   1.0000      -0.574476       -15.6323 
  16   1.0000      -0.558588       -15.2000 
  17   1.0000      -0.558550       -15.1989 
  18   1.0000      -0.529881       -14.4188 
  19   1.0000      -0.503474       -13.7002 
  20   1.0000      -0.450087       -12.2475 
  21   1.0000      -0.412536       -11.2257 
  22   1.0000      -0.412530       -11.2255 
  23   1.0000      -0.288904        -7.8615 
  24   0.0000       0.002545         0.0693 
  25   0.0000       0.002550         0.0694 
  26   0.0000       0.010652         0.2898 
  27   0.0000       0.015905         0.4328 
  28   0.0000       0.046565         1.2671 
  29   0.0000       0.046571         1.2672 
  30   0.0000       0.072437         1.9711 
  31   0.0000       0.072966         1.9855 
  32   0.0000       0.073847         2.0095 
  33   0.0000       0.085881         2.3369 
  34   0.0000       0.085883         2.3370 
  35   0.0000       0.086337         2.3493 
  36   0.0000       0.127206         3.4615 
  37   0.0000       0.140553         3.8246 
  38   0.0000       0.140553         3.8246 
  39   0.0000       0.141735         3.8568 
  40   0.0000       0.198493         5.4013 
  41   0.0000       0.198503         5.4015 
  42   0.0000       0.239485         6.5167 
  43   0.0000       0.288364         7.8468 
  44   0.0000       0.288598         7.8532 
  45   0.0000       0.288827         7.8594 
  46   0.0000       0.309032         8.4092 
  47   0.0000       0.309040         8.4094 
  48   0.0000       0.346959         9.4412 
  49   0.0000       0.347579         9.4581 
  50   0.0000       0.383563        10.4373 
  51   0.0000       0.429511        11.6876 
  52   0.0000       0.429515        11.6877 
  53   0.0000       0.454828        12.3765 
  54   0.0000       0.548989        14.9387 
  55   0.0000       0.640047        17.4166 
  56   0.0000       0.640051        17.4167 
  57   0.0000       0.736480        20.0406 
  58   0.0000       0.762597        20.7513 
  59   0.0000       0.762621        20.7520 
  60   0.0000       0.826759        22.4973 
  61   0.0000       0.826830        22.4992 
  62   0.0000       0.847254        23.0550 
  63   0.0000       0.847266        23.0553 
  64   0.0000       0.849706        23.1217 
  65   0.0000       0.862741        23.4764 
  66   0.0000       0.862742        23.4764 
  67   0.0000       0.872682        23.7469 
  68   0.0000       0.872961        23.7545 
  69   0.0000       0.938467        25.5370 
  70   0.0000       1.054143        28.6847 
  71   0.0000       1.054167        28.6853 
  72   0.0000       1.074631        29.2422 
  73   0.0000       1.101240        29.9663 
  74   0.0000       1.101240        29.9663 
  75   0.0000       1.111827        30.2543 
  76   0.0000       1.111841        30.2547 
  77   0.0000       1.114238        30.3200 
  78   0.0000       1.121157        30.5082 
  79   0.0000       1.148440        31.2507 
  80   0.0000       1.271861        34.6091 
  81   0.0000       1.272372        34.6230 
  82   0.0000       1.434605        39.0376 
  83   0.0000       1.623850        44.1872 
  84   0.0000       1.623865        44.1876 
  85   0.0000       1.934197        52.6322 
  86   0.0000       2.290064        62.3158 
  87   0.0000       2.290141        62.3179 
  88   0.0000       2.383489        64.8580 
  89   0.0000       2.383496        64.8582 
  90   0.0000       2.463850        67.0448 
  91   0.0000       2.471728        67.2591 
  92   0.0000       2.471732        67.2593 
  93   0.0000       2.638378        71.7939 
  94   0.0000       2.674764        72.7840 
  95   0.0000       2.674765        72.7841 
  96   0.0000       2.695177        73.3395 
  97   0.0000       2.706980        73.6607 
  98   0.0000       2.767357        75.3036 
  99   0.0000       2.767387        75.3044 
 100   0.0000       2.819747        76.7292 
 101   0.0000       2.819747        76.7292 
 102   0.0000       2.870549        78.1116 
 103   0.0000       2.871167        78.1284 
 104   0.0000       2.875146        78.2367 
 105   0.0000       2.905302        79.0573 
 106   0.0000       2.929690        79.7209 
 107   0.0000       2.929702        79.7212 
 108   0.0000       3.027759        82.3895 
 109   0.0000       3.027817        82.3911 
 110   0.0000       3.087939        84.0271 
 111   0.0000       3.336002        90.7772 
 112   0.0000       3.336818        90.7994 
 113   0.0000       3.338856        90.8549 
 114   0.0000       3.338877        90.8554 
 115   0.0000       3.370441        91.7143 
 116   0.0000       3.393533        92.3427 
 117   0.0000       3.400472        92.5315 
 118   0.0000       3.613603        98.3311 
 119   0.0000       3.613630        98.3319 
 120   0.0000       3.919379       106.6517 
 121   0.0000       4.513834       122.8277 
 122   0.0000       4.540809       123.5617 
 123   0.0000       4.713768       128.2682 
 124   0.0000       4.713811       128.2693 
 125   0.0000       5.521031       150.2349 
 126   0.0000       6.158983       167.5945 
 127   0.0000       8.925338       242.8708 
 128   0.0000       8.945073       243.4078 
 129   0.0000       8.945744       243.4261 
 130   0.0000       8.947031       243.4611 
 131   0.0000       8.970338       244.0953 
 132   0.0000       8.970399       244.0970 
 133   0.0000       9.030443       245.7308 
 134   0.0000       9.665631       263.0152 
 135   0.0000       9.665659       263.0160 
 136   0.0000       9.670876       263.1579 
 137   0.0000       9.686469       263.5822 
 138   0.0000       9.687346       263.6061 
 139   0.0000       9.689588       263.6671 
 140   0.0000       9.769069       265.8299 
 141   0.0000       9.769118       265.8312 
 142   0.0000       9.882259       268.9099 

                 SPIN DOWN ORBITALS
  NO   OCC          E(Eh)            E(eV) 
   0   1.0000    -256.656463     -6983.9774 
   1   1.0000    -101.867211     -2771.9477 
   2   1.0000     -30.300352      -824.5145 
   3   1.0000     -26.087812      -709.8855 
   4   1.0000     -26.076807      -709.5860 
   5   1.0000     -26.076791      -709.5856 
   6   1.0000      -9.625353      -261.9192 
   7   1.0000      -7.325209      -199.3291 
   8   1.0000      -7.323733      -199.2889 
   9   1.0000      -7.323733      -199.2889 
  10   1.0000      -3.596182       -97.8571 
  11   1.0000      -2.332435       -63.4688 
  12   1.0000      -2.332419       -63.4683 
  13   1.0000      -2.331210       -63.4355 
  14   1.0000      -0.907389       -24.6913 
  15   1.0000      -0.461779       -12.5656 
  16   1.0000      -0.418095       -11.3770 
  17   1.0000      -0.418068       -11.3762 
  18   1.0000      -0.407981       -11.1017 
  19   0.0000      -0.233310        -6.3487 
  20   0.0000      -0.168797        -4.5932 
  21   0.0000      -0.156499        -4.2586 
  22   0.0000      -0.114485        -3.1153 
  23   0.0000      -0.088165        -2.3991 
  24   0.0000      -0.043794        -1.1917 
  25   0.0000      -0.032888        -0.8949 
  26   0.0000      -0.027153        -0.7389 
  27   0.0000      -0.022616        -0.6154 
  28   0.0000      -0.006635        -0.1805 
  29   0.0000      -0.005067        -0.1379 
  30   0.0000       0.000493         0.0134 
  31   0.0000       0.005654         0.1539 
  32   0.0000       0.006790         0.1848 
  33   0.0000       0.010459         0.2846 
  34   0.0000       0.012612         0.3432 
  35   0.0000       0.021686         0.5901 
  36   0.0000       0.081384         2.2146 
  37   0.0000       0.116431         3.1683 
  38   0.0000       0.123575         3.3626 
  39   0.0000       0.124207         3.3798 
  40   0.0000       0.154304         4.1988 
  41   0.0000       0.155005         4.2179 
  42   0.0000       0.212373         5.7790 
  43   0.0000       0.249268         6.7829 
  44   0.0000       0.261291         7.1101 
  45   0.0000       0.263844         7.1796 
  46   0.0000       0.265046         7.2123 
  47   0.0000       0.269172         7.3246 
  48   0.0000       0.321487         8.7481 
  49   0.0000       0.328878         8.9492 
  50   0.0000       0.349151         9.5009 
  51   0.0000       0.408154        11.1064 
  52   0.0000       0.408177        11.1070 
  53   0.0000       0.430774        11.7220 
  54   0.0000       0.517488        14.0816 
  55   0.0000       0.630083        17.1454 
  56   0.0000       0.630158        17.1475 
  57   0.0000       0.739009        20.1094 
  58   0.0000       0.756567        20.5872 
  59   0.0000       0.756803        20.5937 
  60   0.0000       0.827492        22.5172 
  61   0.0000       0.828422        22.5425 
  62   0.0000       0.841623        22.9017 
  63   0.0000       0.843958        22.9653 
  64   0.0000       0.843968        22.9655 
  65   0.0000       0.846542        23.0356 
  66   0.0000       0.846575        23.0365 
  67   0.0000       0.867687        23.6110 
  68   0.0000       0.877568        23.8798 
  69   0.0000       0.960935        26.1484 
  70   0.0000       1.080449        29.4005 
  71   0.0000       1.080886        29.4124 
  72   0.0000       1.082923        29.4678 
  73   0.0000       1.100906        29.9572 
  74   0.0000       1.100912        29.9573 
  75   0.0000       1.121365        30.5139 
  76   0.0000       1.121387        30.5145 
  77   0.0000       1.137746        30.9596 
  78   0.0000       1.146629        31.2014 
  79   0.0000       1.149229        31.2721 
  80   0.0000       1.272098        34.6156 
  81   0.0000       1.277444        34.7610 
  82   0.0000       1.456302        39.6280 
  83   0.0000       1.641505        44.6676 
  84   0.0000       1.641527        44.6682 
  85   0.0000       1.954473        53.1839 
  86   0.0000       2.295652        62.4679 
  87   0.0000       2.296113        62.4804 
  88   0.0000       2.392281        65.0973 
  89   0.0000       2.392308        65.0980 
  90   0.0000       2.474471        67.3338 
  91   0.0000       2.478514        67.4438 
  92   0.0000       2.478537        67.4444 
  93   0.0000       2.694852        73.3306 
  94   0.0000       2.740335        74.5683 
  95   0.0000       2.740351        74.5688 
  96   0.0000       2.773786        75.4786 
  97   0.0000       2.782279        75.7097 
  98   0.0000       2.826148        76.9034 
  99   0.0000       2.826161        76.9037 
 100   0.0000       2.828074        76.9558 
 101   0.0000       2.828074        76.9558 
 102   0.0000       2.880763        78.3895 
 103   0.0000       2.881769        78.4169 
 104   0.0000       2.890348        78.6504 
 105   0.0000       2.957421        80.4755 
 106   0.0000       2.957476        80.4770 
 107   0.0000       3.010155        81.9105 
 108   0.0000       3.119323        84.8811 
 109   0.0000       3.119381        84.8827 
 110   0.0000       3.164229        86.1030 
 111   0.0000       3.350519        91.1723 
 112   0.0000       3.367234        91.6271 
 113   0.0000       3.367255        91.6277 
 114   0.0000       3.370986        91.7292 
 115   0.0000       3.420190        93.0681 
 116   0.0000       3.421880        93.1141 
 117   0.0000       3.431005        93.3624 
 118   0.0000       3.647735        99.2599 
 119   0.0000       3.647737        99.2600 
 120   0.0000       3.990381       108.5838 
 121   0.0000       4.631072       126.0179 
 122   0.0000       4.684509       127.4720 
 123   0.0000       4.869214       132.4981 
 124   0.0000       4.869223       132.4983 
 125   0.0000       5.607864       152.5977 
 126   0.0000       6.200023       168.7112 
 127   0.0000       9.107315       247.8226 
 128   0.0000       9.107316       247.8227 
 129   0.0000       9.114763       248.0253 
 130   0.0000       9.144908       248.8456 
 131   0.0000       9.171213       249.5614 
 132   0.0000       9.171238       249.5621 
 133   0.0000       9.231398       251.1991 
 134   0.0000       9.799226       266.6505 
 135   0.0000       9.799754       266.6649 
 136   0.0000       9.799794       266.6660 
 137   0.0000       9.805775       266.8287 
 138   0.0000       9.814753       267.0730 
 139   0.0000       9.830116       267.4910 
 140   0.0000       9.912967       269.7455 
 141   0.0000       9.912989       269.7461 
 142   0.0000      10.026141       272.8252 

                    ********************************
                    * MULLIKEN POPULATION ANALYSIS *
                    ********************************

--------------------------------------------
MULLIKEN ATOMIC CHARGES AND SPIN POPULATIONS
--------------------------------------------
   0 Fe:    0.398545    4.796808
   1 Cl:   -0.398545    0.203192
Sum of atomic charges         :   -0.0000000
Sum of atomic spin populations:    5.0000000

-----------------------------------------------------
MULLIKEN REDUCED ORBITAL CHARGES AND SPIN POPULATIONS
-----------------------------------------------------
CHARGE
  0 Fes       :     6.988426  s :     6.988426
      pz      :     4.325909  p :    12.414841
      px      :     4.044464
      py      :     4.044468
      dz2     :     1.079048  d :     6.180097
      dxz     :     1.051079
      dyz     :     1.050996
      dx2y2   :     0.999886
      dxy     :     1.999088
      f0      :     0.006208  f :     0.017503
      f+1     :     0.005600
      f-1     :     0.005600
      f+2     :     0.000004
      f-2     :     0.000004
      f+3     :     0.000044
      f-3     :     0.000044
      g0      :     0.000227  g :     0.000589
      g+1     :     0.000169
      g-1     :     0.000169
      g+2     :     0.000003
      g-2     :     0.000008
      g+3     :     0.000001
      g-3     :     0.000001
      g+4     :     0.000012
      g-4     :     0.000000
  1 Cls       :     5.923757  s :     5.923757
      pz      :     3.667330  p :    11.447915
      px      :     3.890299
      py      :     3.890286
      dz2     :     0.008810  d :     0.024144
      dxz     :     0.007500
      dyz     :     0.007501
      dx2y2   :     0.000205
      dxy     :     0.000128
      f0      :     0.000273  f :     0.002729
      f+1     :     0.001011
      f-1     :     0.001011
      f+2     :     0.000158
      f-2     :     0.000277
      f+3     :     0.000000
      f-3     :     0.000000

SPIN
  0 Fes       :     0.766162  s :     0.766162
      pz      :     0.219730  p :     0.212640
      px      :    -0.003543
      py      :    -0.003547
      dz2     :     0.916832  d :     3.817444
      dxz     :     0.950532
      dyz     :     0.950615
      dx2y2   :     0.999377
      dxy     :     0.000088
      f0      :     0.000773  f :     0.000524
      f+1     :    -0.000092
      f-1     :    -0.000092
      f+2     :     0.000003
      f-2     :     0.000002
      f+3     :    -0.000035
      f-3     :    -0.000035
      g0      :     0.000015  g :     0.000039
      g+1     :     0.000006
      g-1     :     0.000006
      g+2     :     0.000003
      g-2     :     0.000008
      g+3     :     0.000001
      g-3     :     0.000001
      g+4     :    -0.000002
      g-4     :    -0.000000
  1 Cls       :     0.003678  s :     0.003678
      pz      :     0.090601  p :     0.196698
      px      :     0.053042
      py      :     0.053054
      dz2     :     0.002011  d :     0.002153
      dxz     :    -0.000200
      dyz     :    -0.000201
      dx2y2   :     0.000205
      dxy     :     0.000338
      f0      :     0.000198  f :     0.000663
      f+1     :     0.000124
      f-1     :     0.000123
      f+2     :     0.000158
      f-2     :     0.000061
      f+3     :    -0.000000
      f-3     :    -0.000000


                     *******************************
                     * LOEWDIN POPULATION ANALYSIS *
                     *******************************

-------------------------------------------
LOEWDIN ATOMIC CHARGES AND SPIN POPULATIONS
-------------------------------------------
   0 Fe:    0.072711    4.716389
   1 Cl:   -0.072711    0.283611

----------------------------------------------------
LOEWDIN REDUCED ORBITAL CHARGES AND SPIN POPULATIONS
----------------------------------------------------
CHARGE
  0 Fes       :     6.772840  s :     6.772840
      pz      :     4.490339  p :    12.627870
      px      :     4.068766
      py      :     4.068765
      dz2     :     1.198714  d :     6.401110
      dxz     :     1.105408
      dyz     :     1.105326
      dx2y2   :     0.998052
      dxy     :     1.993610
      f0      :     0.051016  f :     0.121600
      f+1     :     0.035194
      f-1     :     0.035194
      f+2     :     0.000038
      f-2     :     0.000070
      f+3     :     0.000044
      f-3     :     0.000044
      g0      :     0.001964  g :     0.003869
      g+1     :     0.000940
      g-1     :     0.000940
      g+2     :     0.000003
      g-2     :     0.000008
      g+3     :     0.000001
      g-3     :     0.000001
      g+4     :     0.000012
      g-4     :     0.000000
  1 Cls       :     5.641090  s :     5.641090
      pz      :     3.702537  p :    11.205987
      px      :     3.751728
      py      :     3.751722
      dz2     :     0.102335  d :     0.150250
      dxz     :     0.022195
      dyz     :     0.022193
      dx2y2   :     0.000898
      dxy     :     0.002629
      f0      :     0.039152  f :     0.075384
      f+1     :     0.015891
      f-1     :     0.015889
      f+2     :     0.001264
      f-2     :     0.003187
      f+3     :     0.000000
      f-3     :     0.000000

SPIN
  0 Fes       :     0.638489  s :     0.638489
      pz      :     0.295206  p :     0.304149
      px      :     0.004470
      py      :     0.004472
      dz2     :     0.902906  d :     3.764119
      dxz     :     0.931037
      dyz     :     0.931119
      dx2y2   :     0.997545
      dxy     :     0.001512
      f0      :     0.003810  f :     0.009257
      f+1     :     0.002735
      f-1     :     0.002736
      f+2     :     0.000038
      f-2     :     0.000008
      f+3     :    -0.000035
      f-3     :    -0.000035
      g0      :     0.000190  g :     0.000375
      g+1     :     0.000089
      g-1     :     0.000089
      g+2     :     0.000003
      g-2     :     0.000005
      g+3     :     0.000001
      g-3     :     0.000001
      g+4     :    -0.000002
      g-4     :    -0.000000
  1 Cls       :     0.024896  s :     0.024896
      pz      :     0.112424  p :     0.197069
      px      :     0.042320
      py      :     0.042325
      dz2     :     0.017889  d :     0.036792
      dxz     :     0.009293
      dyz     :     0.009294
      dx2y2   :     0.000897
      dxy     :    -0.000581
      f0      :     0.004191  f :     0.024854
      f+1     :     0.009924
      f-1     :     0.009925
      f+2     :     0.001264
      f-2     :    -0.000449
      f+3     :    -0.000000
      f-3     :    -0.000000


                      *****************************
                      * MAYER POPULATION ANALYSIS *
                      *****************************

  NA   - Mulliken gross atomic population
  ZA   - Total nuclear charge
  QA   - Mulliken gross atomic charge
  VA   - Mayer's total valence
  BVA  - Mayer's bonded valence
  FA   - Mayer's free valence

  ATOM       NA         ZA         QA         VA         BVA        FA
  0 Fe    25.6015    26.0000     0.3985     5.6954     1.0115     4.6839
  1 Cl    17.3985    17.0000    -0.3985     1.0232     1.0115     0.0117

  Mayer bond orders larger than 0.100000
B(  0-Fe,  1-Cl) :   1.0115 

-------
TIMINGS
-------

Total SCF time: 0 days 0 hours 14 min 10 sec 

Total time                  ....     850.371 sec
Sum of individual times     ....     849.955 sec  (100.0%)

Fock matrix formation       ....     849.294 sec  ( 99.9%)
  XC integration            ....       1.794 sec  (  0.2% of F)
    Basis function eval.    ....       0.239 sec  ( 13.3% of XC)
    Density eval.           ....       0.274 sec  ( 15.3% of XC)
    XC-Functional eval.     ....       0.058 sec  (  3.3% of XC)
    XC-Potential eval.      ....       0.758 sec  ( 42.3% of XC)
Diagonalization             ....       0.251 sec  (  0.0%)
Density matrix formation    ....       0.031 sec  (  0.0%)
Population analysis         ....       0.007 sec  (  0.0%)
Initial guess               ....       0.101 sec  (  0.0%)
Orbital Transformation      ....       0.000 sec  (  0.0%)
Orbital Orthonormalization  ....       0.000 sec  (  0.0%)
DIIS solution               ....       0.094 sec  (  0.0%)
Grid generation             ....       0.176 sec  (  0.0%)

-------------------------   --------------------
FINAL SINGLE POINT ENERGY     -1723.870666440344
-------------------------   --------------------


                            ***************************************
                            *     ORCA property calculations      *
                            ***************************************

                                    ---------------------
                                    Active property flags
                                    ---------------------
   (+) Dipole Moment


------------------------------------------------------------------------------
                       ORCA ELECTRIC PROPERTIES CALCULATION
------------------------------------------------------------------------------

Dipole Moment Calculation                       ... on
Quadrupole Moment Calculation                   ... off
Polarizability Calculation                      ... off
GBWName                                         ... 33_FeCl.gbw
Electron density file                           ... 33_FeCl.scfp
The origin for moment calculation is the CENTER OF MASS  = ( 0.000000,  0.000000  1.430012)

-------------
DIPOLE MOMENT
-------------
                                X             Y             Z
Electronic contribution:     -0.00029       0.00043      -2.07054
Nuclear contribution   :      0.00000       0.00000       1.24736
                        -----------------------------------------
Total Dipole Moment    :     -0.00029       0.00043      -0.82318
                        -----------------------------------------
Magnitude (a.u.)       :      0.82318
Magnitude (Debye)      :      2.09236



--------------------
Rotational spectrum 
--------------------
 
Rotational constants in cm-1:     0.000000     0.163882     0.163882 
Rotational constants in MHz :     0.000000  4913.053230  4913.053230 

 Dipole components along the rotational axes: 
x,y,z [a.u.] :    -0.823181     0.000425    -0.000290 
x,y,z [Debye]:    -2.092359     0.001081    -0.000738 

 

Timings for individual modules:

Sum of individual times         ...      854.288 sec (=  14.238 min)
GTO integral calculation        ...        3.382 sec (=   0.056 min)   0.4 %
SCF iterations                  ...      850.906 sec (=  14.182 min)  99.6 %
                             ****ORCA TERMINATED NORMALLY****
TOTAL RUN TIME: 0 days 0 hours 14 minutes 14 seconds 907 msec
