
                                 *****************
                                 * O   R   C   A *
                                 *****************

           --- An Ab Initio, DFT and Semiempirical electronic structure package ---

                  #######################################################
                  #                        -***-                        #
                  #          Department of theory and spectroscopy      #
                  #               Directorship: Frank Neese             #
                  #        Max Planck Institute fuer Kohlenforschung    #
                  #                Kaiser Wilhelm Platz 1               #
                  #                 D-45470 Muelheim/Ruhr               #
                  #                      Germany                        #
                  #                                                     #
                  #                  All rights reserved                #
                  #                        -***-                        #
                  #######################################################


                         Program Version 4.2.0 -  RELEASE  -


 With contributions from (in alphabetic order):
   Daniel Aravena         : Magnetic Suceptibility
   Michael Atanasov       : Ab Initio Ligand Field Theory (pilot matlab implementation)
   Alexander A. Auer      : GIAO ZORA, VPT2
   Ute Becker             : Parallelization
   Giovanni Bistoni       : ED, misc. LED, open-shell LED, HFLED
   Martin Brehm           : Molecular dynamics
   Dmytro Bykov           : SCF Hessian
   Vijay G. Chilkuri      : MRCI spin determinant printing, contributions to CSF-ICE
   Dipayan Datta          : RHF DLPNO-CCSD density
   Achintya Kumar Dutta   : EOM-CC, STEOM-CC
   Dmitry Ganyushin       : Spin-Orbit,Spin-Spin,Magnetic field MRCI
   Miquel Garcia          : C-PCM Hessian, Gaussian charge scheme
   Yang Guo               : DLPNO-NEVPT2, CIM, IAO-localization
   Andreas Hansen         : Spin unrestricted coupled pair/coupled cluster methods
   Benjamin Helmich-Paris : CASSCF linear response (MC-RPA)
   Lee Huntington         : MR-EOM, pCC
   Robert Izsak           : Overlap fitted RIJCOSX, COSX-SCS-MP3, EOM
   Christian Kollmar      : KDIIS, OOCD, Brueckner-CCSD(T), CCSD density
   Simone Kossmann        : Meta GGA functionals, TD-DFT gradient, OOMP2, MP2 Hessian
   Martin Krupicka        : AUTO-CI
   Lucas Lang             : DCDCAS
   Dagmar Lenk            : GEPOL surface, SMD
   Dimitrios Liakos       : Extrapolation schemes; Compound Job, initial MDCI parallelization
   Dimitrios Manganas     : Further ROCIS development; embedding schemes
   Dimitrios Pantazis     : SARC Basis sets
   Taras Petrenko         : DFT Hessian,TD-DFT gradient, ASA, ECA, R-Raman, ABS, FL, XAS/XES, NRVS
   Peter Pinski           : DLPNO-MP2, DLPNO-MP2 Gradient
   Christoph Reimann      : Effective Core Potentials
   Marius Retegan         : Local ZFS, SOC
   Christoph Riplinger    : Optimizer, TS searches, QM/MM, DLPNO-CCSD(T), (RO)-DLPNO pert. Triples
   Tobias Risthaus        : Range-separated hybrids, TD-DFT gradient, RPA, STAB
   Michael Roemelt        : Original ROCIS implementation
   Masaaki Saitow         : Open-shell DLPNO-CCSD energy and density
   Barbara Sandhoefer     : DKH picture change effects
   Avijit Sen             : IP-ROCIS
   Kantharuban Sivalingam : CASSCF convergence, NEVPT2, FIC-MRCI
   Bernardo de Souza      : ESD, SOC TD-DFT
   Georgi Stoychev        : AutoAux, RI-MP2 NMR
   Willem Van den Heuvel  : Paramagnetic NMR
   Boris Wezisla          : Elementary symmetry handling
   Frank Wennmohs         : Technical directorship


 We gratefully acknowledge several colleagues who have allowed us to
 interface, adapt or use parts of their codes:
   Stefan Grimme, W. Hujo, H. Kruse,             : VdW corrections, initial TS optimization,
                  C. Bannwarth                     DFT functionals, gCP, sTDA/sTD-DF
   Ed Valeev, F. Pavosevic, A. Kumar             : LibInt (2-el integral package), F12 methods
   Garnet Chan, S. Sharma, J. Yang, R. Olivares  : DMRG
   Ulf Ekstrom                                   : XCFun DFT Library
   Mihaly Kallay                                 : mrcc  (arbitrary order and MRCC methods)
   Andreas Klamt, Michael Diedenhofen            : otool_cosmo (COSMO solvation model)
   Jiri Pittner, Ondrej Demel                    : Mk-CCSD
   Frank Weinhold                                : gennbo (NPA and NBO analysis)
   Christopher J. Cramer and Donald G. Truhlar   : smd solvation model
   Lars Goerigk                                  : TD-DFT with DH, B97 family of functionals
   V. Asgeirsson, H. Jonsson                     : NEB implementation
   FAccTs GmbH                                   : IRC, NEB, NEB-TS, Multilevel, MM, QM/MM, CI optimization
   S Lehtola, MJT Oliveira, MAL Marques          : LibXC Library


 Your calculation uses the libint2 library for the computation of 2-el integrals
 For citations please refer to: http://libint.valeyev.net

 Your ORCA version has been built with support for libXC version: 4.2.3
 For citations please refer to: https://tddft.org/programs/libxc/

 This ORCA versions uses:
   CBLAS   interface :  Fast vector & matrix operations
   LAPACKE interface :  Fast linear algebra routines
   SCALAPACK package :  Parallel linear algebra routines


Your calculation utilizes the DFT-NL dispersion correction.
Cite in your paper:
Vydrov, O. A.; Van Voorhis, T. J. Chem. Phys. 2010, 133, 244103
Hujo, W.; Grimme, S. J. Chem. Theory Comput. 2011, 7, 3866 
   

----- Orbital basis set information -----
Your calculation utilizes the basis: aug-cc-pVTZ 
    H, B-Ne : Obtained from the ccRepo (grant-hill.group.shef.ac.uk/ccrepo) Feb. 2017
              R. A. Kendall, T. H. Dunning, Jr., R. J. Harrison, J. Chem. Phys. 96, 6796 (1992)
         He : Obtained from the ccRepo (grant-hill.group.shef.ac.uk/ccrepo) Feb. 2017
              D. E. Woon, T. H. Dunning, Jr., J. Chem. Phys. 100, 2975 (1994)
  Li-Be, Na : Obtained from the ccRepo (grant-hill.group.shef.ac.uk/ccrepo) Feb. 2017
              B. P. Prascher, D. E. Woon, K. A. Peterson, T. H. Dunning, Jr., A. K. Wilson, Theor. Chem. Acc. 128, 69 (2011)
         Mg : Obtained from the Peterson Research Group Website (tyr0.chem.wsu.edu/~kipeters) Feb. 2017
              B. P. Prascher, D. E. Woon, K. A. Peterson, T. H. Dunning, Jr., A. K. Wilson, Theor. Chem. Acc. 128, 69 (2011)
      Al-Ar : Obtained from the ccRepo (grant-hill.group.shef.ac.uk/ccrepo) Feb. 2017
              D. E. Woon, T. H. Dunning, Jr., J. Chem. Phys. 98, 1358 (1993)
      Sc-Zn : Obtained from the ccRepo (grant-hill.group.shef.ac.uk/ccrepo) Feb. 2017
              N. B. Balabanov, K. A. Peterson, J. Chem. Phys. 123, 064107 (2005)
              N. B. Balabanov, K. A. Peterson, J. Chem. Phys. 125, 074110 (2006)
      Ga-Kr : Obtained from the ccRepo (grant-hill.group.shef.ac.uk/ccrepo) Feb. 2017
              A. K. Wilson, D. E. Woon, K. A. Peterson, T. H. Dunning, Jr., J. Chem. Phys. 110, 7667 (1999)
     Ag, Au : Obtained from the Peterson Research Group Website (tyr0.chem.wsu.edu/~kipeters) Feb. 2017
              K. A. Peterson, C. Puzzarini, Theor. Chem. Acc. 114, 283 (2005)

----- AuxJK basis set information -----
Your calculation utilizes the auxiliary basis: def2/JK
   H-Ba, Hf-Rn: F. Weigend, J. Comput. Chem. 29, 167 (2008).

================================================================================
                                        WARNINGS
                       Please study these warnings very carefully!
================================================================================


WARNING: your system is open-shell and RHF/RKS was chosen
  ===> : WILL SWITCH to UHF/UKS


INFO   : the flag for use of LIBINT has been found!

================================================================================
                                       INPUT FILE
================================================================================
NAME = 34_FeBr.in
|  1> #
|  2> # 34_FeBr wb97m-v/aug-cc-pvtz
|  3> #
|  4> ! wb97m-v aug-cc-pvtz def2/jk grid4 nofinalgrid
|  5> 
|  6> *xyz 0 6
|  7>   Fe  0.00000000000000      0.00000000000000     -0.16252996889250
|  8>   Br  0.00000000000000      0.00000000000000      2.16252996889250
|  9> *
| 10> 
| 11> %pal
| 12> nprocs 24
| 13> end
| 14> 
| 15> 
| 16>                          ****END OF INPUT****
================================================================================

                       ****************************
                       * Single Point Calculation *
                       ****************************

---------------------------------
CARTESIAN COORDINATES (ANGSTROEM)
---------------------------------
  Fe     0.000000    0.000000   -0.162530
  Br     0.000000    0.000000    2.162530

----------------------------
CARTESIAN COORDINATES (A.U.)
----------------------------
  NO LB      ZA    FRAG     MASS         X           Y           Z
   0 Fe   26.0000    0    55.850    0.000000    0.000000   -0.307137
   1 Br   35.0000    0    79.900    0.000000    0.000000    4.086589

--------------------------------
INTERNAL COORDINATES (ANGSTROEM)
--------------------------------
 Fe     0   0   0     0.000000000000     0.00000000     0.00000000
 Br     1   0   0     2.325059937785     0.00000000     0.00000000

---------------------------
INTERNAL COORDINATES (A.U.)
---------------------------
 Fe     0   0   0     0.000000000000     0.00000000     0.00000000
 Br     1   0   0     4.393726527366     0.00000000     0.00000000

---------------------
BASIS SET INFORMATION
---------------------
There are 2 groups of distinct atoms

 Group   1 Type Fe  : 116s77p23d3f2g contracted to 8s7p5d3f2g pattern {19191919191911/151515151511/77711/111/11}
 Group   2 Type Br  : 75s36p10d2f contracted to 7s6p4d2f pattern {18181818111/111111111/7111/11}

Atom   0Fe   basis set group =>   1
Atom   1Br   basis set group =>   2
----------------------------------
AUXILIARY/JK BASIS SET INFORMATION
----------------------------------
There are 2 groups of distinct atoms

 Group   1 Type Fe  : 19s14p12d10f7g3h1i contracted to 16s13p11d9f5g3h1i pattern {4111111111111111/2111111111111/21111111111/211111111/31111/111/1}
 Group   2 Type Br  : 20s14p13d10f7g3h contracted to 17s13p12d9f6g3h pattern {41111111111111111/2111111111111/211111111111/211111111/211111/111}

Atom   0Fe   basis set group =>   1
Atom   1Br   basis set group =>   2


           ************************************************************
           *        Program running with 24 parallel MPI-processes    *
           *              working on a common directory               *
           ************************************************************
------------------------------------------------------------------------------
                           ORCA GTO INTEGRAL CALCULATION
------------------------------------------------------------------------------

                         BASIS SET STATISTICS AND STARTUP INFO

 # of primitive gaussian shells          ...  344
 # of primitive gaussian functions       ...  748
 # of contracted shells                  ...   44
 # of contracted basis functions         ...  152
 Highest angular momentum                ...    4
 Maximum contraction depth               ...   19
 Integral package used                   ... LIBINT
 Integral threshhold            Thresh   ...  1.000e-10
 Primitive cut-off              TCut     ...  1.000e-11


------------------------------ INTEGRAL EVALUATION ----------------------------


 * One electron integrals 
 Pre-screening matrix                    ... done
 Shell pair data                         ... done (   0.002 sec)



           ************************************************************
           *        Program running with 24 parallel MPI-processes    *
           *              working on a common directory               *
           ************************************************************
-------------------------------------------------------------------------------
                                 ORCA SCF
-------------------------------------------------------------------------------

------------
SCF SETTINGS
------------
Hamiltonian:
 Density Functional     Method          .... DFT(GTOs)
 Exchange Functional    Exchange        .... WB97M-V
 Correlation Functional Correlation     .... WB97M-V
 Gradients option       PostSCFGGA      .... off
 Hybrid DFT is turned on
   Fraction HF Exchange ScalHFX         ....  0.150000
   Scaling of DF-GGA-X  ScalDFX         ....  0.000000
   Scaling of DF-GGA-C  ScalDFC         ....  1.000000
   Scaling of DF-LDA-C  ScalLDAC        ....  1.000000
   Perturbative correction              ....  0.000000
   Density functional embedding theory  .... OFF
 Long-range corrected/Screened/Range-Separated Hybrid DFT is turned on
   Amount of maximum screened exact exchange              ....  0.850000
   Range separation parameter mu (erf(mu*r12)/r12)        ....  0.300000
   NL short-range parameter             ....  6.000000
   NL long-range parameter              ....  0.010000


General Settings:
 Integral files         IntName         .... 34_FeBr
 Hartree-Fock type      HFTyp           .... UHF
 Total Charge           Charge          ....    0
 Multiplicity           Mult            ....    6
 Number of Electrons    NEL             ....   61
 Basis Dimension        Dim             ....  152
 Nuclear Repulsion      ENuc            ....    207.1134819912 Eh

Convergence Acceleration:
 DIIS                   CNVDIIS         .... on
   Start iteration      DIISMaxIt       ....    12
   Startup error        DIISStart       ....  0.200000
   # of expansion vecs  DIISMaxEq       ....     5
   Bias factor          DIISBfac        ....   1.050
   Max. coefficient     DIISMaxC        ....  10.000
 Newton-Raphson         CNVNR           .... off
 SOSCF                  CNVSOSCF        .... off
 Level Shifting         CNVShift        .... on
   Level shift para.    LevelShift      ....    0.2500
   Turn off err/grad.   ShiftErr        ....    0.0010
 Zerner damping         CNVZerner       .... off
 Static damping         CNVDamp         .... on
   Fraction old density DampFac         ....    0.7000
   Max. Damping (<1)    DampMax         ....    0.9800
   Min. Damping (>=0)   DampMin         ....    0.0000
   Turn off err/grad.   DampErr         ....    0.1000
 Fernandez-Rico         CNVRico         .... off

SCF Procedure:
 Maximum # iterations   MaxIter         ....   125
 SCF integral mode      SCFMode         .... Direct
   Integral package                     .... LIBINT
 Reset frequency        DirectResetFreq ....    20
 Integral Threshold     Thresh          ....  1.000e-10 Eh
 Primitive CutOff       TCut            ....  1.000e-11 Eh

Convergence Tolerance:
 Convergence Check Mode ConvCheckMode   .... Total+1el-Energy
 Convergence forced     ConvForced      .... 0
 Energy Change          TolE            ....  1.000e-06 Eh
 1-El. energy change                    ....  1.000e-03 Eh
 DIIS Error             TolErr          ....  1.000e-06


Diagonalization of the overlap matrix:
Smallest eigenvalue                        ... 1.117e-04
Time for diagonalization                   ...    0.004 sec
Threshold for overlap eigenvalues          ... 1.000e-08
Number of eigenvalues below threshold      ... 0
Time for construction of square roots      ...    0.003 sec
Total time needed                          ...    0.007 sec

-------------------
DFT GRID GENERATION
-------------------

General Integration Accuracy     IntAcc      ...  4.670
Radial Grid Type                 RadialGrid  ... Gauss-Chebyshev
Angular Grid (max. acc.)         AngularGrid ... Lebedev-302
Angular grid pruning method      GridPruning ... 3 (G Style)
Weight generation scheme         WeightScheme... Becke
Basis function cutoff            BFCut       ...    1.0000e-10
Integration weight cutoff        WCut        ...    1.0000e-14
Grids for H and He will be reduced by one unit

# of grid points (after initial pruning)     ...  19256 (   0.0 sec)
# of grid points (after weights+screening)   ...  19229 (   0.0 sec)
nearest neighbour list constructed           ...    0.0 sec
Grid point re-assignment to atoms done       ...    0.0 sec
Grid point division into batches done        ...    0.2 sec
Reduced shell lists constructed in    0.2 sec

Total number of grid points                  ...    19229
Total number of batches                      ...      302
Average number of points per batch           ...       63
Average number of grid points per atom       ...     9614
Average number of shells per batch           ...    16.14 (36.69%)
Average number of basis functions per batch  ...    38.71 (25.47%)
Average number of large shells per batch     ...     8.64 (53.54%)
Average number of large basis fcns per batch ...    22.36 (57.75%)
Maximum spatial batch extension              ...  24.49, 24.19, 17.83 au
Average spatial batch extension              ...   0.84,  0.83,  0.67 au

Time for grid setup =    0.203 sec

------------------------------
INITIAL GUESS: MODEL POTENTIAL
------------------------------
Loading Hartree-Fock densities                     ... done
Calculating cut-offs                               ... done
Setting up the integral package                    ... done
Initializing the effective Hamiltonian             ... done
Starting the Coulomb interaction                   ... done (   0.0 sec)
Reading the grid                                   ... done
Mapping shells                                     ... done
Starting the XC term evaluation                    ... done (   0.0 sec)
  promolecular density results
     # of electrons  =     60.999970746
     EX              =   -143.373742633
     EC              =     -2.858022794
     EX+EC           =   -146.231765428
Transforming the Hamiltonian                       ... done (   0.0 sec)
Diagonalizing the Hamiltonian                      ... done (   0.0 sec)
Back transforming the eigenvectors                 ... done (   0.0 sec)
Now organizing SCF variables                       ... done
                      ------------------
                      INITIAL GUESS DONE (   0.3 sec)
                      ------------------
--------------
SCF ITERATIONS
--------------
ITER       Energy         Delta-E        Max-DP      RMS-DP      [F,P]     Damp
               ***  Starting incremental Fock matrix formation  ***
  0  -3837.9346080202   0.00000000000025.21399149  0.31678195  0.0705320 0.7000
  1  -3837.4365691773   0.498038842843 7.55518078  0.09500985  0.1332775 0.7000
                               ***Turning on DIIS***
  2  -3837.6207860529  -0.18421687556717.65083809  0.22174602  0.0312537 0.0000
  3  -3837.9476574337  -0.326871380777 0.00540266  0.00011087  0.1429853 0.7000
  4  -3837.9533144803  -0.00565704666128.26276542  0.26735540  0.1211769 0.7000
  5  -3837.8321298588   0.12118462155358.86309726  0.46972183  0.0451979 0.0000
  6  -3837.4536355907   0.378494268040 0.60822459  0.00475418  0.1938923 0.7000
  7  -3837.4556875082  -0.002051917499 8.86888238  0.11579377  0.1926390 0.7000
  8  -3837.4514530535   0.004234454780 6.90357284  0.09143142  0.1863148 0.7000
  9  -3837.4497611041   0.00169194935026.69126859  0.25150727  0.1791822 0.7000
 10  -3837.6324903735  -0.18272926939618.68390988  0.17606131  0.1191673 0.7000
 11  -3837.7503480737  -0.11785770020043.59605191  0.41080202  0.0569865 0.0000
 12  -3837.9661305815  -0.215782507850 0.00372527  0.00004821  0.1194870 0.7000
 13  -3837.9668834537  -0.000752872174 0.00348413  0.00004537  0.1167299 0.7000
 14  -3837.9677098735  -0.000826419812 0.00216731  0.00003158  0.1138305 0.7000
 15  -3837.9684913168  -0.000781443303 0.00379668  0.00004441  0.1111351 0.7000
 16  -3837.9691907687  -0.00069945187922.57076049  0.22009659  0.1086829 0.7000
 17  -3837.8547204535   0.11447031520522.57092744  0.22007534  0.0500555 0.0000
 18  -3837.9830894265  -0.128368973021 0.01104515  0.00017142  0.0452687 0.0000
 19  -3837.9841259309  -0.001036504330 0.01258684  0.00018689  0.0380723 0.0000
               *** Restarting incremental Fock matrix formation ***
                                   *** Resetting DIIS ***
 20  -3837.9853727692  -0.001246838345 0.03391829  0.00050048  0.0276801 0.0000
 21  -3837.9857621343  -0.000389365121 0.01840145  0.00030541  0.0367137 0.0000
 22  -3837.9865488511  -0.000786716803 0.00569425  0.00007116  0.0081520 0.0000
 23  -3837.9866221977  -0.000073346588 0.00437054  0.00005530  0.0028831 0.0000
 24  -3837.9866284150  -0.000006217247 0.00712995  0.00009197  0.0011161 0.0000
 25  -3837.9866363366  -0.000007921680 0.00539187  0.00008137  0.0006707 0.0000
 26  -3837.9865849637   0.000051372987 0.00270913  0.00005321  0.0003214 0.0000
 27  -3837.9866138208  -0.000028857156 0.00153960  0.00002587  0.0002390 0.0000
 28  -3837.9865900430   0.000023777850 0.00192349  0.00001865  0.0001181 0.0000
 29  -3837.9865865647   0.000003478307 0.00055882  0.00000650  0.0007148 0.0000
                 **** Energy Check signals convergence ****

               *****************************************************
               *                     SUCCESS                       *
               *           SCF CONVERGED AFTER  30 CYCLES          *
               *****************************************************


Setting up the DFT-NL grid :

General Integration Accuracy     IntAcc      ...  4.340
Radial Grid Type                 RadialGrid  ... Gauss-Chebyshev
Angular Grid (max. acc.)         AngularGrid ... Lebedev-110
Angular grid pruning method      GridPruning ... 3 (G Style)
Weight generation scheme         WeightScheme... Becke
Basis function cutoff            BFCut       ...    1.0000e-10
Integration weight cutoff        WCut        ...    1.0000e-14
Grids for H and He will be reduced by one unit

# of grid points (after initial pruning)     ...   5802 (   0.0 sec)
# of grid points (after weights+screening)   ...   5778 (   0.0 sec)
nearest neighbour list constructed           ...    0.0 sec
Grid point re-assignment to atoms done       ...    0.0 sec
Grid point division into batches done        ...    0.0 sec
Reduced shell lists constructed in    0.0 sec

Total number of grid points                  ...     5778
Total number of batches                      ...       92
Average number of points per batch           ...       62
Average number of grid points per atom       ...     2889
Average number of shells per batch           ...    24.00 (54.55%)
Average number of basis functions per batch  ...    72.00 (47.37%)
Average number of large shells per batch     ...    16.00 (66.67%)
Average number of large basis fcns per batch ...    44.00 (61.11%)
Maximum spatial batch extension              ...  18.98, 28.73, 16.29 au
Average spatial batch extension              ...   0.77,  1.05,  0.71 au

Final grid set up in    0.0 sec

-------------------------------------------------------------------------------
                         DFT-NL dispersion correction                          
-------------------------------------------------------------------------------

SC Energy -3837.986586665 
NL    Energy 0.255497960 
SC+NL Energy -3837.731088705 
NL done in    0.0 sec
-------------------------------------------------------------------------------

----------------
TOTAL SCF ENERGY
----------------

Total Energy       :        -3837.73108870 Eh         -104429.97204 eV

Components:
Nuclear Repulsion  :          207.11348199 Eh            5635.84437 eV
Electronic Energy  :        -4044.84457070 Eh         -110065.81641 eV
One Electron Energy:        -5740.84841270 Eh         -156216.42720 eV
Two Electron Energy:         1696.00384200 Eh           46150.61079 eV

Virial components:
Potential Energy   :        -7671.05232250 Eh         -208739.94583 eV
Kinetic Energy     :         3833.32123380 Eh          104309.97379 eV
Virial Ratio       :            2.00115040


DFT components:
N(Alpha)           :       33.000004905373 electrons
N(Beta)            :       28.000004569532 electrons
N(Total)           :       61.000009474905 electrons
E(X)               :     -113.674027617427 Eh       
E(C)               :       -3.303040999302 Eh       
NL Energy, E(C,NL) :        0.255497959750 Eh       
E(XC)              :     -116.721570656980 Eh       
DFET-embed. en.    :        0.000000000000 Eh       

---------------
SCF CONVERGENCE
---------------

  Last Energy change         ...   -1.0006e-07  Tolerance :   1.0000e-06
  Last MAX-Density change    ...    1.9537e-03  Tolerance :   1.0000e-05
  Last RMS-Density change    ...    2.1884e-05  Tolerance :   1.0000e-06
  Last DIIS Error            ...    5.4809e-04  Tolerance :   1.0000e-06

             **** THE GBW FILE WAS UPDATED (34_FeBr.gbw) ****
             **** DENSITY FILE WAS UPDATED (34_FeBr.scfp) ****
             **** ENERGY FILE WAS UPDATED (34_FeBr.en.tmp) ****
----------------------
UHF SPIN CONTAMINATION
----------------------

Warning: in a DFT calculation there is little theoretical justification to 
         calculate <S**2> as in Hartree-Fock theory. We will do it anyways
         but you should keep in mind that the values have only limited relevance

Expectation value of <S**2>     :     8.758845
Ideal value S*(S+1) for S=2.5   :     8.750000
Deviation                       :     0.008845

             **** THE GBW FILE WAS UPDATED (34_FeBr.gbw) ****
             **** DENSITY FILE WAS UPDATED (34_FeBr.scfp) ****
----------------
ORBITAL ENERGIES
----------------
                 SPIN UP ORBITALS
  NO   OCC          E(Eh)            E(eV) 
   0   1.0000    -483.494861    -13156.5640 
   1   1.0000    -256.662788     -6984.1495 
   2   1.0000     -62.799580     -1708.8634 
   3   1.0000     -56.485542     -1537.0497 
   4   1.0000     -56.484619     -1537.0246 
   5   1.0000     -56.484619     -1537.0246 
   6   1.0000     -30.393878      -827.0595 
   7   1.0000     -26.174483      -712.2439 
   8   1.0000     -26.145692      -711.4604 
   9   1.0000     -26.145691      -711.4604 
  10   1.0000      -8.878493      -241.5961 
  11   1.0000      -6.658545      -181.1882 
  12   1.0000      -6.655346      -181.1012 
  13   1.0000      -6.655346      -181.1012 
  14   1.0000      -3.783501      -102.9543 
  15   1.0000      -2.741394       -74.5971 
  16   1.0000      -2.740326       -74.5681 
  17   1.0000      -2.740326       -74.5681 
  18   1.0000      -2.737830       -74.5001 
  19   1.0000      -2.737793       -74.4991 
  20   1.0000      -2.572156       -69.9919 
  21   1.0000      -2.519003       -68.5455 
  22   1.0000      -2.519002       -68.5455 
  23   1.0000      -0.876018       -23.8377 
  24   1.0000      -0.571857       -15.5610 
  25   1.0000      -0.559416       -15.2225 
  26   1.0000      -0.559416       -15.2225 
  27   1.0000      -0.532349       -14.4860 
  28   1.0000      -0.505897       -13.7661 
  29   1.0000      -0.437137       -11.8951 
  30   1.0000      -0.389454       -10.5976 
  31   1.0000      -0.389453       -10.5976 
  32   1.0000      -0.287095        -7.8122 
  33   0.0000       0.002046         0.0557 
  34   0.0000       0.002054         0.0559 
  35   0.0000       0.010415         0.2834 
  36   0.0000       0.015492         0.4216 
  37   0.0000       0.044180         1.2022 
  38   0.0000       0.044192         1.2025 
  39   0.0000       0.062010         1.6874 
  40   0.0000       0.071655         1.9498 
  41   0.0000       0.072112         1.9623 
  42   0.0000       0.085942         2.3386 
  43   0.0000       0.088329         2.4035 
  44   0.0000       0.088331         2.4036 
  45   0.0000       0.110764         3.0140 
  46   0.0000       0.110770         3.0142 
  47   0.0000       0.124545         3.3890 
  48   0.0000       0.128181         3.4880 
  49   0.0000       0.195163         5.3107 
  50   0.0000       0.195167         5.3108 
  51   0.0000       0.218019         5.9326 
  52   0.0000       0.232839         6.3359 
  53   0.0000       0.250721         6.8225 
  54   0.0000       0.250789         6.8243 
  55   0.0000       0.293975         7.9995 
  56   0.0000       0.293977         7.9995 
  57   0.0000       0.315339         8.5808 
  58   0.0000       0.316269         8.6061 
  59   0.0000       0.344283         9.3684 
  60   0.0000       0.380162        10.3447 
  61   0.0000       0.380163        10.3448 
  62   0.0000       0.434253        11.8166 
  63   0.0000       0.501657        13.6508 
  64   0.0000       0.501657        13.6508 
  65   0.0000       0.522834        14.2270 
  66   0.0000       0.637507        17.3475 
  67   0.0000       0.663441        18.0531 
  68   0.0000       0.696656        18.9570 
  69   0.0000       0.696657        18.9570 
  70   0.0000       0.697893        18.9906 
  71   0.0000       0.697963        18.9925 
  72   0.0000       0.784815        21.3559 
  73   0.0000       0.784815        21.3559 
  74   0.0000       0.793303        21.5869 
  75   0.0000       0.793379        21.5890 
  76   0.0000       0.822179        22.3726 
  77   0.0000       0.822179        22.3726 
  78   0.0000       0.865989        23.5648 
  79   0.0000       0.918485        24.9932 
  80   0.0000       0.918485        24.9932 
  81   0.0000       0.956876        26.0379 
  82   0.0000       0.956877        26.0379 
  83   0.0000       0.992170        26.9983 
  84   0.0000       1.073924        29.2230 
  85   0.0000       1.075284        29.2600 
  86   0.0000       1.083012        29.4703 
  87   0.0000       1.087980        29.6054 
  88   0.0000       1.087980        29.6054 
  89   0.0000       1.137576        30.9550 
  90   0.0000       1.143607        31.1191 
  91   0.0000       1.261951        34.3394 
  92   0.0000       1.421353        38.6770 
  93   0.0000       1.421353        38.6770 
  94   0.0000       1.692264        46.0488 
  95   0.0000       1.958855        53.3032 
  96   0.0000       1.958856        53.3032 
  97   0.0000       2.076336        56.5000 
  98   0.0000       2.076415        56.5021 
  99   0.0000       2.085495        56.7492 
 100   0.0000       2.103600        57.2419 
 101   0.0000       2.103600        57.2419 
 102   0.0000       2.136155        58.1277 
 103   0.0000       2.136206        58.1291 
 104   0.0000       2.175767        59.2056 
 105   0.0000       2.175767        59.2056 
 106   0.0000       2.192228        59.6536 
 107   0.0000       2.192228        59.6536 
 108   0.0000       2.239373        60.9364 
 109   0.0000       2.465615        67.0928 
 110   0.0000       2.677013        72.8452 
 111   0.0000       2.677013        72.8452 
 112   0.0000       2.702975        73.5517 
 113   0.0000       2.715395        73.8896 
 114   0.0000       2.784641        75.7739 
 115   0.0000       2.784642        75.7740 
 116   0.0000       2.872482        78.1642 
 117   0.0000       2.920165        79.4617 
 118   0.0000       3.018573        82.1395 
 119   0.0000       3.018573        82.1395 
 120   0.0000       3.328815        90.5817 
 121   0.0000       3.332867        90.6919 
 122   0.0000       3.332867        90.6919 
 123   0.0000       3.334627        90.7398 
 124   0.0000       3.338169        90.8362 
 125   0.0000       3.360166        91.4348 
 126   0.0000       3.367078        91.6229 
 127   0.0000       3.498007        95.1856 
 128   0.0000       3.498007        95.1856 
 129   0.0000       3.582649        97.4888 
 130   0.0000       4.359396       118.6252 
 131   0.0000       4.508360       122.6787 
 132   0.0000       4.535326       123.4125 
 133   0.0000       4.648447       126.4907 
 134   0.0000       4.648447       126.4907 
 135   0.0000       5.396378       146.8429 
 136   0.0000       8.922100       242.7827 
 137   0.0000       8.943110       243.3544 
 138   0.0000       8.943174       243.3561 
 139   0.0000       8.943175       243.3562 
 140   0.0000       8.968183       244.0367 
 141   0.0000       8.968183       244.0367 
 142   0.0000       8.999631       244.8924 
 143   0.0000       9.656445       262.7652 
 144   0.0000       9.661736       262.9092 
 145   0.0000       9.661736       262.9092 
 146   0.0000       9.675072       263.2721 
 147   0.0000       9.683953       263.5138 
 148   0.0000       9.685107       263.5452 
 149   0.0000       9.723126       264.5797 
 150   0.0000       9.723127       264.5797 
 151   0.0000       9.789910       266.3970 

                 SPIN DOWN ORBITALS
  NO   OCC          E(Eh)            E(eV) 
   0   1.0000    -483.494181    -13156.5455 
   1   1.0000    -256.659699     -6984.0655 
   2   1.0000     -62.799327     -1708.8566 
   3   1.0000     -56.484623     -1537.0247 
   4   1.0000     -56.484089     -1537.0102 
   5   1.0000     -56.484089     -1537.0102 
   6   1.0000     -30.303519      -824.6007 
   7   1.0000     -26.091199      -709.9776 
   8   1.0000     -26.079859      -709.6691 
   9   1.0000     -26.079859      -709.6691 
  10   1.0000      -8.877578      -241.5712 
  11   1.0000      -6.657068      -181.1480 
  12   1.0000      -6.654423      -181.0761 
  13   1.0000      -6.654423      -181.0761 
  14   1.0000      -3.599091       -97.9363 
  15   1.0000      -2.740027       -74.5599 
  16   1.0000      -2.739073       -74.5340 
  17   1.0000      -2.739073       -74.5340 
  18   1.0000      -2.736898       -74.4748 
  19   1.0000      -2.736859       -74.4737 
  20   1.0000      -2.335056       -63.5401 
  21   1.0000      -2.335056       -63.5401 
  22   1.0000      -2.334217       -63.5173 
  23   1.0000      -0.865452       -23.5501 
  24   1.0000      -0.437947       -11.9171 
  25   1.0000      -0.410435       -11.1685 
  26   1.0000      -0.392500       -10.6805 
  27   1.0000      -0.392499       -10.6804 
  28   0.0000      -0.216970        -5.9041 
  29   0.0000      -0.152359        -4.1459 
  30   0.0000      -0.144145        -3.9224 
  31   0.0000      -0.128955        -3.5090 
  32   0.0000      -0.070019        -1.9053 
  33   0.0000      -0.033757        -0.9186 
  34   0.0000      -0.028328        -0.7709 
  35   0.0000      -0.024449        -0.6653 
  36   0.0000      -0.022687        -0.6173 
  37   0.0000      -0.003953        -0.1076 
  38   0.0000       0.003227         0.0878 
  39   0.0000       0.007503         0.2042 
  40   0.0000       0.008874         0.2415 
  41   0.0000       0.013117         0.3569 
  42   0.0000       0.015381         0.4185 
  43   0.0000       0.017479         0.4756 
  44   0.0000       0.017995         0.4897 
  45   0.0000       0.073826         2.0089 
  46   0.0000       0.094001         2.5579 
  47   0.0000       0.094415         2.5692 
  48   0.0000       0.106810         2.9065 
  49   0.0000       0.156097         4.2476 
  50   0.0000       0.161758         4.4017 
  51   0.0000       0.193133         5.2554 
  52   0.0000       0.212009         5.7691 
  53   0.0000       0.243314         6.6209 
  54   0.0000       0.245330         6.6758 
  55   0.0000       0.263872         7.1803 
  56   0.0000       0.268798         7.3144 
  57   0.0000       0.272082         7.4037 
  58   0.0000       0.280552         7.6342 
  59   0.0000       0.319335         8.6895 
  60   0.0000       0.343797         9.3552 
  61   0.0000       0.344125         9.3641 
  62   0.0000       0.394772        10.7423 
  63   0.0000       0.491095        13.3634 
  64   0.0000       0.491293        13.3688 
  65   0.0000       0.505034        13.7427 
  66   0.0000       0.629516        17.1300 
  67   0.0000       0.659992        17.9593 
  68   0.0000       0.694673        18.9030 
  69   0.0000       0.696169        18.9437 
  70   0.0000       0.697253        18.9732 
  71   0.0000       0.698099        18.9962 
  72   0.0000       0.780117        21.2281 
  73   0.0000       0.780559        21.2401 
  74   0.0000       0.787606        21.4318 
  75   0.0000       0.794528        21.6202 
  76   0.0000       0.812959        22.1217 
  77   0.0000       0.812959        22.1217 
  78   0.0000       0.875039        23.8110 
  79   0.0000       0.909161        24.7395 
  80   0.0000       0.909161        24.7395 
  81   0.0000       0.966218        26.2921 
  82   0.0000       0.966231        26.2925 
  83   0.0000       0.992900        27.0182 
  84   0.0000       1.074497        29.2386 
  85   0.0000       1.085224        29.5304 
  86   0.0000       1.087046        29.5800 
  87   0.0000       1.105870        30.0923 
  88   0.0000       1.106709        30.1151 
  89   0.0000       1.167401        31.7666 
  90   0.0000       1.171325        31.8734 
  91   0.0000       1.273694        34.6590 
  92   0.0000       1.444440        39.3052 
  93   0.0000       1.444475        39.3062 
  94   0.0000       1.709894        46.5286 
  95   0.0000       1.963745        53.4362 
  96   0.0000       1.963792        53.4375 
  97   0.0000       2.080402        56.6106 
  98   0.0000       2.080751        56.6201 
  99   0.0000       2.094623        56.9976 
 100   0.0000       2.108683        57.3802 
 101   0.0000       2.108683        57.3802 
 102   0.0000       2.139477        58.2181 
 103   0.0000       2.139820        58.2275 
 104   0.0000       2.179266        59.3008 
 105   0.0000       2.179266        59.3009 
 106   0.0000       2.194277        59.7093 
 107   0.0000       2.194600        59.7181 
 108   0.0000       2.241742        61.0009 
 109   0.0000       2.506398        68.2026 
 110   0.0000       2.744793        74.6896 
 111   0.0000       2.744793        74.6896 
 112   0.0000       2.787580        75.8539 
 113   0.0000       2.797285        76.1180 
 114   0.0000       2.866110        77.9908 
 115   0.0000       2.866115        77.9909 
 116   0.0000       2.950384        80.2840 
 117   0.0000       3.026146        82.3456 
 118   0.0000       3.112267        84.6891 
 119   0.0000       3.112407        84.6929 
 120   0.0000       3.347891        91.1007 
 121   0.0000       3.360565        91.4456 
 122   0.0000       3.360565        91.4456 
 123   0.0000       3.369426        91.6867 
 124   0.0000       3.385793        92.1321 
 125   0.0000       3.386038        92.1388 
 126   0.0000       3.396031        92.4107 
 127   0.0000       3.530204        96.0617 
 128   0.0000       3.530278        96.0637 
 129   0.0000       3.653022        99.4038 
 130   0.0000       4.359645       118.6320 
 131   0.0000       4.625806       125.8746 
 132   0.0000       4.679228       127.3283 
 133   0.0000       4.807029       130.8059 
 134   0.0000       4.807125       130.8085 
 135   0.0000       5.538809       150.7186 
 136   0.0000       9.104815       247.7546 
 137   0.0000       9.104815       247.7546 
 138   0.0000       9.111307       247.9313 
 139   0.0000       9.141553       248.7543 
 140   0.0000       9.168898       249.4984 
 141   0.0000       9.168899       249.4984 
 142   0.0000       9.201904       250.3965 
 143   0.0000       9.795890       266.5597 
 144   0.0000       9.795890       266.5597 
 145   0.0000       9.797063       266.5916 
 146   0.0000       9.799973       266.6708 
 147   0.0000       9.803260       266.7603 
 148   0.0000       9.815339       267.0889 
 149   0.0000       9.866721       268.4871 
 150   0.0000       9.866730       268.4874 
 151   0.0000       9.933809       270.3127 

                    ********************************
                    * MULLIKEN POPULATION ANALYSIS *
                    ********************************

--------------------------------------------
MULLIKEN ATOMIC CHARGES AND SPIN POPULATIONS
--------------------------------------------
   0 Fe:    0.351406    4.779658
   1 Br:   -0.351406    0.220342
Sum of atomic charges         :   -0.0000000
Sum of atomic spin populations:    5.0000000

-----------------------------------------------------
MULLIKEN REDUCED ORBITAL CHARGES AND SPIN POPULATIONS
-----------------------------------------------------
CHARGE
  0 Fes       :     7.023807  s :     7.023807
      pz      :     4.335485  p :    12.429757
      px      :     4.047168
      py      :     4.047104
      dz2     :     1.077181  d :     6.179689
      dxz     :     1.051634
      dyz     :     1.051515
      dx2y2   :     0.999670
      dxy     :     1.999690
      f0      :     0.004851  f :     0.014902
      f+1     :     0.004976
      f-1     :     0.004977
      f+2     :     0.000004
      f-2     :     0.000006
      f+3     :     0.000044
      f-3     :     0.000044
      g0      :     0.000182  g :     0.000438
      g+1     :     0.000115
      g-1     :     0.000115
      g+2     :     0.000003
      g-2     :     0.000009
      g+3     :     0.000001
      g-3     :     0.000001
      g+4     :     0.000012
      g-4     :     0.000000
  1 Brs       :     7.948386  s :     7.948386
      pz      :     5.601033  p :    17.377185
      px      :     5.887987
      py      :     5.888166
      dz2     :     2.008776  d :    10.022556
      dxz     :     2.006800
      dyz     :     2.006802
      dx2y2   :     2.000156
      dxy     :     2.000023
      f0      :     0.000287  f :     0.003278
      f+1     :     0.001277
      f-1     :     0.001276
      f+2     :     0.000167
      f-2     :     0.000272
      f+3     :     0.000000
      f-3     :     0.000000

SPIN
  0 Fes       :     0.737382  s :     0.737382
      pz      :     0.225010  p :     0.215091
      px      :    -0.004991
      py      :    -0.004928
      dz2     :     0.923026  d :     3.826711
      dxz     :     0.952163
      dyz     :     0.952282
      dx2y2   :     0.999670
      dxy     :    -0.000431
      f0      :     0.000643  f :     0.000431
      f+1     :    -0.000070
      f-1     :    -0.000071
      f+2     :     0.000001
      f-2     :    -0.000002
      f+3     :    -0.000035
      f-3     :    -0.000035
      g0      :     0.000016  g :     0.000043
      g+1     :     0.000008
      g-1     :     0.000008
      g+2     :     0.000003
      g-2     :     0.000008
      g+3     :     0.000001
      g-3     :     0.000001
      g+4     :    -0.000002
      g-4     :     0.000000
  1 Brs       :     0.005994  s :     0.005994
      pz      :     0.104812  p :     0.210875
      px      :     0.053121
      py      :     0.052942
      dz2     :     0.002894  d :     0.002725
      dxz     :    -0.000332
      dyz     :    -0.000334
      dx2y2   :     0.000159
      dxy     :     0.000338
      f0      :     0.000224  f :     0.000748
      f+1     :     0.000136
      f-1     :     0.000136
      f+2     :     0.000166
      f-2     :     0.000086
      f+3     :    -0.000000
      f-3     :    -0.000000


                     *******************************
                     * LOEWDIN POPULATION ANALYSIS *
                     *******************************

-------------------------------------------
LOEWDIN ATOMIC CHARGES AND SPIN POPULATIONS
-------------------------------------------
   0 Fe:   -0.006892    4.705981
   1 Br:    0.006892    0.294019

----------------------------------------------------
LOEWDIN REDUCED ORBITAL CHARGES AND SPIN POPULATIONS
----------------------------------------------------
CHARGE
  0 Fes       :     6.799365  s :     6.799365
      pz      :     4.517387  p :    12.672253
      px      :     4.077425
      py      :     4.077441
      dz2     :     1.206555  d :     6.434360
      dxz     :     1.117277
      dyz     :     1.117227
      dx2y2   :     0.998219
      dxy     :     1.995082
      f0      :     0.042516  f :     0.098577
      f+1     :     0.027954
      f-1     :     0.027955
      f+2     :     0.000024
      f-2     :     0.000040
      f+3     :     0.000044
      f-3     :     0.000044
      g0      :     0.001166  g :     0.002336
      g+1     :     0.000573
      g-1     :     0.000573
      g+2     :     0.000003
      g-2     :     0.000008
      g+3     :     0.000001
      g-3     :     0.000001
      g+4     :     0.000012
      g-4     :     0.000000
  1 Brs       :     7.650680  s :     7.650680
      pz      :     5.638476  p :    17.127505
      px      :     5.744498
      py      :     5.744531
      dz2     :     2.104939  d :    10.142450
      dxz     :     2.017422
      dyz     :     2.017422
      dx2y2   :     2.000657
      dxy     :     2.002010
      f0      :     0.038904  f :     0.072474
      f+1     :     0.014806
      f-1     :     0.014806
      f+2     :     0.001097
      f-2     :     0.002860
      f+3     :     0.000000
      f-3     :     0.000000

SPIN
  0 Fes       :     0.604169  s :     0.604169
      pz      :     0.303456  p :     0.308806
      px      :     0.002683
      py      :     0.002667
      dz2     :     0.912233  d :     3.785551
      dxz     :     0.937062
      dyz     :     0.937112
      dx2y2   :     0.998215
      dxy     :     0.000927
      f0      :     0.003419  f :     0.007233
      f+1     :     0.001929
      f-1     :     0.001928
      f+2     :     0.000021
      f-2     :     0.000007
      f+3     :    -0.000035
      f-3     :    -0.000035
      g0      :     0.000125  g :     0.000221
      g+1     :     0.000044
      g-1     :     0.000044
      g+2     :     0.000003
      g-2     :     0.000007
      g+3     :     0.000001
      g-3     :     0.000001
      g+4     :    -0.000002
      g-4     :     0.000000
  1 Brs       :     0.027396  s :     0.027396
      pz      :     0.120400  p :     0.205774
      px      :     0.042704
      py      :     0.042670
      dz2     :     0.024751  d :     0.038386
      dxz     :     0.006726
      dyz     :     0.006726
      dx2y2   :     0.000665
      dxy     :    -0.000483
      f0      :     0.004051  f :     0.022463
      f+1     :     0.008887
      f-1     :     0.008887
      f+2     :     0.001097
      f-2     :    -0.000458
      f+3     :    -0.000000
      f-3     :    -0.000000


                      *****************************
                      * MAYER POPULATION ANALYSIS *
                      *****************************

  NA   - Mulliken gross atomic population
  ZA   - Total nuclear charge
  QA   - Mulliken gross atomic charge
  VA   - Mayer's total valence
  BVA  - Mayer's bonded valence
  FA   - Mayer's free valence

  ATOM       NA         ZA         QA         VA         BVA        FA
  0 Fe    25.6486    26.0000     0.3514     5.7286     1.0741     4.6545
  1 Br    35.3514    35.0000    -0.3514     1.0914     1.0741     0.0172

  Mayer bond orders larger than 0.100000
B(  0-Fe,  1-Br) :   1.0741 

-------
TIMINGS
-------

Total SCF time: 0 days 0 hours 11 min 31 sec 

Total time                  ....     691.045 sec
Sum of individual times     ....     690.657 sec  ( 99.9%)

Fock matrix formation       ....     690.048 sec  ( 99.9%)
  XC integration            ....       1.390 sec  (  0.2% of F)
    Basis function eval.    ....       0.252 sec  ( 18.1% of XC)
    Density eval.           ....       0.275 sec  ( 19.8% of XC)
    XC-Functional eval.     ....       0.050 sec  (  3.6% of XC)
    XC-Potential eval.      ....       0.624 sec  ( 44.9% of XC)
Diagonalization             ....       0.175 sec  (  0.0%)
Density matrix formation    ....       0.022 sec  (  0.0%)
Population analysis         ....       0.007 sec  (  0.0%)
Initial guess               ....       0.115 sec  (  0.0%)
Orbital Transformation      ....       0.000 sec  (  0.0%)
Orbital Orthonormalization  ....       0.000 sec  (  0.0%)
DIIS solution               ....       0.067 sec  (  0.0%)
Grid generation             ....       0.223 sec  (  0.0%)

-------------------------   --------------------
FINAL SINGLE POINT ENERGY     -3837.731088704967
-------------------------   --------------------


                            ***************************************
                            *     ORCA property calculations      *
                            ***************************************

                                    ---------------------
                                    Active property flags
                                    ---------------------
   (+) Dipole Moment


------------------------------------------------------------------------------
                       ORCA ELECTRIC PROPERTIES CALCULATION
------------------------------------------------------------------------------

Dipole Moment Calculation                       ... on
Quadrupole Moment Calculation                   ... off
Polarizability Calculation                      ... off
GBWName                                         ... 34_FeBr.gbw
Electron density file                           ... 34_FeBr.scfp
The origin for moment calculation is the CENTER OF MASS  = ( 0.000000,  0.000000  2.278931)

-------------
DIPOLE MOMENT
-------------
                                X             Y             Z
Electronic contribution:     -0.00005      -0.00001       3.15525
Nuclear contribution   :      0.00000       0.00000      -3.96973
                        -----------------------------------------
Total Dipole Moment    :     -0.00005      -0.00001      -0.81447
                        -----------------------------------------
Magnitude (a.u.)       :      0.81447
Magnitude (Debye)      :      2.07023



--------------------
Rotational spectrum 
--------------------
 
Rotational constants in cm-1:     0.000000     0.094863     0.094863 
Rotational constants in MHz :     0.000000  2843.931812  2843.931812 

 Dipole components along the rotational axes: 
x,y,z [a.u.] :    -0.814474    -0.000014    -0.000055 
x,y,z [Debye]:    -2.070227    -0.000036    -0.000139 

 

Timings for individual modules:

Sum of individual times         ...      696.341 sec (=  11.606 min)
GTO integral calculation        ...        4.751 sec (=   0.079 min)   0.7 %
SCF iterations                  ...      691.590 sec (=  11.527 min)  99.3 %
                             ****ORCA TERMINATED NORMALLY****
TOTAL RUN TIME: 0 days 0 hours 11 minutes 36 seconds 957 msec
