
                                 *****************
                                 * O   R   C   A *
                                 *****************

           --- An Ab Initio, DFT and Semiempirical electronic structure package ---

                  #######################################################
                  #                        -***-                        #
                  #          Department of theory and spectroscopy      #
                  #               Directorship: Frank Neese             #
                  #        Max Planck Institute fuer Kohlenforschung    #
                  #                Kaiser Wilhelm Platz 1               #
                  #                 D-45470 Muelheim/Ruhr               #
                  #                      Germany                        #
                  #                                                     #
                  #                  All rights reserved                #
                  #                        -***-                        #
                  #######################################################


                         Program Version 4.2.0 -  RELEASE  -


 With contributions from (in alphabetic order):
   Daniel Aravena         : Magnetic Suceptibility
   Michael Atanasov       : Ab Initio Ligand Field Theory (pilot matlab implementation)
   Alexander A. Auer      : GIAO ZORA, VPT2
   Ute Becker             : Parallelization
   Giovanni Bistoni       : ED, misc. LED, open-shell LED, HFLED
   Martin Brehm           : Molecular dynamics
   Dmytro Bykov           : SCF Hessian
   Vijay G. Chilkuri      : MRCI spin determinant printing, contributions to CSF-ICE
   Dipayan Datta          : RHF DLPNO-CCSD density
   Achintya Kumar Dutta   : EOM-CC, STEOM-CC
   Dmitry Ganyushin       : Spin-Orbit,Spin-Spin,Magnetic field MRCI
   Miquel Garcia          : C-PCM Hessian, Gaussian charge scheme
   Yang Guo               : DLPNO-NEVPT2, CIM, IAO-localization
   Andreas Hansen         : Spin unrestricted coupled pair/coupled cluster methods
   Benjamin Helmich-Paris : CASSCF linear response (MC-RPA)
   Lee Huntington         : MR-EOM, pCC
   Robert Izsak           : Overlap fitted RIJCOSX, COSX-SCS-MP3, EOM
   Christian Kollmar      : KDIIS, OOCD, Brueckner-CCSD(T), CCSD density
   Simone Kossmann        : Meta GGA functionals, TD-DFT gradient, OOMP2, MP2 Hessian
   Martin Krupicka        : AUTO-CI
   Lucas Lang             : DCDCAS
   Dagmar Lenk            : GEPOL surface, SMD
   Dimitrios Liakos       : Extrapolation schemes; Compound Job, initial MDCI parallelization
   Dimitrios Manganas     : Further ROCIS development; embedding schemes
   Dimitrios Pantazis     : SARC Basis sets
   Taras Petrenko         : DFT Hessian,TD-DFT gradient, ASA, ECA, R-Raman, ABS, FL, XAS/XES, NRVS
   Peter Pinski           : DLPNO-MP2, DLPNO-MP2 Gradient
   Christoph Reimann      : Effective Core Potentials
   Marius Retegan         : Local ZFS, SOC
   Christoph Riplinger    : Optimizer, TS searches, QM/MM, DLPNO-CCSD(T), (RO)-DLPNO pert. Triples
   Tobias Risthaus        : Range-separated hybrids, TD-DFT gradient, RPA, STAB
   Michael Roemelt        : Original ROCIS implementation
   Masaaki Saitow         : Open-shell DLPNO-CCSD energy and density
   Barbara Sandhoefer     : DKH picture change effects
   Avijit Sen             : IP-ROCIS
   Kantharuban Sivalingam : CASSCF convergence, NEVPT2, FIC-MRCI
   Bernardo de Souza      : ESD, SOC TD-DFT
   Georgi Stoychev        : AutoAux, RI-MP2 NMR
   Willem Van den Heuvel  : Paramagnetic NMR
   Boris Wezisla          : Elementary symmetry handling
   Frank Wennmohs         : Technical directorship


 We gratefully acknowledge several colleagues who have allowed us to
 interface, adapt or use parts of their codes:
   Stefan Grimme, W. Hujo, H. Kruse,             : VdW corrections, initial TS optimization,
                  C. Bannwarth                     DFT functionals, gCP, sTDA/sTD-DF
   Ed Valeev, F. Pavosevic, A. Kumar             : LibInt (2-el integral package), F12 methods
   Garnet Chan, S. Sharma, J. Yang, R. Olivares  : DMRG
   Ulf Ekstrom                                   : XCFun DFT Library
   Mihaly Kallay                                 : mrcc  (arbitrary order and MRCC methods)
   Andreas Klamt, Michael Diedenhofen            : otool_cosmo (COSMO solvation model)
   Jiri Pittner, Ondrej Demel                    : Mk-CCSD
   Frank Weinhold                                : gennbo (NPA and NBO analysis)
   Christopher J. Cramer and Donald G. Truhlar   : smd solvation model
   Lars Goerigk                                  : TD-DFT with DH, B97 family of functionals
   V. Asgeirsson, H. Jonsson                     : NEB implementation
   FAccTs GmbH                                   : IRC, NEB, NEB-TS, Multilevel, MM, QM/MM, CI optimization
   S Lehtola, MJT Oliveira, MAL Marques          : LibXC Library


 Your calculation uses the libint2 library for the computation of 2-el integrals
 For citations please refer to: http://libint.valeyev.net

 Your ORCA version has been built with support for libXC version: 4.2.3
 For citations please refer to: https://tddft.org/programs/libxc/

 This ORCA versions uses:
   CBLAS   interface :  Fast vector & matrix operations
   LAPACKE interface :  Fast linear algebra routines
   SCALAPACK package :  Parallel linear algebra routines


Your calculation utilizes the DFT-NL dispersion correction.
Cite in your paper:
Vydrov, O. A.; Van Voorhis, T. J. Chem. Phys. 2010, 133, 244103
Hujo, W.; Grimme, S. J. Chem. Theory Comput. 2011, 7, 3866 
   

----- Orbital basis set information -----
Your calculation utilizes the basis: aug-cc-pVTZ 
    H, B-Ne : Obtained from the ccRepo (grant-hill.group.shef.ac.uk/ccrepo) Feb. 2017
              R. A. Kendall, T. H. Dunning, Jr., R. J. Harrison, J. Chem. Phys. 96, 6796 (1992)
         He : Obtained from the ccRepo (grant-hill.group.shef.ac.uk/ccrepo) Feb. 2017
              D. E. Woon, T. H. Dunning, Jr., J. Chem. Phys. 100, 2975 (1994)
  Li-Be, Na : Obtained from the ccRepo (grant-hill.group.shef.ac.uk/ccrepo) Feb. 2017
              B. P. Prascher, D. E. Woon, K. A. Peterson, T. H. Dunning, Jr., A. K. Wilson, Theor. Chem. Acc. 128, 69 (2011)
         Mg : Obtained from the Peterson Research Group Website (tyr0.chem.wsu.edu/~kipeters) Feb. 2017
              B. P. Prascher, D. E. Woon, K. A. Peterson, T. H. Dunning, Jr., A. K. Wilson, Theor. Chem. Acc. 128, 69 (2011)
      Al-Ar : Obtained from the ccRepo (grant-hill.group.shef.ac.uk/ccrepo) Feb. 2017
              D. E. Woon, T. H. Dunning, Jr., J. Chem. Phys. 98, 1358 (1993)
      Sc-Zn : Obtained from the ccRepo (grant-hill.group.shef.ac.uk/ccrepo) Feb. 2017
              N. B. Balabanov, K. A. Peterson, J. Chem. Phys. 123, 064107 (2005)
              N. B. Balabanov, K. A. Peterson, J. Chem. Phys. 125, 074110 (2006)
      Ga-Kr : Obtained from the ccRepo (grant-hill.group.shef.ac.uk/ccrepo) Feb. 2017
              A. K. Wilson, D. E. Woon, K. A. Peterson, T. H. Dunning, Jr., J. Chem. Phys. 110, 7667 (1999)
     Ag, Au : Obtained from the Peterson Research Group Website (tyr0.chem.wsu.edu/~kipeters) Feb. 2017
              K. A. Peterson, C. Puzzarini, Theor. Chem. Acc. 114, 283 (2005)

----- AuxJK basis set information -----
Your calculation utilizes the auxiliary basis: def2/JK
   H-Ba, Hf-Rn: F. Weigend, J. Comput. Chem. 29, 167 (2008).

================================================================================
                                        WARNINGS
                       Please study these warnings very carefully!
================================================================================


WARNING: your system is open-shell and RHF/RKS was chosen
  ===> : WILL SWITCH to UHF/UKS


INFO   : the flag for use of LIBINT has been found!

================================================================================
                                       INPUT FILE
================================================================================
NAME = 43_NiH.in
|  1> #
|  2> # 43_NiH wb97m-v/aug-cc-pvtz
|  3> #
|  4> ! wb97m-v aug-cc-pvtz def2/jk grid4 nofinalgrid
|  5> 
|  6> *xyz 0 2
|  7>   Ni  0.00000000000000      0.00000000000000      0.25339129346416
|  8>   H   0.00000000000000      0.00000000000000      1.74660870653584
|  9> *
| 10> 
| 11> %pal
| 12> nprocs 24
| 13> end
| 14> 
| 15> 
| 16>                          ****END OF INPUT****
================================================================================

                       ****************************
                       * Single Point Calculation *
                       ****************************

---------------------------------
CARTESIAN COORDINATES (ANGSTROEM)
---------------------------------
  Ni     0.000000    0.000000    0.253391
  H      0.000000    0.000000    1.746609

----------------------------
CARTESIAN COORDINATES (A.U.)
----------------------------
  NO LB      ZA    FRAG     MASS         X           Y           Z
   0 Ni   28.0000    0    58.700    0.000000    0.000000    0.478840
   1 H     1.0000    0     1.008    0.000000    0.000000    3.300612

--------------------------------
INTERNAL COORDINATES (ANGSTROEM)
--------------------------------
 Ni     0   0   0     0.000000000000     0.00000000     0.00000000
 H      1   0   0     1.493217413072     0.00000000     0.00000000

---------------------------
INTERNAL COORDINATES (A.U.)
---------------------------
 Ni     0   0   0     0.000000000000     0.00000000     0.00000000
 H      1   0   0     2.821771969108     0.00000000     0.00000000

---------------------
BASIS SET INFORMATION
---------------------
There are 2 groups of distinct atoms

 Group   1 Type Ni  : 116s77p23d3f2g contracted to 8s7p5d3f2g pattern {19191919191911/151515151511/77711/111/11}
 Group   2 Type H   : 6s3p2d contracted to 4s3p2d pattern {3111/111/11}

Atom   0Ni   basis set group =>   1
Atom   1H    basis set group =>   2
----------------------------------
AUXILIARY/JK BASIS SET INFORMATION
----------------------------------
There are 2 groups of distinct atoms

 Group   1 Type Ni  : 19s14p12d10f7g3h1i contracted to 16s13p11d9f5g3h1i pattern {4111111111111111/2111111111111/21111111111/211111111/31111/111/1}
 Group   2 Type H   : 4s2p2d contracted to 2s2p2d pattern {31/11/11}

Atom   0Ni   basis set group =>   1
Atom   1H    basis set group =>   2


           ************************************************************
           *        Program running with 24 parallel MPI-processes    *
           *              working on a common directory               *
           ************************************************************
------------------------------------------------------------------------------
                           ORCA GTO INTEGRAL CALCULATION
------------------------------------------------------------------------------

                         BASIS SET STATISTICS AND STARTUP INFO

 # of primitive gaussian shells          ...  232
 # of primitive gaussian functions       ...  526
 # of contracted shells                  ...   34
 # of contracted basis functions         ...  116
 Highest angular momentum                ...    4
 Maximum contraction depth               ...   19
 Integral package used                   ... LIBINT
 Integral threshhold            Thresh   ...  1.000e-10
 Primitive cut-off              TCut     ...  1.000e-11


------------------------------ INTEGRAL EVALUATION ----------------------------


 * One electron integrals 
 Pre-screening matrix                    ... done
 Shell pair data                         ... done (   0.001 sec)



           ************************************************************
           *        Program running with 24 parallel MPI-processes    *
           *              working on a common directory               *
           ************************************************************
-------------------------------------------------------------------------------
                                 ORCA SCF
-------------------------------------------------------------------------------

------------
SCF SETTINGS
------------
Hamiltonian:
 Density Functional     Method          .... DFT(GTOs)
 Exchange Functional    Exchange        .... WB97M-V
 Correlation Functional Correlation     .... WB97M-V
 Gradients option       PostSCFGGA      .... off
 Hybrid DFT is turned on
   Fraction HF Exchange ScalHFX         ....  0.150000
   Scaling of DF-GGA-X  ScalDFX         ....  0.000000
   Scaling of DF-GGA-C  ScalDFC         ....  1.000000
   Scaling of DF-LDA-C  ScalLDAC        ....  1.000000
   Perturbative correction              ....  0.000000
   Density functional embedding theory  .... OFF
 Long-range corrected/Screened/Range-Separated Hybrid DFT is turned on
   Amount of maximum screened exact exchange              ....  0.850000
   Range separation parameter mu (erf(mu*r12)/r12)        ....  0.300000
   NL short-range parameter             ....  6.000000
   NL long-range parameter              ....  0.010000


General Settings:
 Integral files         IntName         .... 43_NiH
 Hartree-Fock type      HFTyp           .... UHF
 Total Charge           Charge          ....    0
 Multiplicity           Mult            ....    2
 Number of Electrons    NEL             ....   29
 Basis Dimension        Dim             ....  116
 Nuclear Repulsion      ENuc            ....      9.9228429180 Eh

Convergence Acceleration:
 DIIS                   CNVDIIS         .... on
   Start iteration      DIISMaxIt       ....    12
   Startup error        DIISStart       ....  0.200000
   # of expansion vecs  DIISMaxEq       ....     5
   Bias factor          DIISBfac        ....   1.050
   Max. coefficient     DIISMaxC        ....  10.000
 Newton-Raphson         CNVNR           .... off
 SOSCF                  CNVSOSCF        .... off
 Level Shifting         CNVShift        .... on
   Level shift para.    LevelShift      ....    0.2500
   Turn off err/grad.   ShiftErr        ....    0.0010
 Zerner damping         CNVZerner       .... off
 Static damping         CNVDamp         .... on
   Fraction old density DampFac         ....    0.7000
   Max. Damping (<1)    DampMax         ....    0.9800
   Min. Damping (>=0)   DampMin         ....    0.0000
   Turn off err/grad.   DampErr         ....    0.1000
 Fernandez-Rico         CNVRico         .... off

SCF Procedure:
 Maximum # iterations   MaxIter         ....   125
 SCF integral mode      SCFMode         .... Direct
   Integral package                     .... LIBINT
 Reset frequency        DirectResetFreq ....    20
 Integral Threshold     Thresh          ....  1.000e-10 Eh
 Primitive CutOff       TCut            ....  1.000e-11 Eh

Convergence Tolerance:
 Convergence Check Mode ConvCheckMode   .... Total+1el-Energy
 Convergence forced     ConvForced      .... 0
 Energy Change          TolE            ....  1.000e-06 Eh
 1-El. energy change                    ....  1.000e-03 Eh
 DIIS Error             TolErr          ....  1.000e-06


Diagonalization of the overlap matrix:
Smallest eigenvalue                        ... 1.316e-04
Time for diagonalization                   ...    0.004 sec
Threshold for overlap eigenvalues          ... 1.000e-08
Number of eigenvalues below threshold      ... 0
Time for construction of square roots      ...    0.002 sec
Total time needed                          ...    0.006 sec

-------------------
DFT GRID GENERATION
-------------------

General Integration Accuracy     IntAcc      ...  4.670
Radial Grid Type                 RadialGrid  ... Gauss-Chebyshev
Angular Grid (max. acc.)         AngularGrid ... Lebedev-302
Angular grid pruning method      GridPruning ... 3 (G Style)
Weight generation scheme         WeightScheme... Becke
Basis function cutoff            BFCut       ...    1.0000e-10
Integration weight cutoff        WCut        ...    1.0000e-14
Grids for H and He will be reduced by one unit

# of grid points (after initial pruning)     ...  13058 (   0.0 sec)
# of grid points (after weights+screening)   ...  13021 (   0.0 sec)
nearest neighbour list constructed           ...    0.0 sec
Grid point re-assignment to atoms done       ...    0.0 sec
Grid point division into batches done        ...    0.1 sec
Reduced shell lists constructed in    0.1 sec

Total number of grid points                  ...    13021
Total number of batches                      ...      205
Average number of points per batch           ...       63
Average number of grid points per atom       ...     6510
Average number of shells per batch           ...    15.20 (44.71%)
Average number of basis functions per batch  ...    33.60 (28.97%)
Average number of large shells per batch     ...     8.90 (58.55%)
Average number of large basis fcns per batch ...    19.90 (59.23%)
Maximum spatial batch extension              ...  28.79, 26.18, 17.31 au
Average spatial batch extension              ...   0.91,  0.87,  0.66 au

Time for grid setup =    0.122 sec

------------------------------
INITIAL GUESS: MODEL POTENTIAL
------------------------------
Loading Hartree-Fock densities                     ... done
Calculating cut-offs                               ... done
Setting up the integral package                    ... done
Initializing the effective Hamiltonian             ... done
Starting the Coulomb interaction                   ... done (   0.0 sec)
Reading the grid                                   ... done
Mapping shells                                     ... done
Starting the XC term evaluation                    ... done (   0.0 sec)
  promolecular density results
     # of electrons  =     28.999547690
     EX              =    -61.801956280
     EC              =     -1.296637484
     EX+EC           =    -63.098593763
Transforming the Hamiltonian                       ... done (   0.0 sec)
Diagonalizing the Hamiltonian                      ... done (   0.0 sec)
Back transforming the eigenvectors                 ... done (   0.0 sec)
Now organizing SCF variables                       ... done
                      ------------------
                      INITIAL GUESS DONE (   0.2 sec)
                      ------------------
--------------
SCF ITERATIONS
--------------
ITER       Energy         Delta-E        Max-DP      RMS-DP      [F,P]     Damp
               ***  Starting incremental Fock matrix formation  ***
  0  -1508.8029532462   0.000000000000 0.04760660  0.00115163  0.4027114 0.7000
  1  -1508.8581069783  -0.055153732082 0.02737792  0.00051023  0.0617908 0.7000
                               ***Turning on DIIS***
  2  -1508.8769049274  -0.018797949094 0.04532495  0.00099960  0.0558057 0.0000
  3  -1508.9334001498  -0.056495222422 0.02410660  0.00047710  0.0444711 0.0000
  4  -1508.9361589866  -0.002758836741 0.02136942  0.00019697  0.0211139 0.0000
  5  -1508.9379541787  -0.001795192082 0.02664481  0.00021331  0.0163775 0.0000
  6  -1508.9394194052  -0.001465226506 0.02677942  0.00022578  0.0112701 0.0000
  7  -1508.9403865370  -0.000967131854 0.01439298  0.00012704  0.0061898 0.0000
  8  -1508.9406495498  -0.000263012827 0.00662612  0.00006215  0.0029565 0.0000
  9  -1508.9407103182  -0.000060768388 0.00257945  0.00002709  0.0012723 0.0000
 10  -1508.9407280994  -0.000017781188 0.00141320  0.00001934  0.0005288 0.0000
 11  -1508.9407441847  -0.000016085265 0.00027404  0.00000428  0.0003818 0.0000
 12  -1508.9407476469  -0.000003462266 0.00033948  0.00000432  0.0001637 0.0000
 13  -1508.9407511409  -0.000003494000 0.00022694  0.00000278  0.0000876 0.0000
 14  -1508.9407528187  -0.000001677704 0.00020817  0.00000213  0.0000381 0.0000
 15  -1508.9407540703  -0.000001251653 0.00011834  0.00000122  0.0000258 0.0000
                 **** Energy Check signals convergence ****

               *****************************************************
               *                     SUCCESS                       *
               *           SCF CONVERGED AFTER  16 CYCLES          *
               *****************************************************


Setting up the DFT-NL grid :

General Integration Accuracy     IntAcc      ...  4.340
Radial Grid Type                 RadialGrid  ... Gauss-Chebyshev
Angular Grid (max. acc.)         AngularGrid ... Lebedev-110
Angular grid pruning method      GridPruning ... 3 (G Style)
Weight generation scheme         WeightScheme... Becke
Basis function cutoff            BFCut       ...    1.0000e-10
Integration weight cutoff        WCut        ...    1.0000e-14
Grids for H and He will be reduced by one unit

# of grid points (after initial pruning)     ...   3706 (   0.0 sec)
# of grid points (after weights+screening)   ...   3681 (   0.0 sec)
nearest neighbour list constructed           ...    0.0 sec
Grid point re-assignment to atoms done       ...    0.0 sec
Grid point division into batches done        ...    0.0 sec
Reduced shell lists constructed in    0.0 sec

Total number of grid points                  ...     3681
Total number of batches                      ...       58
Average number of points per batch           ...       63
Average number of grid points per atom       ...     1840
Average number of shells per batch           ...    20.25 (59.56%)
Average number of basis functions per batch  ...    56.25 (48.49%)
Average number of large shells per batch     ...    15.00 (74.07%)
Average number of large basis fcns per batch ...    42.00 (74.67%)
Maximum spatial batch extension              ...  34.10, 26.34, 18.34 au
Average spatial batch extension              ...   1.21,  1.23,  0.81 au

Final grid set up in    0.0 sec

-------------------------------------------------------------------------------
                         DFT-NL dispersion correction                          
-------------------------------------------------------------------------------

SC Energy -1508.940754696 
NL    Energy 0.123192658 
SC+NL Energy -1508.817562038 
NL done in    0.0 sec
-------------------------------------------------------------------------------

----------------
TOTAL SCF ENERGY
----------------

Total Energy       :        -1508.81756204 Eh          -41057.01316 eV

Components:
Nuclear Repulsion  :            9.92284292 Eh             270.01428 eV
Electronic Energy  :        -1518.74040496 Eh          -41327.02744 eV
One Electron Energy:        -2118.19776916 Eh          -57639.09161 eV
Two Electron Energy:          599.45736420 Eh           16312.06417 eV

Virial components:
Potential Energy   :        -3015.95468571 Eh          -82068.29927 eV
Kinetic Energy     :         1507.13712367 Eh           41011.28611 eV
Virial Ratio       :            2.00111499


DFT components:
N(Alpha)           :       15.000005123770 electrons
N(Beta)            :       14.000005161979 electrons
N(Total)           :       29.000010285749 electrons
E(X)               :      -48.774873273698 Eh       
E(C)               :       -1.534908129364 Eh       
NL Energy, E(C,NL) :        0.123192657579 Eh       
E(XC)              :      -50.186588745484 Eh       
DFET-embed. en.    :        0.000000000000 Eh       

---------------
SCF CONVERGENCE
---------------

  Last Energy change         ...   -6.2562e-07  Tolerance :   1.0000e-06
  Last MAX-Density change    ...    4.1034e-05  Tolerance :   1.0000e-05
  Last RMS-Density change    ...    4.7638e-07  Tolerance :   1.0000e-06
  Last DIIS Error            ...    1.2420e-05  Tolerance :   1.0000e-06

             **** THE GBW FILE WAS UPDATED (43_NiH.gbw) ****
             **** DENSITY FILE WAS UPDATED (43_NiH.scfp) ****
             **** ENERGY FILE WAS UPDATED (43_NiH.en.tmp) ****
----------------------
UHF SPIN CONTAMINATION
----------------------

Warning: in a DFT calculation there is little theoretical justification to 
         calculate <S**2> as in Hartree-Fock theory. We will do it anyways
         but you should keep in mind that the values have only limited relevance

Expectation value of <S**2>     :     0.755520
Ideal value S*(S+1) for S=0.5   :     0.750000
Deviation                       :     0.005520

             **** THE GBW FILE WAS UPDATED (43_NiH.gbw) ****
             **** DENSITY FILE WAS UPDATED (43_NiH.scfp) ****
----------------
ORBITAL ENERGIES
----------------
                 SPIN UP ORBITALS
  NO   OCC          E(Eh)            E(eV) 
   0   1.0000    -300.305319     -8171.7232 
   1   1.0000     -35.961335      -978.5577 
   2   1.0000     -31.305984      -851.8791 
   3   1.0000     -31.274431      -851.0205 
   4   1.0000     -31.274430      -851.0205 
   5   1.0000      -4.134037      -112.4929 
   6   1.0000      -2.739007       -74.5322 
   7   1.0000      -2.676610       -72.8343 
   8   1.0000      -2.676609       -72.8342 
   9   1.0000      -0.431898       -11.7525 
  10   1.0000      -0.366057        -9.9609 
  11   1.0000      -0.366056        -9.9609 
  12   1.0000      -0.337189        -9.1754 
  13   1.0000      -0.337189        -9.1754 
  14   1.0000      -0.325511        -8.8576 
  15   0.0000      -0.021608        -0.5880 
  16   0.0000       0.012268         0.3338 
  17   0.0000       0.012268         0.3338 
  18   0.0000       0.020942         0.5698 
  19   0.0000       0.034525         0.9395 
  20   0.0000       0.076755         2.0886 
  21   0.0000       0.076755         2.0886 
  22   0.0000       0.079401         2.1606 
  23   0.0000       0.102331         2.7846 
  24   0.0000       0.102331         2.7846 
  25   0.0000       0.105116         2.8604 
  26   0.0000       0.105116         2.8604 
  27   0.0000       0.106617         2.9012 
  28   0.0000       0.175610         4.7786 
  29   0.0000       0.225083         6.1248 
  30   0.0000       0.263261         7.1637 
  31   0.0000       0.263262         7.1637 
  32   0.0000       0.303822         8.2674 
  33   0.0000       0.340141         9.2557 
  34   0.0000       0.340142         9.2557 
  35   0.0000       0.410754        11.1772 
  36   0.0000       0.437425        11.9029 
  37   0.0000       0.437425        11.9029 
  38   0.0000       0.439364        11.9557 
  39   0.0000       0.439364        11.9557 
  40   0.0000       0.639601        17.4044 
  41   0.0000       0.686311        18.6755 
  42   0.0000       0.805752        21.9256 
  43   0.0000       0.825623        22.4663 
  44   0.0000       0.825624        22.4664 
  45   0.0000       0.964830        26.2544 
  46   0.0000       0.964831        26.2544 
  47   0.0000       0.986700        26.8495 
  48   0.0000       1.015605        27.6360 
  49   0.0000       1.015605        27.6360 
  50   0.0000       1.124321        30.5943 
  51   0.0000       1.124321        30.5943 
  52   0.0000       1.282487        34.8983 
  53   0.0000       1.370536        37.2942 
  54   0.0000       1.370536        37.2942 
  55   0.0000       1.493190        40.6318 
  56   0.0000       1.493193        40.6318 
  57   0.0000       1.510021        41.0898 
  58   0.0000       1.510022        41.0898 
  59   0.0000       1.527956        41.5778 
  60   0.0000       1.559806        42.4445 
  61   0.0000       1.559807        42.4445 
  62   0.0000       1.713998        46.6403 
  63   0.0000       2.002911        54.5020 
  64   0.0000       2.002911        54.5020 
  65   0.0000       2.398023        65.2535 
  66   0.0000       3.046183        82.8908 
  67   0.0000       3.690075       100.4120 
  68   0.0000       3.690075       100.4120 
  69   0.0000       3.691233       100.4436 
  70   0.0000       3.692104       100.4673 
  71   0.0000       3.692148       100.4684 
  72   0.0000       3.866465       105.2119 
  73   0.0000       4.006788       109.0302 
  74   0.0000       4.006788       109.0302 
  75   0.0000       4.046488       110.1105 
  76   0.0000       4.046489       110.1106 
  77   0.0000       4.063581       110.5757 
  78   0.0000       4.063596       110.5761 
  79   0.0000       4.117911       112.0540 
  80   0.0000       4.117911       112.0541 
  81   0.0000       4.224962       114.9670 
  82   0.0000       4.224962       114.9671 
  83   0.0000       4.324175       117.6668 
  84   0.0000       4.444672       120.9457 
  85   0.0000       5.155619       140.2915 
  86   0.0000       5.195630       141.3803 
  87   0.0000       5.195658       141.3811 
  88   0.0000       5.196221       141.3964 
  89   0.0000       5.196221       141.3964 
  90   0.0000       5.235129       142.4551 
  91   0.0000       5.235132       142.4552 
  92   0.0000       5.601549       152.4259 
  93   0.0000       5.601550       152.4259 
  94   0.0000       5.846264       159.0849 
  95   0.0000       5.846266       159.0850 
  96   0.0000       5.903990       160.6557 
  97   0.0000       6.130198       166.8112 
  98   0.0000       6.130199       166.8112 
  99   0.0000       7.518964       204.6014 
 100   0.0000      12.678055       344.9874 
 101   0.0000      12.678055       344.9874 
 102   0.0000      12.690618       345.3293 
 103   0.0000      12.690635       345.3297 
 104   0.0000      12.719870       346.1253 
 105   0.0000      12.719871       346.1253 
 106   0.0000      12.805207       348.4474 
 107   0.0000      14.227686       387.1550 
 108   0.0000      14.227693       387.1552 
 109   0.0000      14.235868       387.3777 
 110   0.0000      14.235868       387.3777 
 111   0.0000      14.242797       387.5662 
 112   0.0000      14.242799       387.5663 
 113   0.0000      14.370307       391.0359 
 114   0.0000      14.370308       391.0359 
 115   0.0000      14.662410       398.9845 

                 SPIN DOWN ORBITALS
  NO   OCC          E(Eh)            E(eV) 
   0   1.0000    -300.304651     -8171.7050 
   1   1.0000     -35.937678      -977.9139 
   2   1.0000     -31.276240      -851.0698 
   3   1.0000     -31.261660      -850.6730 
   4   1.0000     -31.261660      -850.6730 
   5   1.0000      -4.089221      -111.2733 
   6   1.0000      -2.652914       -72.1895 
   7   1.0000      -2.646910       -72.0261 
   8   1.0000      -2.646910       -72.0261 
   9   1.0000      -0.379325       -10.3220 
  10   1.0000      -0.346974        -9.4416 
  11   1.0000      -0.346973        -9.4416 
  12   1.0000      -0.308784        -8.4024 
  13   1.0000      -0.308784        -8.4024 
  14   0.0000      -0.034270        -0.9325 
  15   0.0000       0.002048         0.0557 
  16   0.0000       0.002049         0.0558 
  17   0.0000       0.010865         0.2956 
  18   0.0000       0.026990         0.7344 
  19   0.0000       0.051953         1.4137 
  20   0.0000       0.068650         1.8681 
  21   0.0000       0.068651         1.8681 
  22   0.0000       0.072318         1.9679 
  23   0.0000       0.087115         2.3705 
  24   0.0000       0.087115         2.3705 
  25   0.0000       0.091682         2.4948 
  26   0.0000       0.091682         2.4948 
  27   0.0000       0.116260         3.1636 
  28   0.0000       0.171923         4.6783 
  29   0.0000       0.217149         5.9089 
  30   0.0000       0.258615         7.0373 
  31   0.0000       0.258616         7.0373 
  32   0.0000       0.302720         8.2374 
  33   0.0000       0.333395         9.0721 
  34   0.0000       0.333395         9.0722 
  35   0.0000       0.419065        11.4033 
  36   0.0000       0.425458        11.5773 
  37   0.0000       0.425458        11.5773 
  38   0.0000       0.436321        11.8729 
  39   0.0000       0.436322        11.8729 
  40   0.0000       0.641425        17.4541 
  41   0.0000       0.681091        18.5334 
  42   0.0000       0.807977        21.9862 
  43   0.0000       0.824460        22.4347 
  44   0.0000       0.824461        22.4347 
  45   0.0000       0.964011        26.2321 
  46   0.0000       0.964011        26.2321 
  47   0.0000       0.985477        26.8162 
  48   0.0000       1.012068        27.5398 
  49   0.0000       1.012068        27.5398 
  50   0.0000       1.130182        30.7538 
  51   0.0000       1.130182        30.7538 
  52   0.0000       1.291299        35.1380 
  53   0.0000       1.375296        37.4237 
  54   0.0000       1.375296        37.4237 
  55   0.0000       1.495300        40.6892 
  56   0.0000       1.495301        40.6892 
  57   0.0000       1.514840        41.2209 
  58   0.0000       1.514840        41.2209 
  59   0.0000       1.546457        42.0812 
  60   0.0000       1.571425        42.7606 
  61   0.0000       1.571428        42.7607 
  62   0.0000       1.716099        46.6974 
  63   0.0000       2.005691        54.5776 
  64   0.0000       2.005691        54.5776 
  65   0.0000       2.408216        65.5309 
  66   0.0000       3.042925        82.8022 
  67   0.0000       3.680523       100.1521 
  68   0.0000       3.680570       100.1534 
  69   0.0000       3.688694       100.3745 
  70   0.0000       3.688694       100.3745 
  71   0.0000       3.718268       101.1792 
  72   0.0000       3.882765       105.6554 
  73   0.0000       4.028463       109.6201 
  74   0.0000       4.028463       109.6201 
  75   0.0000       4.041298       109.9693 
  76   0.0000       4.041298       109.9693 
  77   0.0000       4.068557       110.7111 
  78   0.0000       4.068568       110.7114 
  79   0.0000       4.132562       112.4527 
  80   0.0000       4.132562       112.4527 
  81   0.0000       4.249589       115.6372 
  82   0.0000       4.249589       115.6372 
  83   0.0000       4.342168       118.1564 
  84   0.0000       4.484529       122.0302 
  85   0.0000       5.158984       140.3831 
  86   0.0000       5.199921       141.4970 
  87   0.0000       5.199921       141.4970 
  88   0.0000       5.217280       141.9694 
  89   0.0000       5.217308       141.9702 
  90   0.0000       5.243053       142.6707 
  91   0.0000       5.243053       142.6707 
  92   0.0000       5.620377       152.9382 
  93   0.0000       5.620377       152.9382 
  94   0.0000       5.871603       159.7744 
  95   0.0000       5.871606       159.7745 
  96   0.0000       5.966920       162.3681 
  97   0.0000       6.143596       167.1758 
  98   0.0000       6.143597       167.1758 
  99   0.0000       7.561162       205.7497 
 100   0.0000      12.707007       345.7752 
 101   0.0000      12.707024       345.7757 
 102   0.0000      12.709326       345.8383 
 103   0.0000      12.709326       345.8383 
 104   0.0000      12.787456       347.9644 
 105   0.0000      12.787456       347.9644 
 106   0.0000      12.904523       351.1499 
 107   0.0000      14.247941       387.7062 
 108   0.0000      14.247941       387.7062 
 109   0.0000      14.256835       387.9482 
 110   0.0000      14.256839       387.9483 
 111   0.0000      14.267251       388.2316 
 112   0.0000      14.267252       388.2317 
 113   0.0000      14.421462       392.4279 
 114   0.0000      14.421463       392.4280 
 115   0.0000      14.731229       400.8571 

                    ********************************
                    * MULLIKEN POPULATION ANALYSIS *
                    ********************************

--------------------------------------------
MULLIKEN ATOMIC CHARGES AND SPIN POPULATIONS
--------------------------------------------
   0 Ni:    0.047684    0.982324
   1 H :   -0.047684    0.017676
Sum of atomic charges         :    0.0000000
Sum of atomic spin populations:    1.0000000

-----------------------------------------------------
MULLIKEN REDUCED ORBITAL CHARGES AND SPIN POPULATIONS
-----------------------------------------------------
CHARGE
  0 Nis       :     6.731574  s :     6.731574
      pz      :     4.140543  p :    12.142572
      px      :     4.001014
      py      :     4.001014
      dz2     :     1.081408  d :     9.074866
      dxz     :     1.996550
      dyz     :     1.996550
      dx2y2   :     2.000179
      dxy     :     2.000179
      f0      :     0.002699  f :     0.003136
      f+1     :     0.000086
      f-1     :     0.000086
      f+2     :     0.000132
      f-2     :     0.000132
      f+3     :     0.000000
      f-3     :     0.000000
      g0      :     0.000113  g :     0.000168
      g+1     :     0.000019
      g-1     :     0.000019
      g+2     :     0.000009
      g-2     :     0.000009
      g+3     :     0.000000
      g-3     :     0.000000
      g+4     :     0.000000
      g-4     :     0.000000
  1 H s       :     1.048305  s :     1.048305
      pz      :    -0.006062  p :    -0.002361
      px      :     0.001850
      py      :     0.001850
      dz2     :     0.001419  d :     0.001740
      dxz     :     0.000480
      dyz     :     0.000480
      dx2y2   :    -0.000320
      dxy     :    -0.000320

SPIN
  0 Nis       :     0.161178  s :     0.161178
      pz      :    -0.006985  p :    -0.007390
      px      :    -0.000203
      py      :    -0.000203
      dz2     :     0.828375  d :     0.828367
      dxz     :     0.000208
      dyz     :     0.000208
      dx2y2   :    -0.000212
      dxy     :    -0.000212
      f0      :     0.000166  f :     0.000126
      f+1     :    -0.000010
      f-1     :    -0.000010
      f+2     :    -0.000010
      f-2     :    -0.000010
      f+3     :    -0.000000
      f-3     :    -0.000000
      g0      :     0.000043  g :     0.000043
      g+1     :     0.000008
      g-1     :     0.000008
      g+2     :    -0.000007
      g-2     :    -0.000007
      g+3     :    -0.000000
      g-3     :     0.000000
      g+4     :     0.000000
      g-4     :     0.000000
  1 H s       :     0.016408  s :     0.016408
      pz      :     0.000191  p :     0.000162
      px      :    -0.000015
      py      :    -0.000015
      dz2     :     0.000623  d :     0.001106
      dxz     :     0.000013
      dyz     :     0.000013
      dx2y2   :     0.000229
      dxy     :     0.000229


                     *******************************
                     * LOEWDIN POPULATION ANALYSIS *
                     *******************************

-------------------------------------------
LOEWDIN ATOMIC CHARGES AND SPIN POPULATIONS
-------------------------------------------
   0 Ni:    0.553857    0.970217
   1 H :   -0.553857    0.029783

----------------------------------------------------
LOEWDIN REDUCED ORBITAL CHARGES AND SPIN POPULATIONS
----------------------------------------------------
CHARGE
  0 Nis       :     6.479658  s :     6.479658
      pz      :     4.111858  p :    12.044044
      px      :     3.966093
      py      :     3.966093
      dz2     :     1.080194  d :     8.907395
      dxz     :     1.924761
      dyz     :     1.924761
      dx2y2   :     1.988839
      dxy     :     1.988839
      f0      :     0.010052  f :     0.014683
      f+1     :     0.001924
      f-1     :     0.001924
      f+2     :     0.000391
      f-2     :     0.000391
      f+3     :     0.000000
      f-3     :     0.000000
      g0      :     0.000272  g :     0.000363
      g+1     :     0.000039
      g-1     :     0.000039
      g+2     :     0.000006
      g-2     :     0.000006
      g+3     :     0.000000
      g-3     :     0.000000
      g+4     :     0.000000
      g-4     :     0.000000
  1 H s       :     1.032602  s :     1.032602
      pz      :     0.162224  p :     0.254121
      px      :     0.045949
      py      :     0.045949
      dz2     :     0.123139  d :     0.267134
      dxz     :     0.061234
      dyz     :     0.061234
      dx2y2   :     0.010763
      dxy     :     0.010763

SPIN
  0 Nis       :     0.170584  s :     0.170584
      pz      :    -0.003262  p :    -0.004690
      px      :    -0.000714
      py      :    -0.000714
      dz2     :     0.799650  d :     0.804333
      dxz     :     0.001811
      dyz     :     0.001811
      dx2y2   :     0.000531
      dxy     :     0.000531
      f0      :     0.000010  f :    -0.000059
      f+1     :    -0.000004
      f-1     :    -0.000004
      f+2     :    -0.000030
      f-2     :    -0.000030
      f+3     :    -0.000000
      f-3     :    -0.000000
      g0      :     0.000046  g :     0.000049
      g+1     :     0.000006
      g-1     :     0.000006
      g+2     :    -0.000004
      g-2     :    -0.000004
      g+3     :    -0.000000
      g-3     :     0.000000
      g+4     :     0.000000
      g-4     :     0.000000
  1 H s       :     0.010966  s :     0.010966
      pz      :     0.017895  p :     0.016042
      px      :    -0.000927
      py      :    -0.000927
      dz2     :     0.004112  d :     0.002776
      dxz     :    -0.000171
      dyz     :    -0.000171
      dx2y2   :    -0.000497
      dxy     :    -0.000497


                      *****************************
                      * MAYER POPULATION ANALYSIS *
                      *****************************

  NA   - Mulliken gross atomic population
  ZA   - Total nuclear charge
  QA   - Mulliken gross atomic charge
  VA   - Mayer's total valence
  BVA  - Mayer's bonded valence
  FA   - Mayer's free valence

  ATOM       NA         ZA         QA         VA         BVA        FA
  0 Ni    27.9523    28.0000     0.0477     1.9699     1.0511     0.9188
  1 H      1.0477     1.0000    -0.0477     1.0558     1.0511     0.0047

  Mayer bond orders larger than 0.100000
B(  0-Ni,  1-H ) :   1.0511 

-------
TIMINGS
-------

Total SCF time: 0 days 0 hours 3 min 9 sec 

Total time                  ....     189.861 sec
Sum of individual times     ....     189.545 sec  ( 99.8%)

Fock matrix formation       ....     189.221 sec  ( 99.7%)
  XC integration            ....       0.422 sec  (  0.2% of F)
    Basis function eval.    ....       0.063 sec  ( 14.8% of XC)
    Density eval.           ....       0.061 sec  ( 14.5% of XC)
    XC-Functional eval.     ....       0.018 sec  (  4.2% of XC)
    XC-Potential eval.      ....       0.165 sec  ( 39.1% of XC)
Diagonalization             ....       0.057 sec  (  0.0%)
Density matrix formation    ....       0.009 sec  (  0.0%)
Population analysis         ....       0.010 sec  (  0.0%)
Initial guess               ....       0.092 sec  (  0.0%)
Orbital Transformation      ....       0.000 sec  (  0.0%)
Orbital Orthonormalization  ....       0.000 sec  (  0.0%)
DIIS solution               ....       0.022 sec  (  0.0%)
Grid generation             ....       0.134 sec  (  0.1%)

-------------------------   --------------------
FINAL SINGLE POINT ENERGY     -1508.817562038343
-------------------------   --------------------


                            ***************************************
                            *     ORCA property calculations      *
                            ***************************************

                                    ---------------------
                                    Active property flags
                                    ---------------------
   (+) Dipole Moment


------------------------------------------------------------------------------
                       ORCA ELECTRIC PROPERTIES CALCULATION
------------------------------------------------------------------------------

Dipole Moment Calculation                       ... on
Quadrupole Moment Calculation                   ... off
Polarizability Calculation                      ... off
GBWName                                         ... 43_NiH.gbw
Electron density file                           ... 43_NiH.scfp
The origin for moment calculation is the CENTER OF MASS  = ( 0.000000,  0.000000  0.526478)

-------------
DIPOLE MOMENT
-------------
                                X             Y             Z
Electronic contribution:     -0.00000       0.00000      -2.70231
Nuclear contribution   :      0.00000       0.00000       1.44028
                        -----------------------------------------
Total Dipole Moment    :     -0.00000       0.00000      -1.26203
                        -----------------------------------------
Magnitude (a.u.)       :      1.26203
Magnitude (Debye)      :      3.20782



--------------------
Rotational spectrum 
--------------------
 
Rotational constants in cm-1:     0.000000     7.629300     7.629300 
Rotational constants in MHz :     0.000000 228720.664008 228720.664008 

 Dipole components along the rotational axes: 
x,y,z [a.u.] :    -1.262027     0.000000    -0.000000 
x,y,z [Debye]:    -3.207817     0.000000    -0.000000 

 

Timings for individual modules:

Sum of individual times         ...      193.199 sec (=   3.220 min)
GTO integral calculation        ...        2.800 sec (=   0.047 min)   1.4 %
SCF iterations                  ...      190.399 sec (=   3.173 min)  98.6 %
                             ****ORCA TERMINATED NORMALLY****
TOTAL RUN TIME: 0 days 0 hours 3 minutes 13 seconds 800 msec
