
                                 *****************
                                 * O   R   C   A *
                                 *****************

           --- An Ab Initio, DFT and Semiempirical electronic structure package ---

                  #######################################################
                  #                        -***-                        #
                  #          Department of theory and spectroscopy      #
                  #               Directorship: Frank Neese             #
                  #        Max Planck Institute fuer Kohlenforschung    #
                  #                Kaiser Wilhelm Platz 1               #
                  #                 D-45470 Muelheim/Ruhr               #
                  #                      Germany                        #
                  #                                                     #
                  #                  All rights reserved                #
                  #                        -***-                        #
                  #######################################################


                         Program Version 4.2.0 -  RELEASE  -


 With contributions from (in alphabetic order):
   Daniel Aravena         : Magnetic Suceptibility
   Michael Atanasov       : Ab Initio Ligand Field Theory (pilot matlab implementation)
   Alexander A. Auer      : GIAO ZORA, VPT2
   Ute Becker             : Parallelization
   Giovanni Bistoni       : ED, misc. LED, open-shell LED, HFLED
   Martin Brehm           : Molecular dynamics
   Dmytro Bykov           : SCF Hessian
   Vijay G. Chilkuri      : MRCI spin determinant printing, contributions to CSF-ICE
   Dipayan Datta          : RHF DLPNO-CCSD density
   Achintya Kumar Dutta   : EOM-CC, STEOM-CC
   Dmitry Ganyushin       : Spin-Orbit,Spin-Spin,Magnetic field MRCI
   Miquel Garcia          : C-PCM Hessian, Gaussian charge scheme
   Yang Guo               : DLPNO-NEVPT2, CIM, IAO-localization
   Andreas Hansen         : Spin unrestricted coupled pair/coupled cluster methods
   Benjamin Helmich-Paris : CASSCF linear response (MC-RPA)
   Lee Huntington         : MR-EOM, pCC
   Robert Izsak           : Overlap fitted RIJCOSX, COSX-SCS-MP3, EOM
   Christian Kollmar      : KDIIS, OOCD, Brueckner-CCSD(T), CCSD density
   Simone Kossmann        : Meta GGA functionals, TD-DFT gradient, OOMP2, MP2 Hessian
   Martin Krupicka        : AUTO-CI
   Lucas Lang             : DCDCAS
   Dagmar Lenk            : GEPOL surface, SMD
   Dimitrios Liakos       : Extrapolation schemes; Compound Job, initial MDCI parallelization
   Dimitrios Manganas     : Further ROCIS development; embedding schemes
   Dimitrios Pantazis     : SARC Basis sets
   Taras Petrenko         : DFT Hessian,TD-DFT gradient, ASA, ECA, R-Raman, ABS, FL, XAS/XES, NRVS
   Peter Pinski           : DLPNO-MP2, DLPNO-MP2 Gradient
   Christoph Reimann      : Effective Core Potentials
   Marius Retegan         : Local ZFS, SOC
   Christoph Riplinger    : Optimizer, TS searches, QM/MM, DLPNO-CCSD(T), (RO)-DLPNO pert. Triples
   Tobias Risthaus        : Range-separated hybrids, TD-DFT gradient, RPA, STAB
   Michael Roemelt        : Original ROCIS implementation
   Masaaki Saitow         : Open-shell DLPNO-CCSD energy and density
   Barbara Sandhoefer     : DKH picture change effects
   Avijit Sen             : IP-ROCIS
   Kantharuban Sivalingam : CASSCF convergence, NEVPT2, FIC-MRCI
   Bernardo de Souza      : ESD, SOC TD-DFT
   Georgi Stoychev        : AutoAux, RI-MP2 NMR
   Willem Van den Heuvel  : Paramagnetic NMR
   Boris Wezisla          : Elementary symmetry handling
   Frank Wennmohs         : Technical directorship


 We gratefully acknowledge several colleagues who have allowed us to
 interface, adapt or use parts of their codes:
   Stefan Grimme, W. Hujo, H. Kruse,             : VdW corrections, initial TS optimization,
                  C. Bannwarth                     DFT functionals, gCP, sTDA/sTD-DF
   Ed Valeev, F. Pavosevic, A. Kumar             : LibInt (2-el integral package), F12 methods
   Garnet Chan, S. Sharma, J. Yang, R. Olivares  : DMRG
   Ulf Ekstrom                                   : XCFun DFT Library
   Mihaly Kallay                                 : mrcc  (arbitrary order and MRCC methods)
   Andreas Klamt, Michael Diedenhofen            : otool_cosmo (COSMO solvation model)
   Jiri Pittner, Ondrej Demel                    : Mk-CCSD
   Frank Weinhold                                : gennbo (NPA and NBO analysis)
   Christopher J. Cramer and Donald G. Truhlar   : smd solvation model
   Lars Goerigk                                  : TD-DFT with DH, B97 family of functionals
   V. Asgeirsson, H. Jonsson                     : NEB implementation
   FAccTs GmbH                                   : IRC, NEB, NEB-TS, Multilevel, MM, QM/MM, CI optimization
   S Lehtola, MJT Oliveira, MAL Marques          : LibXC Library


 Your calculation uses the libint2 library for the computation of 2-el integrals
 For citations please refer to: http://libint.valeyev.net

 Your ORCA version has been built with support for libXC version: 4.2.3
 For citations please refer to: https://tddft.org/programs/libxc/

 This ORCA versions uses:
   CBLAS   interface :  Fast vector & matrix operations
   LAPACKE interface :  Fast linear algebra routines
   SCALAPACK package :  Parallel linear algebra routines


Your calculation utilizes the DFT-NL dispersion correction.
Cite in your paper:
Vydrov, O. A.; Van Voorhis, T. J. Chem. Phys. 2010, 133, 244103
Hujo, W.; Grimme, S. J. Chem. Theory Comput. 2011, 7, 3866 
   

----- Orbital basis set information -----
Your calculation utilizes the basis: aug-cc-pVTZ 
    H, B-Ne : Obtained from the ccRepo (grant-hill.group.shef.ac.uk/ccrepo) Feb. 2017
              R. A. Kendall, T. H. Dunning, Jr., R. J. Harrison, J. Chem. Phys. 96, 6796 (1992)
         He : Obtained from the ccRepo (grant-hill.group.shef.ac.uk/ccrepo) Feb. 2017
              D. E. Woon, T. H. Dunning, Jr., J. Chem. Phys. 100, 2975 (1994)
  Li-Be, Na : Obtained from the ccRepo (grant-hill.group.shef.ac.uk/ccrepo) Feb. 2017
              B. P. Prascher, D. E. Woon, K. A. Peterson, T. H. Dunning, Jr., A. K. Wilson, Theor. Chem. Acc. 128, 69 (2011)
         Mg : Obtained from the Peterson Research Group Website (tyr0.chem.wsu.edu/~kipeters) Feb. 2017
              B. P. Prascher, D. E. Woon, K. A. Peterson, T. H. Dunning, Jr., A. K. Wilson, Theor. Chem. Acc. 128, 69 (2011)
      Al-Ar : Obtained from the ccRepo (grant-hill.group.shef.ac.uk/ccrepo) Feb. 2017
              D. E. Woon, T. H. Dunning, Jr., J. Chem. Phys. 98, 1358 (1993)
      Sc-Zn : Obtained from the ccRepo (grant-hill.group.shef.ac.uk/ccrepo) Feb. 2017
              N. B. Balabanov, K. A. Peterson, J. Chem. Phys. 123, 064107 (2005)
              N. B. Balabanov, K. A. Peterson, J. Chem. Phys. 125, 074110 (2006)
      Ga-Kr : Obtained from the ccRepo (grant-hill.group.shef.ac.uk/ccrepo) Feb. 2017
              A. K. Wilson, D. E. Woon, K. A. Peterson, T. H. Dunning, Jr., J. Chem. Phys. 110, 7667 (1999)
     Ag, Au : Obtained from the Peterson Research Group Website (tyr0.chem.wsu.edu/~kipeters) Feb. 2017
              K. A. Peterson, C. Puzzarini, Theor. Chem. Acc. 114, 283 (2005)

----- AuxJK basis set information -----
Your calculation utilizes the auxiliary basis: def2/JK
   H-Ba, Hf-Rn: F. Weigend, J. Comput. Chem. 29, 167 (2008).

================================================================================
                                        WARNINGS
                       Please study these warnings very carefully!
================================================================================


INFO   : the flag for use of LIBINT has been found!

================================================================================
                                       INPUT FILE
================================================================================
NAME = 49_CuH.in
|  1> #
|  2> # 49_CuH wb97m-v/aug-cc-pvtz
|  3> #
|  4> ! wb97m-v aug-cc-pvtz def2/jk grid4 nofinalgrid
|  5> 
|  6> *xyz 0 1
|  7>   Cu  0.00000000000000      0.00000000000000      0.26188782360473
|  8>   H   0.00000000000000      0.00000000000000      1.73811217639527
|  9> *
| 10> 
| 11> %pal
| 12> nprocs 24
| 13> end
| 14> 
| 15> 
| 16>                          ****END OF INPUT****
================================================================================

                       ****************************
                       * Single Point Calculation *
                       ****************************

---------------------------------
CARTESIAN COORDINATES (ANGSTROEM)
---------------------------------
  Cu     0.000000    0.000000    0.261888
  H      0.000000    0.000000    1.738112

----------------------------
CARTESIAN COORDINATES (A.U.)
----------------------------
  NO LB      ZA    FRAG     MASS         X           Y           Z
   0 Cu   29.0000    0    63.550    0.000000    0.000000    0.494896
   1 H     1.0000    0     1.008    0.000000    0.000000    3.284556

--------------------------------
INTERNAL COORDINATES (ANGSTROEM)
--------------------------------
 Cu     0   0   0     0.000000000000     0.00000000     0.00000000
 H      1   0   0     1.476224352791     0.00000000     0.00000000

---------------------------
INTERNAL COORDINATES (A.U.)
---------------------------
 Cu     0   0   0     0.000000000000     0.00000000     0.00000000
 H      1   0   0     2.789659738999     0.00000000     0.00000000

---------------------
BASIS SET INFORMATION
---------------------
There are 2 groups of distinct atoms

 Group   1 Type Cu  : 116s77p23d3f2g contracted to 8s7p5d3f2g pattern {19191919191911/151515151511/77711/111/11}
 Group   2 Type H   : 6s3p2d contracted to 4s3p2d pattern {3111/111/11}

Atom   0Cu   basis set group =>   1
Atom   1H    basis set group =>   2
----------------------------------
AUXILIARY/JK BASIS SET INFORMATION
----------------------------------
There are 2 groups of distinct atoms

 Group   1 Type Cu  : 19s14p12d10f7g3h1i contracted to 16s13p11d9f5g3h1i pattern {4111111111111111/2111111111111/21111111111/211111111/31111/111/1}
 Group   2 Type H   : 4s2p2d contracted to 2s2p2d pattern {31/11/11}

Atom   0Cu   basis set group =>   1
Atom   1H    basis set group =>   2


           ************************************************************
           *        Program running with 24 parallel MPI-processes    *
           *              working on a common directory               *
           ************************************************************
------------------------------------------------------------------------------
                           ORCA GTO INTEGRAL CALCULATION
------------------------------------------------------------------------------

                         BASIS SET STATISTICS AND STARTUP INFO

 # of primitive gaussian shells          ...  232
 # of primitive gaussian functions       ...  526
 # of contracted shells                  ...   34
 # of contracted basis functions         ...  116
 Highest angular momentum                ...    4
 Maximum contraction depth               ...   19
 Integral package used                   ... LIBINT
 Integral threshhold            Thresh   ...  1.000e-10
 Primitive cut-off              TCut     ...  1.000e-11


------------------------------ INTEGRAL EVALUATION ----------------------------


 * One electron integrals 
 Pre-screening matrix                    ... done
 Shell pair data                         ... done (   0.001 sec)



           ************************************************************
           *        Program running with 24 parallel MPI-processes    *
           *              working on a common directory               *
           ************************************************************
-------------------------------------------------------------------------------
                                 ORCA SCF
-------------------------------------------------------------------------------

------------
SCF SETTINGS
------------
Hamiltonian:
 Density Functional     Method          .... DFT(GTOs)
 Exchange Functional    Exchange        .... WB97M-V
 Correlation Functional Correlation     .... WB97M-V
 Gradients option       PostSCFGGA      .... off
 Hybrid DFT is turned on
   Fraction HF Exchange ScalHFX         ....  0.150000
   Scaling of DF-GGA-X  ScalDFX         ....  0.000000
   Scaling of DF-GGA-C  ScalDFC         ....  1.000000
   Scaling of DF-LDA-C  ScalLDAC        ....  1.000000
   Perturbative correction              ....  0.000000
   Density functional embedding theory  .... OFF
 Long-range corrected/Screened/Range-Separated Hybrid DFT is turned on
   Amount of maximum screened exact exchange              ....  0.850000
   Range separation parameter mu (erf(mu*r12)/r12)        ....  0.300000
   NL short-range parameter             ....  6.000000
   NL long-range parameter              ....  0.010000


General Settings:
 Integral files         IntName         .... 49_CuH
 Hartree-Fock type      HFTyp           .... RHF
 Total Charge           Charge          ....    0
 Multiplicity           Mult            ....    1
 Number of Electrons    NEL             ....   30
 Basis Dimension        Dim             ....  116
 Nuclear Repulsion      ENuc            ....     10.3955330446 Eh

Convergence Acceleration:
 DIIS                   CNVDIIS         .... on
   Start iteration      DIISMaxIt       ....    12
   Startup error        DIISStart       ....  0.200000
   # of expansion vecs  DIISMaxEq       ....     5
   Bias factor          DIISBfac        ....   1.050
   Max. coefficient     DIISMaxC        ....  10.000
 Newton-Raphson         CNVNR           .... off
 SOSCF                  CNVSOSCF        .... off
 Level Shifting         CNVShift        .... on
   Level shift para.    LevelShift      ....    0.2500
   Turn off err/grad.   ShiftErr        ....    0.0010
 Zerner damping         CNVZerner       .... off
 Static damping         CNVDamp         .... on
   Fraction old density DampFac         ....    0.7000
   Max. Damping (<1)    DampMax         ....    0.9800
   Min. Damping (>=0)   DampMin         ....    0.0000
   Turn off err/grad.   DampErr         ....    0.1000
 Fernandez-Rico         CNVRico         .... off

SCF Procedure:
 Maximum # iterations   MaxIter         ....   125
 SCF integral mode      SCFMode         .... Direct
   Integral package                     .... LIBINT
 Reset frequency        DirectResetFreq ....    20
 Integral Threshold     Thresh          ....  1.000e-10 Eh
 Primitive CutOff       TCut            ....  1.000e-11 Eh

Convergence Tolerance:
 Convergence Check Mode ConvCheckMode   .... Total+1el-Energy
 Convergence forced     ConvForced      .... 0
 Energy Change          TolE            ....  1.000e-06 Eh
 1-El. energy change                    ....  1.000e-03 Eh
 DIIS Error             TolErr          ....  1.000e-06


Diagonalization of the overlap matrix:
Smallest eigenvalue                        ... 1.997e-04
Time for diagonalization                   ...    0.004 sec
Threshold for overlap eigenvalues          ... 1.000e-08
Number of eigenvalues below threshold      ... 0
Time for construction of square roots      ...    0.002 sec
Total time needed                          ...    0.006 sec

-------------------
DFT GRID GENERATION
-------------------

General Integration Accuracy     IntAcc      ...  4.670
Radial Grid Type                 RadialGrid  ... Gauss-Chebyshev
Angular Grid (max. acc.)         AngularGrid ... Lebedev-302
Angular grid pruning method      GridPruning ... 3 (G Style)
Weight generation scheme         WeightScheme... Becke
Basis function cutoff            BFCut       ...    1.0000e-10
Integration weight cutoff        WCut        ...    1.0000e-14
Grids for H and He will be reduced by one unit

# of grid points (after initial pruning)     ...  12950 (   0.0 sec)
# of grid points (after weights+screening)   ...  12913 (   0.0 sec)
nearest neighbour list constructed           ...    0.0 sec
Grid point re-assignment to atoms done       ...    0.0 sec
Grid point division into batches done        ...    0.1 sec
Reduced shell lists constructed in    0.1 sec

Total number of grid points                  ...    12913
Total number of batches                      ...      203
Average number of points per batch           ...       63
Average number of grid points per atom       ...     6456
Average number of shells per batch           ...    14.50 (42.65%)
Average number of basis functions per batch  ...    32.10 (27.67%)
Average number of large shells per batch     ...     7.40 (51.03%)
Average number of large basis fcns per batch ...    15.80 (49.22%)
Maximum spatial batch extension              ...  28.79, 26.18, 17.10 au
Average spatial batch extension              ...   0.92,  0.88,  0.65 au

Time for grid setup =    0.118 sec

------------------------------
INITIAL GUESS: MODEL POTENTIAL
------------------------------
Loading Hartree-Fock densities                     ... done
Calculating cut-offs                               ... done
Setting up the integral package                    ... done
Initializing the effective Hamiltonian             ... done
Starting the Coulomb interaction                   ... done (   0.0 sec)
Reading the grid                                   ... done
Mapping shells                                     ... done
Starting the XC term evaluation                    ... done (   0.0 sec)
  promolecular density results
     # of electrons  =     29.999531113
     EX              =    -65.743991924
     EC              =     -1.365294809
     EX+EC           =    -67.109286733
Transforming the Hamiltonian                       ... done (   0.0 sec)
Diagonalizing the Hamiltonian                      ... done (   0.0 sec)
Back transforming the eigenvectors                 ... done (   0.0 sec)
Now organizing SCF variables                       ... done
                      ------------------
                      INITIAL GUESS DONE (   0.2 sec)
                      ------------------
--------------
SCF ITERATIONS
--------------
ITER       Energy         Delta-E        Max-DP      RMS-DP      [F,P]     Damp
               ***  Starting incremental Fock matrix formation  ***
  0  -1641.1083105993   0.000000000000 0.05040253  0.00153772  0.2169431 0.7000
  1  -1641.1294080418  -0.021097442576 0.03755971  0.00089582  0.0744134 0.7000
                               ***Turning on DIIS***
  2  -1641.1386800406  -0.009271998775 0.07760274  0.00180317  0.0484134 0.0000
  3  -1641.1601455340  -0.021465493411 0.01991575  0.00048788  0.0260849 0.0000
  4  -1641.1607940796  -0.000648545593 0.00689916  0.00017679  0.0037399 0.0000
  5  -1641.1608558317  -0.000061752070 0.00349608  0.00007989  0.0038565 0.0000
  6  -1641.1608849515  -0.000029119852 0.00251294  0.00005767  0.0020748 0.0000
  7  -1641.1609024236  -0.000017472064 0.00211704  0.00004447  0.0014305 0.0000
  8  -1641.1609119783  -0.000009554697 0.00230692  0.00005020  0.0009438 0.0000
  9  -1641.1609182589  -0.000006280611 0.00117633  0.00002102  0.0003695 0.0000
 10  -1641.1609193067  -0.000001047791 0.00056934  0.00001011  0.0001390 0.0000
 11  -1641.1609194936  -0.000000186913 0.00025912  0.00000456  0.0000543 0.0000
 12  -1641.1609195200  -0.000000026425 0.00003120  0.00000059  0.0000281 0.0000
                 **** Energy Check signals convergence ****

               *****************************************************
               *                     SUCCESS                       *
               *           SCF CONVERGED AFTER  13 CYCLES          *
               *****************************************************


Setting up the DFT-NL grid :

General Integration Accuracy     IntAcc      ...  4.340
Radial Grid Type                 RadialGrid  ... Gauss-Chebyshev
Angular Grid (max. acc.)         AngularGrid ... Lebedev-110
Angular grid pruning method      GridPruning ... 3 (G Style)
Weight generation scheme         WeightScheme... Becke
Basis function cutoff            BFCut       ...    1.0000e-10
Integration weight cutoff        WCut        ...    1.0000e-14
Grids for H and He will be reduced by one unit

# of grid points (after initial pruning)     ...   3706 (   0.0 sec)
# of grid points (after weights+screening)   ...   3681 (   0.0 sec)
nearest neighbour list constructed           ...    0.0 sec
Grid point re-assignment to atoms done       ...    0.0 sec
Grid point division into batches done        ...    0.0 sec
Reduced shell lists constructed in    0.0 sec

Total number of grid points                  ...     3681
Total number of batches                      ...       58
Average number of points per batch           ...       63
Average number of grid points per atom       ...     1840
Average number of shells per batch           ...    20.25 (59.56%)
Average number of basis functions per batch  ...    56.25 (48.49%)
Average number of large shells per batch     ...    13.75 (67.90%)
Average number of large basis fcns per batch ...    34.75 (61.78%)
Maximum spatial batch extension              ...  34.10, 26.34, 18.34 au
Average spatial batch extension              ...   1.21,  1.23,  0.81 au

Final grid set up in    0.0 sec

-------------------------------------------------------------------------------
                         DFT-NL dispersion correction                          
-------------------------------------------------------------------------------

SC Energy -1641.160919522 
NL    Energy 0.127551718 
SC+NL Energy -1641.033367803 
NL done in    0.0 sec
-------------------------------------------------------------------------------

----------------
TOTAL SCF ENERGY
----------------

Total Energy       :        -1641.03336780 Eh          -44654.78814 eV

Components:
Nuclear Repulsion  :           10.39553304 Eh             282.87684 eV
Electronic Energy  :        -1651.42890085 Eh          -44937.66498 eV
One Electron Energy:        -2308.70743292 Eh          -62823.12312 eV
Two Electron Energy:          657.27853207 Eh           17885.45814 eV

Virial components:
Potential Energy   :        -3280.25544881 Eh          -89260.28867 eV
Kinetic Energy     :         1639.22208101 Eh           44605.50052 eV
Virial Ratio       :            2.00110497


DFT components:
N(Alpha)           :       15.000006476236 electrons
N(Beta)            :       15.000006476236 electrons
N(Total)           :       30.000012952471 electrons
E(X)               :      -51.910941001526 Eh       
E(C)               :       -1.621822679312 Eh       
NL Energy, E(C,NL) :        0.127551718242 Eh       
E(XC)              :      -53.405211962595 Eh       
DFET-embed. en.    :        0.000000000000 Eh       

---------------
SCF CONVERGENCE
---------------

  Last Energy change         ...   -1.6710e-09  Tolerance :   1.0000e-06
  Last MAX-Density change    ...    2.8332e-05  Tolerance :   1.0000e-05
  Last RMS-Density change    ...    5.5223e-07  Tolerance :   1.0000e-06
  Last DIIS Error            ...    2.2110e-05  Tolerance :   1.0000e-06

             **** THE GBW FILE WAS UPDATED (49_CuH.gbw) ****
             **** DENSITY FILE WAS UPDATED (49_CuH.scfp) ****
             **** ENERGY FILE WAS UPDATED (49_CuH.en.tmp) ****
             **** THE GBW FILE WAS UPDATED (49_CuH.gbw) ****
             **** DENSITY FILE WAS UPDATED (49_CuH.scfp) ****
----------------
ORBITAL ENERGIES
----------------

  NO   OCC          E(Eh)            E(eV) 
   0   2.0000    -323.537996     -8803.9165 
   1   2.0000     -39.054644     -1062.7309 
   2   2.0000     -34.154916      -929.4025 
   3   2.0000     -34.153728      -929.3702 
   4   2.0000     -34.153728      -929.3702 
   5   2.0000      -4.456190      -121.2591 
   6   2.0000      -2.924213       -79.5719 
   7   2.0000      -2.916953       -79.3743 
   8   2.0000      -2.916953       -79.3743 
   9   2.0000      -0.434847       -11.8328 
  10   2.0000      -0.393888       -10.7182 
  11   2.0000      -0.393888       -10.7182 
  12   2.0000      -0.386669       -10.5218 
  13   2.0000      -0.386669       -10.5218 
  14   2.0000      -0.331383        -9.0174 
  15   0.0000      -0.024282        -0.6607 
  16   0.0000       0.012227         0.3327 
  17   0.0000       0.012227         0.3327 
  18   0.0000       0.021077         0.5735 
  19   0.0000       0.034220         0.9312 
  20   0.0000       0.077230         2.1015 
  21   0.0000       0.077741         2.1154 
  22   0.0000       0.077741         2.1154 
  23   0.0000       0.148274         4.0347 
  24   0.0000       0.165219         4.4958 
  25   0.0000       0.165219         4.4958 
  26   0.0000       0.174423         4.7463 
  27   0.0000       0.174424         4.7463 
  28   0.0000       0.178978         4.8702 
  29   0.0000       0.230536         6.2732 
  30   0.0000       0.271696         7.3932 
  31   0.0000       0.271696         7.3932 
  32   0.0000       0.321518         8.7490 
  33   0.0000       0.352688         9.5971 
  34   0.0000       0.352688         9.5971 
  35   0.0000       0.500184        13.6107 
  36   0.0000       0.624644        16.9974 
  37   0.0000       0.636756        17.3270 
  38   0.0000       0.636756        17.3270 
  39   0.0000       0.656398        17.8615 
  40   0.0000       0.656399        17.8615 
  41   0.0000       0.769957        20.9516 
  42   0.0000       0.827384        22.5143 
  43   0.0000       0.827385        22.5143 
  44   0.0000       0.879485        23.9320 
  45   0.0000       0.991183        26.9715 
  46   0.0000       0.991183        26.9715 
  47   0.0000       1.026128        27.9224 
  48   0.0000       1.040611        28.3165 
  49   0.0000       1.040611        28.3165 
  50   0.0000       1.202439        32.7200 
  51   0.0000       1.202439        32.7200 
  52   0.0000       1.324599        36.0442 
  53   0.0000       1.544238        42.0209 
  54   0.0000       1.544238        42.0209 
  55   0.0000       1.635706        44.5098 
  56   0.0000       1.666711        45.3535 
  57   0.0000       1.666713        45.3536 
  58   0.0000       1.984373        53.9975 
  59   0.0000       1.984373        53.9975 
  60   0.0000       2.056306        55.9549 
  61   0.0000       2.270051        61.7712 
  62   0.0000       2.270054        61.7713 
  63   0.0000       2.295416        62.4614 
  64   0.0000       2.295416        62.4614 
  65   0.0000       2.599693        70.7412 
  66   0.0000       3.066939        83.4556 
  67   0.0000       3.688836       100.3783 
  68   0.0000       3.688875       100.3794 
  69   0.0000       3.849152       104.7407 
  70   0.0000       3.849152       104.7407 
  71   0.0000       3.954065       107.5956 
  72   0.0000       4.074923       110.8843 
  73   0.0000       4.074923       110.8843 
  74   0.0000       4.204717       114.4162 
  75   0.0000       4.434371       120.6654 
  76   0.0000       4.434371       120.6654 
  77   0.0000       4.502892       122.5299 
  78   0.0000       4.502892       122.5299 
  79   0.0000       4.559332       124.0657 
  80   0.0000       4.559338       124.0659 
  81   0.0000       4.613000       125.5261 
  82   0.0000       4.732970       128.7907 
  83   0.0000       4.732970       128.7907 
  84   0.0000       4.895700       133.2188 
  85   0.0000       5.338031       145.2552 
  86   0.0000       6.214236       169.0980 
  87   0.0000       6.214236       169.0980 
  88   0.0000       6.218867       169.2240 
  89   0.0000       6.218912       169.2252 
  90   0.0000       6.235913       169.6878 
  91   0.0000       6.235917       169.6879 
  92   0.0000       6.534703       177.8183 
  93   0.0000       6.534703       177.8183 
  94   0.0000       6.860982       186.6968 
  95   0.0000       8.110665       220.7024 
  96   0.0000       8.110676       220.7027 
  97   0.0000       8.200581       223.1491 
  98   0.0000       8.200581       223.1491 
  99   0.0000       9.480523       257.9781 
 100   0.0000      14.244861       387.6224 
 101   0.0000      14.244861       387.6224 
 102   0.0000      14.273387       388.3986 
 103   0.0000      14.273397       388.3989 
 104   0.0000      14.359117       390.7314 
 105   0.0000      14.359117       390.7314 
 106   0.0000      14.428127       392.6093 
 107   0.0000      16.736858       455.4330 
 108   0.0000      16.736858       455.4330 
 109   0.0000      16.739941       455.5170 
 110   0.0000      16.739947       455.5171 
 111   0.0000      16.744158       455.6317 
 112   0.0000      16.744178       455.6323 
 113   0.0000      16.868772       459.0226 
 114   0.0000      16.868772       459.0226 
 115   0.0000      17.100800       465.3364 

                    ********************************
                    * MULLIKEN POPULATION ANALYSIS *
                    ********************************

-----------------------
MULLIKEN ATOMIC CHARGES
-----------------------
   0 Cu:    0.078408
   1 H :   -0.078408
Sum of atomic charges:   -0.0000000

--------------------------------
MULLIKEN REDUCED ORBITAL CHARGES
--------------------------------
  0 Cus       :     6.911616  s :     6.911616
      pz      :     4.118374  p :    12.119959
      px      :     4.000793
      py      :     4.000793
      dz2     :     1.892688  d :     9.887643
      dxz     :     1.997312
      dyz     :     1.997312
      dx2y2   :     2.000166
      dxy     :     2.000166
      f0      :     0.002042  f :     0.002318
      f+1     :     0.000044
      f-1     :     0.000044
      f+2     :     0.000094
      f-2     :     0.000094
      f+3     :     0.000000
      f-3     :     0.000000
      g0      :     0.000047  g :     0.000056
      g+1     :     0.000004
      g-1     :     0.000004
      g+2     :     0.000001
      g-2     :     0.000001
      g+3     :     0.000000
      g-3     :     0.000000
      g+4     :     0.000000
      g-4     :     0.000000
  1 H s       :     1.081528  s :     1.081528
      pz      :    -0.006773  p :    -0.003225
      px      :     0.001774
      py      :     0.001774
      dz2     :     0.000477  d :     0.000104
      dxz     :     0.000074
      dyz     :     0.000074
      dx2y2   :    -0.000260
      dxy     :    -0.000260


                     *******************************
                     * LOEWDIN POPULATION ANALYSIS *
                     *******************************

----------------------
LOEWDIN ATOMIC CHARGES
----------------------
   0 Cu:    0.486798
   1 H :   -0.486798

-------------------------------
LOEWDIN REDUCED ORBITAL CHARGES
-------------------------------
  0 Cus       :     6.677939  s :     6.677939
      pz      :     4.114213  p :    12.047865
      px      :     3.966826
      py      :     3.966826
      dz2     :     1.891335  d :     9.775859
      dxz     :     1.949187
      dyz     :     1.949187
      dx2y2   :     1.993075
      dxy     :     1.993075
      f0      :     0.008800  f :     0.011371
      f+1     :     0.001076
      f-1     :     0.001076
      f+2     :     0.000209
      f-2     :     0.000209
      f+3     :     0.000000
      f-3     :     0.000000
      g0      :     0.000145  g :     0.000168
      g+1     :     0.000011
      g-1     :     0.000011
      g+2     :     0.000000
      g-2     :     0.000000
      g+3     :     0.000000
      g-3     :     0.000000
      g+4     :     0.000000
      g-4     :     0.000000
  1 H s       :     1.019840  s :     1.019840
      pz      :     0.167391  p :     0.233839
      px      :     0.033224
      py      :     0.033224
      dz2     :     0.120335  d :     0.233119
      dxz     :     0.049677
      dyz     :     0.049677
      dx2y2   :     0.006715
      dxy     :     0.006715


                      *****************************
                      * MAYER POPULATION ANALYSIS *
                      *****************************

  NA   - Mulliken gross atomic population
  ZA   - Total nuclear charge
  QA   - Mulliken gross atomic charge
  VA   - Mayer's total valence
  BVA  - Mayer's bonded valence
  FA   - Mayer's free valence

  ATOM       NA         ZA         QA         VA         BVA        FA
  0 Cu    28.9216    29.0000     0.0784     1.0461     1.0461    -0.0000
  1 H      1.0784     1.0000    -0.0784     1.0461     1.0461    -0.0000

  Mayer bond orders larger than 0.100000
B(  0-Cu,  1-H ) :   1.0461 

-------
TIMINGS
-------

Total SCF time: 0 days 0 hours 2 min 35 sec 

Total time                  ....     155.330 sec
Sum of individual times     ....     155.030 sec  ( 99.8%)

Fock matrix formation       ....     154.765 sec  ( 99.6%)
  XC integration            ....       0.307 sec  (  0.2% of F)
    Basis function eval.    ....       0.060 sec  ( 19.6% of XC)
    Density eval.           ....       0.034 sec  ( 11.0% of XC)
    XC-Functional eval.     ....       0.015 sec  (  4.7% of XC)
    XC-Potential eval.      ....       0.074 sec  ( 24.2% of XC)
Diagonalization             ....       0.026 sec  (  0.0%)
Density matrix formation    ....       0.004 sec  (  0.0%)
Population analysis         ....       0.003 sec  (  0.0%)
Initial guess               ....       0.090 sec  (  0.1%)
Orbital Transformation      ....       0.000 sec  (  0.0%)
Orbital Orthonormalization  ....       0.000 sec  (  0.0%)
DIIS solution               ....       0.013 sec  (  0.0%)
Grid generation             ....       0.130 sec  (  0.1%)

-------------------------   --------------------
FINAL SINGLE POINT ENERGY     -1641.033367803475
-------------------------   --------------------


                            ***************************************
                            *     ORCA property calculations      *
                            ***************************************

                                    ---------------------
                                    Active property flags
                                    ---------------------
   (+) Dipole Moment


------------------------------------------------------------------------------
                       ORCA ELECTRIC PROPERTIES CALCULATION
------------------------------------------------------------------------------

Dipole Moment Calculation                       ... on
Quadrupole Moment Calculation                   ... off
Polarizability Calculation                      ... off
GBWName                                         ... 49_CuH.gbw
Electron density file                           ... 49_CuH.scfp
The origin for moment calculation is the CENTER OF MASS  = ( 0.000000,  0.000000  0.538454)

-------------
DIPOLE MOMENT
-------------
                                X             Y             Z
Electronic contribution:      0.00000      -0.00000      -2.68034
Nuclear contribution   :      0.00000       0.00000       1.48294
                        -----------------------------------------
Total Dipole Moment    :      0.00000      -0.00000      -1.19740
                        -----------------------------------------
Magnitude (a.u.)       :      1.19740
Magnitude (Debye)      :      3.04354



--------------------
Rotational spectrum 
--------------------
 
Rotational constants in cm-1:     0.000000     7.795898     7.795898 
Rotational constants in MHz :     0.000000 233715.143643 233715.143643 

 Dipole components along the rotational axes: 
x,y,z [a.u.] :    -1.197398    -0.000000     0.000000 
x,y,z [Debye]:    -3.043545    -0.000000     0.000000 

 

Timings for individual modules:

Sum of individual times         ...      158.665 sec (=   2.644 min)
GTO integral calculation        ...        2.819 sec (=   0.047 min)   1.8 %
SCF iterations                  ...      155.847 sec (=   2.597 min)  98.2 %
                             ****ORCA TERMINATED NORMALLY****
TOTAL RUN TIME: 0 days 0 hours 2 minutes 39 seconds 276 msec
