
                                 *****************
                                 * O   R   C   A *
                                 *****************

           --- An Ab Initio, DFT and Semiempirical electronic structure package ---

                  #######################################################
                  #                        -***-                        #
                  #          Department of theory and spectroscopy      #
                  #               Directorship: Frank Neese             #
                  #        Max Planck Institute fuer Kohlenforschung    #
                  #                Kaiser Wilhelm Platz 1               #
                  #                 D-45470 Muelheim/Ruhr               #
                  #                      Germany                        #
                  #                                                     #
                  #                  All rights reserved                #
                  #                        -***-                        #
                  #######################################################


                         Program Version 4.2.0 -  RELEASE  -


 With contributions from (in alphabetic order):
   Daniel Aravena         : Magnetic Suceptibility
   Michael Atanasov       : Ab Initio Ligand Field Theory (pilot matlab implementation)
   Alexander A. Auer      : GIAO ZORA, VPT2
   Ute Becker             : Parallelization
   Giovanni Bistoni       : ED, misc. LED, open-shell LED, HFLED
   Martin Brehm           : Molecular dynamics
   Dmytro Bykov           : SCF Hessian
   Vijay G. Chilkuri      : MRCI spin determinant printing, contributions to CSF-ICE
   Dipayan Datta          : RHF DLPNO-CCSD density
   Achintya Kumar Dutta   : EOM-CC, STEOM-CC
   Dmitry Ganyushin       : Spin-Orbit,Spin-Spin,Magnetic field MRCI
   Miquel Garcia          : C-PCM Hessian, Gaussian charge scheme
   Yang Guo               : DLPNO-NEVPT2, CIM, IAO-localization
   Andreas Hansen         : Spin unrestricted coupled pair/coupled cluster methods
   Benjamin Helmich-Paris : CASSCF linear response (MC-RPA)
   Lee Huntington         : MR-EOM, pCC
   Robert Izsak           : Overlap fitted RIJCOSX, COSX-SCS-MP3, EOM
   Christian Kollmar      : KDIIS, OOCD, Brueckner-CCSD(T), CCSD density
   Simone Kossmann        : Meta GGA functionals, TD-DFT gradient, OOMP2, MP2 Hessian
   Martin Krupicka        : AUTO-CI
   Lucas Lang             : DCDCAS
   Dagmar Lenk            : GEPOL surface, SMD
   Dimitrios Liakos       : Extrapolation schemes; Compound Job, initial MDCI parallelization
   Dimitrios Manganas     : Further ROCIS development; embedding schemes
   Dimitrios Pantazis     : SARC Basis sets
   Taras Petrenko         : DFT Hessian,TD-DFT gradient, ASA, ECA, R-Raman, ABS, FL, XAS/XES, NRVS
   Peter Pinski           : DLPNO-MP2, DLPNO-MP2 Gradient
   Christoph Reimann      : Effective Core Potentials
   Marius Retegan         : Local ZFS, SOC
   Christoph Riplinger    : Optimizer, TS searches, QM/MM, DLPNO-CCSD(T), (RO)-DLPNO pert. Triples
   Tobias Risthaus        : Range-separated hybrids, TD-DFT gradient, RPA, STAB
   Michael Roemelt        : Original ROCIS implementation
   Masaaki Saitow         : Open-shell DLPNO-CCSD energy and density
   Barbara Sandhoefer     : DKH picture change effects
   Avijit Sen             : IP-ROCIS
   Kantharuban Sivalingam : CASSCF convergence, NEVPT2, FIC-MRCI
   Bernardo de Souza      : ESD, SOC TD-DFT
   Georgi Stoychev        : AutoAux, RI-MP2 NMR
   Willem Van den Heuvel  : Paramagnetic NMR
   Boris Wezisla          : Elementary symmetry handling
   Frank Wennmohs         : Technical directorship


 We gratefully acknowledge several colleagues who have allowed us to
 interface, adapt or use parts of their codes:
   Stefan Grimme, W. Hujo, H. Kruse,             : VdW corrections, initial TS optimization,
                  C. Bannwarth                     DFT functionals, gCP, sTDA/sTD-DF
   Ed Valeev, F. Pavosevic, A. Kumar             : LibInt (2-el integral package), F12 methods
   Garnet Chan, S. Sharma, J. Yang, R. Olivares  : DMRG
   Ulf Ekstrom                                   : XCFun DFT Library
   Mihaly Kallay                                 : mrcc  (arbitrary order and MRCC methods)
   Andreas Klamt, Michael Diedenhofen            : otool_cosmo (COSMO solvation model)
   Jiri Pittner, Ondrej Demel                    : Mk-CCSD
   Frank Weinhold                                : gennbo (NPA and NBO analysis)
   Christopher J. Cramer and Donald G. Truhlar   : smd solvation model
   Lars Goerigk                                  : TD-DFT with DH, B97 family of functionals
   V. Asgeirsson, H. Jonsson                     : NEB implementation
   FAccTs GmbH                                   : IRC, NEB, NEB-TS, Multilevel, MM, QM/MM, CI optimization
   S Lehtola, MJT Oliveira, MAL Marques          : LibXC Library


 Your calculation uses the libint2 library for the computation of 2-el integrals
 For citations please refer to: http://libint.valeyev.net

 Your ORCA version has been built with support for libXC version: 4.2.3
 For citations please refer to: https://tddft.org/programs/libxc/

 This ORCA versions uses:
   CBLAS   interface :  Fast vector & matrix operations
   LAPACKE interface :  Fast linear algebra routines
   SCALAPACK package :  Parallel linear algebra routines


Your calculation utilizes the DFT-NL dispersion correction.
Cite in your paper:
Vydrov, O. A.; Van Voorhis, T. J. Chem. Phys. 2010, 133, 244103
Hujo, W.; Grimme, S. J. Chem. Theory Comput. 2011, 7, 3866 
   

----- Orbital basis set information -----
Your calculation utilizes the basis: aug-cc-pVTZ 
    H, B-Ne : Obtained from the ccRepo (grant-hill.group.shef.ac.uk/ccrepo) Feb. 2017
              R. A. Kendall, T. H. Dunning, Jr., R. J. Harrison, J. Chem. Phys. 96, 6796 (1992)
         He : Obtained from the ccRepo (grant-hill.group.shef.ac.uk/ccrepo) Feb. 2017
              D. E. Woon, T. H. Dunning, Jr., J. Chem. Phys. 100, 2975 (1994)
  Li-Be, Na : Obtained from the ccRepo (grant-hill.group.shef.ac.uk/ccrepo) Feb. 2017
              B. P. Prascher, D. E. Woon, K. A. Peterson, T. H. Dunning, Jr., A. K. Wilson, Theor. Chem. Acc. 128, 69 (2011)
         Mg : Obtained from the Peterson Research Group Website (tyr0.chem.wsu.edu/~kipeters) Feb. 2017
              B. P. Prascher, D. E. Woon, K. A. Peterson, T. H. Dunning, Jr., A. K. Wilson, Theor. Chem. Acc. 128, 69 (2011)
      Al-Ar : Obtained from the ccRepo (grant-hill.group.shef.ac.uk/ccrepo) Feb. 2017
              D. E. Woon, T. H. Dunning, Jr., J. Chem. Phys. 98, 1358 (1993)
      Sc-Zn : Obtained from the ccRepo (grant-hill.group.shef.ac.uk/ccrepo) Feb. 2017
              N. B. Balabanov, K. A. Peterson, J. Chem. Phys. 123, 064107 (2005)
              N. B. Balabanov, K. A. Peterson, J. Chem. Phys. 125, 074110 (2006)
      Ga-Kr : Obtained from the ccRepo (grant-hill.group.shef.ac.uk/ccrepo) Feb. 2017
              A. K. Wilson, D. E. Woon, K. A. Peterson, T. H. Dunning, Jr., J. Chem. Phys. 110, 7667 (1999)
     Ag, Au : Obtained from the Peterson Research Group Website (tyr0.chem.wsu.edu/~kipeters) Feb. 2017
              K. A. Peterson, C. Puzzarini, Theor. Chem. Acc. 114, 283 (2005)

----- AuxJK basis set information -----
Your calculation utilizes the auxiliary basis: def2/JK
   H-Ba, Hf-Rn: F. Weigend, J. Comput. Chem. 29, 167 (2008).

================================================================================
                                        WARNINGS
                       Please study these warnings very carefully!
================================================================================


INFO   : the flag for use of LIBINT has been found!

================================================================================
                                       INPUT FILE
================================================================================
NAME = 50_CuF.in
|  1> #
|  2> # 50_CuF wb97m-v/aug-cc-pvtz
|  3> #
|  4> ! wb97m-v aug-cc-pvtz def2/jk grid4 nofinalgrid
|  5> 
|  6> *xyz 0 1
|  7>   Cu  0.00000000000000      0.00000000000000      0.12224745624860
|  8>   F   0.00000000000000      0.00000000000000      1.87775254375140
|  9> *
| 10> 
| 11> %pal
| 12> nprocs 24
| 13> end
| 14> 
| 15> 
| 16>                          ****END OF INPUT****
================================================================================

                       ****************************
                       * Single Point Calculation *
                       ****************************

---------------------------------
CARTESIAN COORDINATES (ANGSTROEM)
---------------------------------
  Cu     0.000000    0.000000    0.122247
  F      0.000000    0.000000    1.877753

----------------------------
CARTESIAN COORDINATES (A.U.)
----------------------------
  NO LB      ZA    FRAG     MASS         X           Y           Z
   0 Cu   29.0000    0    63.550    0.000000    0.000000    0.231014
   1 F     9.0000    0    18.998    0.000000    0.000000    3.548438

--------------------------------
INTERNAL COORDINATES (ANGSTROEM)
--------------------------------
 Cu     0   0   0     0.000000000000     0.00000000     0.00000000
 F      1   0   0     1.755505087503     0.00000000     0.00000000

---------------------------
INTERNAL COORDINATES (A.U.)
---------------------------
 Cu     0   0   0     0.000000000000     0.00000000     0.00000000
 F      1   0   0     3.317423842086     0.00000000     0.00000000

---------------------
BASIS SET INFORMATION
---------------------
There are 2 groups of distinct atoms

 Group   1 Type Cu  : 116s77p23d3f2g contracted to 8s7p5d3f2g pattern {19191919191911/151515151511/77711/111/11}
 Group   2 Type F   : 19s6p3d2f contracted to 5s4p3d2f pattern {88111/3111/111/11}

Atom   0Cu   basis set group =>   1
Atom   1F    basis set group =>   2
----------------------------------
AUXILIARY/JK BASIS SET INFORMATION
----------------------------------
There are 2 groups of distinct atoms

 Group   1 Type Cu  : 19s14p12d10f7g3h1i contracted to 16s13p11d9f5g3h1i pattern {4111111111111111/2111111111111/21111111111/211111111/31111/111/1}
 Group   2 Type F   : 14s10p6d2f1g contracted to 10s8p4d2f1g pattern {5111111111/31111111/3111/11/1}

Atom   0Cu   basis set group =>   1
Atom   1F    basis set group =>   2


           ************************************************************
           *        Program running with 24 parallel MPI-processes    *
           *              working on a common directory               *
           ************************************************************
------------------------------------------------------------------------------
                           ORCA GTO INTEGRAL CALCULATION
------------------------------------------------------------------------------

                         BASIS SET STATISTICS AND STARTUP INFO

 # of primitive gaussian shells          ...  251
 # of primitive gaussian functions       ...  567
 # of contracted shells                  ...   39
 # of contracted basis functions         ...  139
 Highest angular momentum                ...    4
 Maximum contraction depth               ...   19
 Integral package used                   ... LIBINT
 Integral threshhold            Thresh   ...  1.000e-10
 Primitive cut-off              TCut     ...  1.000e-11


------------------------------ INTEGRAL EVALUATION ----------------------------


 * One electron integrals 
 Pre-screening matrix                    ... done
 Shell pair data                         ... done (   0.001 sec)



           ************************************************************
           *        Program running with 24 parallel MPI-processes    *
           *              working on a common directory               *
           ************************************************************
-------------------------------------------------------------------------------
                                 ORCA SCF
-------------------------------------------------------------------------------

------------
SCF SETTINGS
------------
Hamiltonian:
 Density Functional     Method          .... DFT(GTOs)
 Exchange Functional    Exchange        .... WB97M-V
 Correlation Functional Correlation     .... WB97M-V
 Gradients option       PostSCFGGA      .... off
 Hybrid DFT is turned on
   Fraction HF Exchange ScalHFX         ....  0.150000
   Scaling of DF-GGA-X  ScalDFX         ....  0.000000
   Scaling of DF-GGA-C  ScalDFC         ....  1.000000
   Scaling of DF-LDA-C  ScalLDAC        ....  1.000000
   Perturbative correction              ....  0.000000
   Density functional embedding theory  .... OFF
 Long-range corrected/Screened/Range-Separated Hybrid DFT is turned on
   Amount of maximum screened exact exchange              ....  0.850000
   Range separation parameter mu (erf(mu*r12)/r12)        ....  0.300000
   NL short-range parameter             ....  6.000000
   NL long-range parameter              ....  0.010000


General Settings:
 Integral files         IntName         .... 50_CuF
 Hartree-Fock type      HFTyp           .... RHF
 Total Charge           Charge          ....    0
 Multiplicity           Mult            ....    1
 Number of Electrons    NEL             ....   38
 Basis Dimension        Dim             ....  139
 Nuclear Repulsion      ENuc            ....     78.6755061831 Eh

Convergence Acceleration:
 DIIS                   CNVDIIS         .... on
   Start iteration      DIISMaxIt       ....    12
   Startup error        DIISStart       ....  0.200000
   # of expansion vecs  DIISMaxEq       ....     5
   Bias factor          DIISBfac        ....   1.050
   Max. coefficient     DIISMaxC        ....  10.000
 Newton-Raphson         CNVNR           .... off
 SOSCF                  CNVSOSCF        .... off
 Level Shifting         CNVShift        .... on
   Level shift para.    LevelShift      ....    0.2500
   Turn off err/grad.   ShiftErr        ....    0.0010
 Zerner damping         CNVZerner       .... off
 Static damping         CNVDamp         .... on
   Fraction old density DampFac         ....    0.7000
   Max. Damping (<1)    DampMax         ....    0.9800
   Min. Damping (>=0)   DampMin         ....    0.0000
   Turn off err/grad.   DampErr         ....    0.1000
 Fernandez-Rico         CNVRico         .... off

SCF Procedure:
 Maximum # iterations   MaxIter         ....   125
 SCF integral mode      SCFMode         .... Direct
   Integral package                     .... LIBINT
 Reset frequency        DirectResetFreq ....    20
 Integral Threshold     Thresh          ....  1.000e-10 Eh
 Primitive CutOff       TCut            ....  1.000e-11 Eh

Convergence Tolerance:
 Convergence Check Mode ConvCheckMode   .... Total+1el-Energy
 Convergence forced     ConvForced      .... 0
 Energy Change          TolE            ....  1.000e-06 Eh
 1-El. energy change                    ....  1.000e-03 Eh
 DIIS Error             TolErr          ....  1.000e-06


Diagonalization of the overlap matrix:
Smallest eigenvalue                        ... 3.782e-04
Time for diagonalization                   ...    0.006 sec
Threshold for overlap eigenvalues          ... 1.000e-08
Number of eigenvalues below threshold      ... 0
Time for construction of square roots      ...    0.003 sec
Total time needed                          ...    0.009 sec

-------------------
DFT GRID GENERATION
-------------------

General Integration Accuracy     IntAcc      ...  4.670
Radial Grid Type                 RadialGrid  ... Gauss-Chebyshev
Angular Grid (max. acc.)         AngularGrid ... Lebedev-302
Angular grid pruning method      GridPruning ... 3 (G Style)
Weight generation scheme         WeightScheme... Becke
Basis function cutoff            BFCut       ...    1.0000e-10
Integration weight cutoff        WCut        ...    1.0000e-14
Grids for H and He will be reduced by one unit

# of grid points (after initial pruning)     ...  15828 (   0.0 sec)
# of grid points (after weights+screening)   ...  15780 (   0.0 sec)
nearest neighbour list constructed           ...    0.0 sec
Grid point re-assignment to atoms done       ...    0.0 sec
Grid point division into batches done        ...    0.1 sec
Reduced shell lists constructed in    0.1 sec

Total number of grid points                  ...    15780
Total number of batches                      ...      248
Average number of points per batch           ...       63
Average number of grid points per atom       ...     7890
Average number of shells per batch           ...    14.00 (35.90%)
Average number of basis functions per batch  ...    32.00 (23.02%)
Average number of large shells per batch     ...     7.08 (50.60%)
Average number of large basis fcns per batch ...    17.08 (53.39%)
Maximum spatial batch extension              ...  22.45, 22.17, 15.93 au
Average spatial batch extension              ...   0.81,  0.79,  0.61 au

Time for grid setup =    0.151 sec

------------------------------
INITIAL GUESS: MODEL POTENTIAL
------------------------------
Loading Hartree-Fock densities                     ... done
Calculating cut-offs                               ... done
Setting up the integral package                    ... done
Initializing the effective Hamiltonian             ... done
Starting the Coulomb interaction                   ... done (   0.0 sec)
Reading the grid                                   ... done
Mapping shells                                     ... done
Starting the XC term evaluation                    ... done (   0.0 sec)
  promolecular density results
     # of electrons  =     38.000015077
     EX              =    -75.421462545
     EC              =     -1.650381387
     EX+EC           =    -77.071843932
Transforming the Hamiltonian                       ... done (   0.0 sec)
Diagonalizing the Hamiltonian                      ... done (   0.0 sec)
Back transforming the eigenvectors                 ... done (   0.0 sec)
Now organizing SCF variables                       ... done
                      ------------------
                      INITIAL GUESS DONE (   0.2 sec)
                      ------------------
--------------
SCF ITERATIONS
--------------
ITER       Energy         Delta-E        Max-DP      RMS-DP      [F,P]     Damp
               ***  Starting incremental Fock matrix formation  ***
  0  -1740.3880739433   0.000000000000 0.05205218  0.00149699  0.3089269 0.7000
  1  -1740.4377233571  -0.049649413753 0.03361543  0.00080948  0.1298847 0.7000
                               ***Turning on DIIS***
  2  -1740.4557555799  -0.018032222891 0.06836975  0.00136801  0.0427341 0.0000
  3  -1740.4919006093  -0.036145029331 0.01146859  0.00036453  0.0786396 0.0000
  4  -1740.4961238616  -0.004223252318 0.00917860  0.00018319  0.0116002 0.0000
  5  -1740.4962763799  -0.000152518311 0.00488447  0.00008814  0.0129955 0.0000
  6  -1740.4964277526  -0.000151372663 0.00625786  0.00008588  0.0034066 0.0000
  7  -1740.4964919996  -0.000064247009 0.00613673  0.00007339  0.0028451 0.0000
  8  -1740.4965273615  -0.000035361875 0.00512911  0.00005713  0.0019773 0.0000
  9  -1740.4965459405  -0.000018579069 0.00349339  0.00003869  0.0013482 0.0000
 10  -1740.4965544259  -0.000008485358 0.00461486  0.00005335  0.0009263 0.0000
 11  -1740.4965611019  -0.000006676028 0.00118283  0.00001497  0.0004058 0.0000
 12  -1740.4965619529  -0.000000851008 0.00082657  0.00001223  0.0003080 0.0000
 13  -1740.4965622929  -0.000000339955 0.00016005  0.00000321  0.0000599 0.0000
                 **** Energy Check signals convergence ****

               *****************************************************
               *                     SUCCESS                       *
               *           SCF CONVERGED AFTER  14 CYCLES          *
               *****************************************************


Setting up the DFT-NL grid :

General Integration Accuracy     IntAcc      ...  4.340
Radial Grid Type                 RadialGrid  ... Gauss-Chebyshev
Angular Grid (max. acc.)         AngularGrid ... Lebedev-110
Angular grid pruning method      GridPruning ... 3 (G Style)
Weight generation scheme         WeightScheme... Becke
Basis function cutoff            BFCut       ...    1.0000e-10
Integration weight cutoff        WCut        ...    1.0000e-14
Grids for H and He will be reduced by one unit

# of grid points (after initial pruning)     ...   4652 (   0.0 sec)
# of grid points (after weights+screening)   ...   4627 (   0.0 sec)
nearest neighbour list constructed           ...    0.0 sec
Grid point re-assignment to atoms done       ...    0.0 sec
Grid point division into batches done        ...    0.0 sec
Reduced shell lists constructed in    0.0 sec

Total number of grid points                  ...     4627
Total number of batches                      ...       73
Average number of points per batch           ...       63
Average number of grid points per atom       ...     2314
Average number of shells per batch           ...    19.60 (50.26%)
Average number of basis functions per batch  ...    53.20 (38.27%)
Average number of large shells per batch     ...    13.20 (67.35%)
Average number of large basis fcns per batch ...    32.40 (60.90%)
Maximum spatial batch extension              ...  17.39, 26.34, 14.81 au
Average spatial batch extension              ...   0.92,  1.21,  0.81 au

Final grid set up in    0.0 sec

-------------------------------------------------------------------------------
                         DFT-NL dispersion correction                          
-------------------------------------------------------------------------------

SC Energy -1740.496562320 
NL    Energy 0.161330242 
SC+NL Energy -1740.335232078 
NL done in    0.0 sec
-------------------------------------------------------------------------------

----------------
TOTAL SCF ENERGY
----------------

Total Energy       :        -1740.33523208 Eh          -47356.92924 eV

Components:
Nuclear Repulsion  :           78.67550618 Eh            2140.86936 eV
Electronic Energy  :        -1819.01073826 Eh          -49497.79861 eV
One Electron Energy:        -2584.67333040 Eh          -70332.53696 eV
Two Electron Energy:          765.66259213 Eh           20834.73835 eV

Virial components:
Potential Energy   :        -3478.50802887 Eh          -94655.01563 eV
Kinetic Energy     :         1738.17279679 Eh           47298.08639 eV
Virial Ratio       :            2.00124409


DFT components:
N(Alpha)           :       19.000019012583 electrons
N(Beta)            :       19.000019012583 electrons
N(Total)           :       38.000038025165 electrons
E(X)               :      -59.168592297000 Eh       
E(C)               :       -1.950668006650 Eh       
NL Energy, E(C,NL) :        0.161330241689 Eh       
E(XC)              :      -60.957930061961 Eh       
DFET-embed. en.    :        0.000000000000 Eh       

---------------
SCF CONVERGENCE
---------------

  Last Energy change         ...   -2.6961e-08  Tolerance :   1.0000e-06
  Last MAX-Density change    ...    6.2547e-05  Tolerance :   1.0000e-05
  Last RMS-Density change    ...    9.5176e-07  Tolerance :   1.0000e-06
  Last DIIS Error            ...    2.5503e-05  Tolerance :   1.0000e-06

             **** THE GBW FILE WAS UPDATED (50_CuF.gbw) ****
             **** DENSITY FILE WAS UPDATED (50_CuF.scfp) ****
             **** ENERGY FILE WAS UPDATED (50_CuF.en.tmp) ****
             **** THE GBW FILE WAS UPDATED (50_CuF.gbw) ****
             **** DENSITY FILE WAS UPDATED (50_CuF.scfp) ****
----------------
ORBITAL ENERGIES
----------------

  NO   OCC          E(Eh)            E(eV) 
   0   2.0000    -323.558907     -8804.4855 
   1   2.0000     -39.072661     -1063.2212 
   2   2.0000     -34.173069      -929.8965 
   3   2.0000     -34.173069      -929.8965 
   4   2.0000     -34.171034      -929.8411 
   5   2.0000     -24.798328      -674.7968 
   6   2.0000      -4.479349      -121.8893 
   7   2.0000      -2.945489       -80.1508 
   8   2.0000      -2.941891       -80.0529 
   9   2.0000      -2.941891       -80.0529 
  10   2.0000      -1.186532       -32.2872 
  11   2.0000      -0.493547       -13.4301 
  12   2.0000      -0.462591       -12.5877 
  13   2.0000      -0.462591       -12.5877 
  14   2.0000      -0.412954       -11.2371 
  15   2.0000      -0.412954       -11.2370 
  16   2.0000      -0.384573       -10.4648 
  17   2.0000      -0.384573       -10.4648 
  18   2.0000      -0.370952       -10.0941 
  19   0.0000      -0.053491        -1.4556 
  20   0.0000       0.013212         0.3595 
  21   0.0000       0.013212         0.3595 
  22   0.0000       0.022749         0.6190 
  23   0.0000       0.029518         0.8032 
  24   0.0000       0.077473         2.1082 
  25   0.0000       0.077474         2.1082 
  26   0.0000       0.112244         3.0543 
  27   0.0000       0.164411         4.4738 
  28   0.0000       0.164411         4.4738 
  29   0.0000       0.168749         4.5919 
  30   0.0000       0.174232         4.7411 
  31   0.0000       0.186792         5.0829 
  32   0.0000       0.186793         5.0829 
  33   0.0000       0.266071         7.2402 
  34   0.0000       0.271148         7.3783 
  35   0.0000       0.271148         7.3783 
  36   0.0000       0.283346         7.7102 
  37   0.0000       0.283346         7.7102 
  38   0.0000       0.361109         9.8263 
  39   0.0000       0.532825        14.4989 
  40   0.0000       0.641752        17.4630 
  41   0.0000       0.641753        17.4630 
  42   0.0000       0.674039        18.3415 
  43   0.0000       0.674039        18.3415 
  44   0.0000       0.715947        19.4819 
  45   0.0000       0.791176        21.5290 
  46   0.0000       0.887123        24.1399 
  47   0.0000       0.887124        24.1399 
  48   0.0000       0.994475        27.0610 
  49   0.0000       0.994475        27.0610 
  50   0.0000       1.002865        27.2893 
  51   0.0000       1.091891        29.7119 
  52   0.0000       1.091891        29.7119 
  53   0.0000       1.175242        31.9800 
  54   0.0000       1.202172        32.7128 
  55   0.0000       1.202172        32.7128 
  56   0.0000       1.513717        41.1903 
  57   0.0000       1.515857        41.2486 
  58   0.0000       1.515857        41.2486 
  59   0.0000       1.586028        43.1580 
  60   0.0000       1.586028        43.1580 
  61   0.0000       1.880618        51.1742 
  62   0.0000       1.904271        51.8178 
  63   0.0000       1.904271        51.8178 
  64   0.0000       2.159157        58.7537 
  65   0.0000       2.187409        59.5224 
  66   0.0000       2.187409        59.5224 
  67   0.0000       2.242795        61.0295 
  68   0.0000       2.242795        61.0296 
  69   0.0000       2.459651        66.9305 
  70   0.0000       2.739709        74.5513 
  71   0.0000       2.739767        74.5529 
  72   0.0000       2.819852        76.7321 
  73   0.0000       2.819852        76.7321 
  74   0.0000       2.857238        77.7494 
  75   0.0000       2.857238        77.7494 
  76   0.0000       2.960288        80.5535 
  77   0.0000       2.960290        80.5536 
  78   0.0000       3.076351        83.7118 
  79   0.0000       3.450856        93.9026 
  80   0.0000       3.450856        93.9026 
  81   0.0000       3.929041       106.9146 
  82   0.0000       4.045389       110.0806 
  83   0.0000       4.407219       119.9265 
  84   0.0000       4.407219       119.9265 
  85   0.0000       4.475495       121.7844 
  86   0.0000       4.475495       121.7844 
  87   0.0000       4.530765       123.2884 
  88   0.0000       4.530768       123.2885 
  89   0.0000       4.663197       126.8920 
  90   0.0000       4.663197       126.8920 
  91   0.0000       4.795190       130.4837 
  92   0.0000       4.938700       134.3889 
  93   0.0000       5.018083       136.5490 
  94   0.0000       5.018083       136.5490 
  95   0.0000       5.314629       144.6184 
  96   0.0000       6.184186       168.2802 
  97   0.0000       6.184186       168.2802 
  98   0.0000       6.186413       168.3409 
  99   0.0000       6.186429       168.3413 
 100   0.0000       6.220884       169.2789 
 101   0.0000       6.220889       169.2790 
 102   0.0000       6.437433       175.1714 
 103   0.0000       6.437433       175.1714 
 104   0.0000       6.606480       179.7715 
 105   0.0000       8.083634       219.9669 
 106   0.0000       8.083638       219.9670 
 107   0.0000       8.156511       221.9499 
 108   0.0000       8.156511       221.9499 
 109   0.0000       8.512944       231.6490 
 110   0.0000       8.512944       231.6490 
 111   0.0000       8.591887       233.7971 
 112   0.0000       8.591895       233.7974 
 113   0.0000       8.626399       234.7363 
 114   0.0000       8.908745       242.4193 
 115   0.0000       8.939500       243.2562 
 116   0.0000       8.940045       243.2710 
 117   0.0000       8.945601       243.4222 
 118   0.0000       8.945601       243.4222 
 119   0.0000       9.071955       246.8604 
 120   0.0000       9.071955       246.8604 
 121   0.0000       9.604329       261.3471 
 122   0.0000      13.492863       367.1595 
 123   0.0000      14.220714       386.9653 
 124   0.0000      14.220714       386.9653 
 125   0.0000      14.247728       387.7004 
 126   0.0000      14.247748       387.7009 
 127   0.0000      14.331289       389.9742 
 128   0.0000      14.331289       389.9742 
 129   0.0000      14.435995       392.8234 
 130   0.0000      16.711989       454.7563 
 131   0.0000      16.711989       454.7563 
 132   0.0000      16.712526       454.7710 
 133   0.0000      16.712531       454.7711 
 134   0.0000      16.736120       455.4130 
 135   0.0000      16.736129       455.4132 
 136   0.0000      16.873768       459.1586 
 137   0.0000      16.873768       459.1586 
 138   0.0000      17.015676       463.0201 

                    ********************************
                    * MULLIKEN POPULATION ANALYSIS *
                    ********************************

-----------------------
MULLIKEN ATOMIC CHARGES
-----------------------
   0 Cu:    0.693100
   1 F :   -0.693100
Sum of atomic charges:    0.0000000

--------------------------------
MULLIKEN REDUCED ORBITAL CHARGES
--------------------------------
  0 Cus       :     6.322812  s :     6.322812
      pz      :     4.043491  p :    12.120187
      px      :     4.038348
      py      :     4.038348
      dz2     :     1.858206  d :     9.852375
      dxz     :     1.997212
      dyz     :     1.997212
      dx2y2   :     1.999873
      dxy     :     1.999873
      f0      :     0.005195  f :     0.011292
      f+1     :     0.002929
      f-1     :     0.002929
      f+2     :     0.000120
      f-2     :     0.000120
      f+3     :     0.000000
      f-3     :     0.000000
      g0      :     0.000126  g :     0.000234
      g+1     :     0.000054
      g-1     :     0.000054
      g+2     :     0.000000
      g-2     :     0.000000
      g+3     :     0.000000
      g-3     :     0.000000
      g+4     :     0.000000
      g-4     :     0.000000
  1 F s       :     3.988688  s :     3.988688
      pz      :     1.777919  p :     5.695446
      px      :     1.958764
      py      :     1.958764
      dz2     :     0.002865  d :     0.006976
      dxz     :     0.002116
      dyz     :     0.002116
      dx2y2   :    -0.000060
      dxy     :    -0.000061
      f0      :     0.000697  f :     0.001989
      f+1     :     0.000578
      f-1     :     0.000578
      f+2     :     0.000068
      f-2     :     0.000068
      f+3     :     0.000000
      f-3     :     0.000000


                     *******************************
                     * LOEWDIN POPULATION ANALYSIS *
                     *******************************

----------------------
LOEWDIN ATOMIC CHARGES
----------------------
   0 Cu:    0.439751
   1 F :   -0.439751

-------------------------------
LOEWDIN REDUCED ORBITAL CHARGES
-------------------------------
  0 Cus       :     6.274372  s :     6.274372
      pz      :     4.121005  p :    12.248216
      px      :     4.063605
      py      :     4.063605
      dz2     :     1.943807  d :     9.957175
      dxz     :     2.009394
      dyz     :     2.009394
      dx2y2   :     1.997290
      dxy     :     1.997290
      f0      :     0.038099  f :     0.079389
      f+1     :     0.020462
      f-1     :     0.020462
      f+2     :     0.000183
      f-2     :     0.000183
      f+3     :     0.000000
      f-3     :     0.000000
      g0      :     0.000578  g :     0.001097
      g+1     :     0.000259
      g-1     :     0.000259
      g+2     :     0.000000
      g-2     :     0.000000
      g+3     :     0.000000
      g-3     :     0.000000
      g+4     :     0.000000
      g-4     :     0.000000
  1 F s       :     3.732360  s :     3.732360
      pz      :     1.799571  p :     5.535630
      px      :     1.868029
      py      :     1.868029
      dz2     :     0.072098  d :     0.131832
      dxz     :     0.028101
      dyz     :     0.028101
      dx2y2   :     0.001766
      dxy     :     0.001766
      f0      :     0.018109  f :     0.039930
      f+1     :     0.010149
      f-1     :     0.010149
      f+2     :     0.000762
      f-2     :     0.000762
      f+3     :     0.000000
      f-3     :     0.000000


                      *****************************
                      * MAYER POPULATION ANALYSIS *
                      *****************************

  NA   - Mulliken gross atomic population
  ZA   - Total nuclear charge
  QA   - Mulliken gross atomic charge
  VA   - Mayer's total valence
  BVA  - Mayer's bonded valence
  FA   - Mayer's free valence

  ATOM       NA         ZA         QA         VA         BVA        FA
  0 Cu    28.3069    29.0000     0.6931     0.5968     0.5968     0.0000
  1 F      9.6931     9.0000    -0.6931     0.5968     0.5968    -0.0000

  Mayer bond orders larger than 0.100000
B(  0-Cu,  1-F ) :   0.5968 

-------
TIMINGS
-------

Total SCF time: 0 days 0 hours 3 min 24 sec 

Total time                  ....     204.084 sec
Sum of individual times     ....     203.771 sec  ( 99.8%)

Fock matrix formation       ....     203.439 sec  ( 99.7%)
  XC integration            ....       0.322 sec  (  0.2% of F)
    Basis function eval.    ....       0.070 sec  ( 21.6% of XC)
    Density eval.           ....       0.042 sec  ( 13.0% of XC)
    XC-Functional eval.     ....       0.017 sec  (  5.2% of XC)
    XC-Potential eval.      ....       0.098 sec  ( 30.6% of XC)
Diagonalization             ....       0.039 sec  (  0.0%)
Density matrix formation    ....       0.005 sec  (  0.0%)
Population analysis         ....       0.004 sec  (  0.0%)
Initial guess               ....       0.099 sec  (  0.0%)
Orbital Transformation      ....       0.000 sec  (  0.0%)
Orbital Orthonormalization  ....       0.000 sec  (  0.0%)
DIIS solution               ....       0.019 sec  (  0.0%)
Grid generation             ....       0.167 sec  (  0.1%)

-------------------------   --------------------
FINAL SINGLE POINT ENERGY     -1740.335232078141
-------------------------   --------------------


                            ***************************************
                            *     ORCA property calculations      *
                            ***************************************

                                    ---------------------
                                    Active property flags
                                    ---------------------
   (+) Dipole Moment


------------------------------------------------------------------------------
                       ORCA ELECTRIC PROPERTIES CALCULATION
------------------------------------------------------------------------------

Dipole Moment Calculation                       ... on
Quadrupole Moment Calculation                   ... off
Polarizability Calculation                      ... off
GBWName                                         ... 50_CuF.gbw
Electron density file                           ... 50_CuF.scfp
The origin for moment calculation is the CENTER OF MASS  = ( 0.000000,  0.000000  0.994502)

-------------
DIPOLE MOMENT
-------------
                                X             Y             Z
Electronic contribution:     -0.00000      -0.00000      -2.95330
Nuclear contribution   :      0.00000       0.00000       0.84427
                        -----------------------------------------
Total Dipole Moment    :     -0.00000      -0.00000      -2.10903
                        -----------------------------------------
Magnitude (a.u.)       :      2.10903
Magnitude (Debye)      :      5.36074



--------------------
Rotational spectrum 
--------------------
 
Rotational constants in cm-1:     0.000000     0.374004     0.374004 
Rotational constants in MHz :     0.000000 11212.347169 11212.347169 

 Dipole components along the rotational axes: 
x,y,z [a.u.] :    -2.109033    -0.000000    -0.000000 
x,y,z [Debye]:    -5.360736    -0.000000    -0.000000 

 

Timings for individual modules:

Sum of individual times         ...      207.508 sec (=   3.458 min)
GTO integral calculation        ...        2.925 sec (=   0.049 min)   1.4 %
SCF iterations                  ...      204.583 sec (=   3.410 min)  98.6 %
                             ****ORCA TERMINATED NORMALLY****
TOTAL RUN TIME: 0 days 0 hours 3 minutes 28 seconds 109 msec
