
                                 *****************
                                 * O   R   C   A *
                                 *****************

           --- An Ab Initio, DFT and Semiempirical electronic structure package ---

                  #######################################################
                  #                        -***-                        #
                  #          Department of theory and spectroscopy      #
                  #               Directorship: Frank Neese             #
                  #        Max Planck Institute fuer Kohlenforschung    #
                  #                Kaiser Wilhelm Platz 1               #
                  #                 D-45470 Muelheim/Ruhr               #
                  #                      Germany                        #
                  #                                                     #
                  #                  All rights reserved                #
                  #                        -***-                        #
                  #######################################################


                         Program Version 4.2.0 -  RELEASE  -


 With contributions from (in alphabetic order):
   Daniel Aravena         : Magnetic Suceptibility
   Michael Atanasov       : Ab Initio Ligand Field Theory (pilot matlab implementation)
   Alexander A. Auer      : GIAO ZORA, VPT2
   Ute Becker             : Parallelization
   Giovanni Bistoni       : ED, misc. LED, open-shell LED, HFLED
   Martin Brehm           : Molecular dynamics
   Dmytro Bykov           : SCF Hessian
   Vijay G. Chilkuri      : MRCI spin determinant printing, contributions to CSF-ICE
   Dipayan Datta          : RHF DLPNO-CCSD density
   Achintya Kumar Dutta   : EOM-CC, STEOM-CC
   Dmitry Ganyushin       : Spin-Orbit,Spin-Spin,Magnetic field MRCI
   Miquel Garcia          : C-PCM Hessian, Gaussian charge scheme
   Yang Guo               : DLPNO-NEVPT2, CIM, IAO-localization
   Andreas Hansen         : Spin unrestricted coupled pair/coupled cluster methods
   Benjamin Helmich-Paris : CASSCF linear response (MC-RPA)
   Lee Huntington         : MR-EOM, pCC
   Robert Izsak           : Overlap fitted RIJCOSX, COSX-SCS-MP3, EOM
   Christian Kollmar      : KDIIS, OOCD, Brueckner-CCSD(T), CCSD density
   Simone Kossmann        : Meta GGA functionals, TD-DFT gradient, OOMP2, MP2 Hessian
   Martin Krupicka        : AUTO-CI
   Lucas Lang             : DCDCAS
   Dagmar Lenk            : GEPOL surface, SMD
   Dimitrios Liakos       : Extrapolation schemes; Compound Job, initial MDCI parallelization
   Dimitrios Manganas     : Further ROCIS development; embedding schemes
   Dimitrios Pantazis     : SARC Basis sets
   Taras Petrenko         : DFT Hessian,TD-DFT gradient, ASA, ECA, R-Raman, ABS, FL, XAS/XES, NRVS
   Peter Pinski           : DLPNO-MP2, DLPNO-MP2 Gradient
   Christoph Reimann      : Effective Core Potentials
   Marius Retegan         : Local ZFS, SOC
   Christoph Riplinger    : Optimizer, TS searches, QM/MM, DLPNO-CCSD(T), (RO)-DLPNO pert. Triples
   Tobias Risthaus        : Range-separated hybrids, TD-DFT gradient, RPA, STAB
   Michael Roemelt        : Original ROCIS implementation
   Masaaki Saitow         : Open-shell DLPNO-CCSD energy and density
   Barbara Sandhoefer     : DKH picture change effects
   Avijit Sen             : IP-ROCIS
   Kantharuban Sivalingam : CASSCF convergence, NEVPT2, FIC-MRCI
   Bernardo de Souza      : ESD, SOC TD-DFT
   Georgi Stoychev        : AutoAux, RI-MP2 NMR
   Willem Van den Heuvel  : Paramagnetic NMR
   Boris Wezisla          : Elementary symmetry handling
   Frank Wennmohs         : Technical directorship


 We gratefully acknowledge several colleagues who have allowed us to
 interface, adapt or use parts of their codes:
   Stefan Grimme, W. Hujo, H. Kruse,             : VdW corrections, initial TS optimization,
                  C. Bannwarth                     DFT functionals, gCP, sTDA/sTD-DF
   Ed Valeev, F. Pavosevic, A. Kumar             : LibInt (2-el integral package), F12 methods
   Garnet Chan, S. Sharma, J. Yang, R. Olivares  : DMRG
   Ulf Ekstrom                                   : XCFun DFT Library
   Mihaly Kallay                                 : mrcc  (arbitrary order and MRCC methods)
   Andreas Klamt, Michael Diedenhofen            : otool_cosmo (COSMO solvation model)
   Jiri Pittner, Ondrej Demel                    : Mk-CCSD
   Frank Weinhold                                : gennbo (NPA and NBO analysis)
   Christopher J. Cramer and Donald G. Truhlar   : smd solvation model
   Lars Goerigk                                  : TD-DFT with DH, B97 family of functionals
   V. Asgeirsson, H. Jonsson                     : NEB implementation
   FAccTs GmbH                                   : IRC, NEB, NEB-TS, Multilevel, MM, QM/MM, CI optimization
   S Lehtola, MJT Oliveira, MAL Marques          : LibXC Library


 Your calculation uses the libint2 library for the computation of 2-el integrals
 For citations please refer to: http://libint.valeyev.net

 Your ORCA version has been built with support for libXC version: 4.2.3
 For citations please refer to: https://tddft.org/programs/libxc/

 This ORCA versions uses:
   CBLAS   interface :  Fast vector & matrix operations
   LAPACKE interface :  Fast linear algebra routines
   SCALAPACK package :  Parallel linear algebra routines


Your calculation utilizes the DFT-NL dispersion correction.
Cite in your paper:
Vydrov, O. A.; Van Voorhis, T. J. Chem. Phys. 2010, 133, 244103
Hujo, W.; Grimme, S. J. Chem. Theory Comput. 2011, 7, 3866 
   

----- Orbital basis set information -----
Your calculation utilizes the basis: aug-cc-pVTZ 
    H, B-Ne : Obtained from the ccRepo (grant-hill.group.shef.ac.uk/ccrepo) Feb. 2017
              R. A. Kendall, T. H. Dunning, Jr., R. J. Harrison, J. Chem. Phys. 96, 6796 (1992)
         He : Obtained from the ccRepo (grant-hill.group.shef.ac.uk/ccrepo) Feb. 2017
              D. E. Woon, T. H. Dunning, Jr., J. Chem. Phys. 100, 2975 (1994)
  Li-Be, Na : Obtained from the ccRepo (grant-hill.group.shef.ac.uk/ccrepo) Feb. 2017
              B. P. Prascher, D. E. Woon, K. A. Peterson, T. H. Dunning, Jr., A. K. Wilson, Theor. Chem. Acc. 128, 69 (2011)
         Mg : Obtained from the Peterson Research Group Website (tyr0.chem.wsu.edu/~kipeters) Feb. 2017
              B. P. Prascher, D. E. Woon, K. A. Peterson, T. H. Dunning, Jr., A. K. Wilson, Theor. Chem. Acc. 128, 69 (2011)
      Al-Ar : Obtained from the ccRepo (grant-hill.group.shef.ac.uk/ccrepo) Feb. 2017
              D. E. Woon, T. H. Dunning, Jr., J. Chem. Phys. 98, 1358 (1993)
      Sc-Zn : Obtained from the ccRepo (grant-hill.group.shef.ac.uk/ccrepo) Feb. 2017
              N. B. Balabanov, K. A. Peterson, J. Chem. Phys. 123, 064107 (2005)
              N. B. Balabanov, K. A. Peterson, J. Chem. Phys. 125, 074110 (2006)
      Ga-Kr : Obtained from the ccRepo (grant-hill.group.shef.ac.uk/ccrepo) Feb. 2017
              A. K. Wilson, D. E. Woon, K. A. Peterson, T. H. Dunning, Jr., J. Chem. Phys. 110, 7667 (1999)
     Ag, Au : Obtained from the Peterson Research Group Website (tyr0.chem.wsu.edu/~kipeters) Feb. 2017
              K. A. Peterson, C. Puzzarini, Theor. Chem. Acc. 114, 283 (2005)

----- AuxJK basis set information -----
Your calculation utilizes the auxiliary basis: def2/JK
   H-Ba, Hf-Rn: F. Weigend, J. Comput. Chem. 29, 167 (2008).

================================================================================
                                        WARNINGS
                       Please study these warnings very carefully!
================================================================================


INFO   : the flag for use of LIBINT has been found!

================================================================================
                                       INPUT FILE
================================================================================
NAME = 52_CuBr.in
|  1> #
|  2> # 52_CuBr wb97m-v/aug-cc-pvtz
|  3> #
|  4> ! wb97m-v aug-cc-pvtz def2/jk grid4 nofinalgrid
|  5> 
|  6> *xyz 0 1
|  7>   Cu  0.00000000000000      0.00000000000000     -0.09600479667781
|  8>   Br  0.00000000000000      0.00000000000000      2.09600479667781
|  9> *
| 10> 
| 11> %pal
| 12> nprocs 24
| 13> end
| 14> 
| 15> 
| 16>                          ****END OF INPUT****
================================================================================

                       ****************************
                       * Single Point Calculation *
                       ****************************

---------------------------------
CARTESIAN COORDINATES (ANGSTROEM)
---------------------------------
  Cu     0.000000    0.000000   -0.096005
  Br     0.000000    0.000000    2.096005

----------------------------
CARTESIAN COORDINATES (A.U.)
----------------------------
  NO LB      ZA    FRAG     MASS         X           Y           Z
   0 Cu   29.0000    0    63.550    0.000000    0.000000   -0.181423
   1 Br   35.0000    0    79.900    0.000000    0.000000    3.960875

--------------------------------
INTERNAL COORDINATES (ANGSTROEM)
--------------------------------
 Cu     0   0   0     0.000000000000     0.00000000     0.00000000
 Br     1   0   0     2.192009593356     0.00000000     0.00000000

---------------------------
INTERNAL COORDINATES (A.U.)
---------------------------
 Cu     0   0   0     0.000000000000     0.00000000     0.00000000
 Br     1   0   0     4.142297814370     0.00000000     0.00000000

---------------------
BASIS SET INFORMATION
---------------------
There are 2 groups of distinct atoms

 Group   1 Type Cu  : 116s77p23d3f2g contracted to 8s7p5d3f2g pattern {19191919191911/151515151511/77711/111/11}
 Group   2 Type Br  : 75s36p10d2f contracted to 7s6p4d2f pattern {18181818111/111111111/7111/11}

Atom   0Cu   basis set group =>   1
Atom   1Br   basis set group =>   2
----------------------------------
AUXILIARY/JK BASIS SET INFORMATION
----------------------------------
There are 2 groups of distinct atoms

 Group   1 Type Cu  : 19s14p12d10f7g3h1i contracted to 16s13p11d9f5g3h1i pattern {4111111111111111/2111111111111/21111111111/211111111/31111/111/1}
 Group   2 Type Br  : 20s14p13d10f7g3h contracted to 17s13p12d9f6g3h pattern {41111111111111111/2111111111111/211111111111/211111111/211111/111}

Atom   0Cu   basis set group =>   1
Atom   1Br   basis set group =>   2


           ************************************************************
           *        Program running with 24 parallel MPI-processes    *
           *              working on a common directory               *
           ************************************************************
------------------------------------------------------------------------------
                           ORCA GTO INTEGRAL CALCULATION
------------------------------------------------------------------------------

                         BASIS SET STATISTICS AND STARTUP INFO

 # of primitive gaussian shells          ...  344
 # of primitive gaussian functions       ...  748
 # of contracted shells                  ...   44
 # of contracted basis functions         ...  152
 Highest angular momentum                ...    4
 Maximum contraction depth               ...   19
 Integral package used                   ... LIBINT
 Integral threshhold            Thresh   ...  1.000e-10
 Primitive cut-off              TCut     ...  1.000e-11


------------------------------ INTEGRAL EVALUATION ----------------------------


 * One electron integrals 
 Pre-screening matrix                    ... done
 Shell pair data                         ... done (   0.002 sec)



           ************************************************************
           *        Program running with 24 parallel MPI-processes    *
           *              working on a common directory               *
           ************************************************************
-------------------------------------------------------------------------------
                                 ORCA SCF
-------------------------------------------------------------------------------

------------
SCF SETTINGS
------------
Hamiltonian:
 Density Functional     Method          .... DFT(GTOs)
 Exchange Functional    Exchange        .... WB97M-V
 Correlation Functional Correlation     .... WB97M-V
 Gradients option       PostSCFGGA      .... off
 Hybrid DFT is turned on
   Fraction HF Exchange ScalHFX         ....  0.150000
   Scaling of DF-GGA-X  ScalDFX         ....  0.000000
   Scaling of DF-GGA-C  ScalDFC         ....  1.000000
   Scaling of DF-LDA-C  ScalLDAC        ....  1.000000
   Perturbative correction              ....  0.000000
   Density functional embedding theory  .... OFF
 Long-range corrected/Screened/Range-Separated Hybrid DFT is turned on
   Amount of maximum screened exact exchange              ....  0.850000
   Range separation parameter mu (erf(mu*r12)/r12)        ....  0.300000
   NL short-range parameter             ....  6.000000
   NL long-range parameter              ....  0.010000


General Settings:
 Integral files         IntName         .... 52_CuBr
 Hartree-Fock type      HFTyp           .... RHF
 Total Charge           Charge          ....    0
 Multiplicity           Mult            ....    1
 Number of Electrons    NEL             ....   64
 Basis Dimension        Dim             ....  152
 Nuclear Repulsion      ENuc            ....    245.0330819959 Eh

Convergence Acceleration:
 DIIS                   CNVDIIS         .... on
   Start iteration      DIISMaxIt       ....    12
   Startup error        DIISStart       ....  0.200000
   # of expansion vecs  DIISMaxEq       ....     5
   Bias factor          DIISBfac        ....   1.050
   Max. coefficient     DIISMaxC        ....  10.000
 Newton-Raphson         CNVNR           .... off
 SOSCF                  CNVSOSCF        .... off
 Level Shifting         CNVShift        .... on
   Level shift para.    LevelShift      ....    0.2500
   Turn off err/grad.   ShiftErr        ....    0.0010
 Zerner damping         CNVZerner       .... off
 Static damping         CNVDamp         .... on
   Fraction old density DampFac         ....    0.7000
   Max. Damping (<1)    DampMax         ....    0.9800
   Min. Damping (>=0)   DampMin         ....    0.0000
   Turn off err/grad.   DampErr         ....    0.1000
 Fernandez-Rico         CNVRico         .... off

SCF Procedure:
 Maximum # iterations   MaxIter         ....   125
 SCF integral mode      SCFMode         .... Direct
   Integral package                     .... LIBINT
 Reset frequency        DirectResetFreq ....    20
 Integral Threshold     Thresh          ....  1.000e-10 Eh
 Primitive CutOff       TCut            ....  1.000e-11 Eh

Convergence Tolerance:
 Convergence Check Mode ConvCheckMode   .... Total+1el-Energy
 Convergence forced     ConvForced      .... 0
 Energy Change          TolE            ....  1.000e-06 Eh
 1-El. energy change                    ....  1.000e-03 Eh
 DIIS Error             TolErr          ....  1.000e-06


Diagonalization of the overlap matrix:
Smallest eigenvalue                        ... 1.841e-04
Time for diagonalization                   ...    0.042 sec
Threshold for overlap eigenvalues          ... 1.000e-08
Number of eigenvalues below threshold      ... 0
Time for construction of square roots      ...    0.003 sec
Total time needed                          ...    0.045 sec

-------------------
DFT GRID GENERATION
-------------------

General Integration Accuracy     IntAcc      ...  4.670
Radial Grid Type                 RadialGrid  ... Gauss-Chebyshev
Angular Grid (max. acc.)         AngularGrid ... Lebedev-302
Angular grid pruning method      GridPruning ... 3 (G Style)
Weight generation scheme         WeightScheme... Becke
Basis function cutoff            BFCut       ...    1.0000e-10
Integration weight cutoff        WCut        ...    1.0000e-14
Grids for H and He will be reduced by one unit

# of grid points (after initial pruning)     ...  19172 (   0.0 sec)
# of grid points (after weights+screening)   ...  19145 (   0.0 sec)
nearest neighbour list constructed           ...    0.0 sec
Grid point re-assignment to atoms done       ...    0.0 sec
Grid point division into batches done        ...    0.1 sec
Reduced shell lists constructed in    0.1 sec

Total number of grid points                  ...    19145
Total number of batches                      ...      300
Average number of points per batch           ...       63
Average number of grid points per atom       ...     9572
Average number of shells per batch           ...    15.57 (35.39%)
Average number of basis functions per batch  ...    37.71 (24.81%)
Average number of large shells per batch     ...     8.93 (57.34%)
Average number of large basis fcns per batch ...    21.50 (57.01%)
Maximum spatial batch extension              ...  22.45, 22.17, 16.42 au
Average spatial batch extension              ...   0.78,  0.77,  0.62 au

Time for grid setup =    0.181 sec

------------------------------
INITIAL GUESS: MODEL POTENTIAL
------------------------------
Loading Hartree-Fock densities                     ... done
Calculating cut-offs                               ... done
Setting up the integral package                    ... done
Initializing the effective Hamiltonian             ... done
Starting the Coulomb interaction                   ... done (   0.0 sec)
Reading the grid                                   ... done
Mapping shells                                     ... done
Starting the XC term evaluation                    ... done (   0.0 sec)
  promolecular density results
     # of electrons  =     64.000000674
     EX              =   -154.758938139
     EC              =     -3.062171215
     EX+EC           =   -157.821109354
Transforming the Hamiltonian                       ... done (   0.0 sec)
Diagonalizing the Hamiltonian                      ... done (   0.0 sec)
Back transforming the eigenvectors                 ... done (   0.0 sec)
Now organizing SCF variables                       ... done
                      ------------------
                      INITIAL GUESS DONE (   0.3 sec)
                      ------------------
--------------
SCF ITERATIONS
--------------
ITER       Energy         Delta-E        Max-DP      RMS-DP      [F,P]     Damp
               ***  Starting incremental Fock matrix formation  ***
  0  -4214.7957351740   0.000000000000 0.04281821  0.00123135  0.2238152 0.7000
  1  -4214.8167256655  -0.020990491483 0.03176138  0.00073502  0.0527848 0.7000
                               ***Turning on DIIS***
  2  -4214.8258734160  -0.009147750546 0.06451509  0.00152300  0.0393030 0.0000
  3  -4214.8466760099  -0.020802593846 0.01503358  0.00037803  0.0169129 0.0000
  4  -4214.8473610793  -0.000685069458 0.00439136  0.00011172  0.0053093 0.0000
  5  -4214.8474255284  -0.000064449100 0.00301208  0.00005401  0.0056353 0.0000
  6  -4214.8474675437  -0.000042015291 0.00336501  0.00004607  0.0016454 0.0000
  7  -4214.8474848359  -0.000017292207 0.00378922  0.00005010  0.0009185 0.0000
  8  -4214.8474923837  -0.000007547766 0.00056448  0.00000926  0.0002272 0.0000
                 **** Energy Check signals convergence ****

               *****************************************************
               *                     SUCCESS                       *
               *           SCF CONVERGED AFTER   9 CYCLES          *
               *****************************************************


Setting up the DFT-NL grid :

General Integration Accuracy     IntAcc      ...  4.340
Radial Grid Type                 RadialGrid  ... Gauss-Chebyshev
Angular Grid (max. acc.)         AngularGrid ... Lebedev-110
Angular grid pruning method      GridPruning ... 3 (G Style)
Weight generation scheme         WeightScheme... Becke
Basis function cutoff            BFCut       ...    1.0000e-10
Integration weight cutoff        WCut        ...    1.0000e-14
Grids for H and He will be reduced by one unit

# of grid points (after initial pruning)     ...   5802 (   0.0 sec)
# of grid points (after weights+screening)   ...   5778 (   0.0 sec)
nearest neighbour list constructed           ...    0.0 sec
Grid point re-assignment to atoms done       ...    0.0 sec
Grid point division into batches done        ...    0.0 sec
Reduced shell lists constructed in    0.0 sec

Total number of grid points                  ...     5778
Total number of batches                      ...       91
Average number of points per batch           ...       63
Average number of grid points per atom       ...     2889
Average number of shells per batch           ...    22.40 (50.91%)
Average number of basis functions per batch  ...    62.40 (41.05%)
Average number of large shells per batch     ...    16.00 (71.43%)
Average number of large basis fcns per batch ...    44.80 (71.79%)
Maximum spatial batch extension              ...  17.39, 26.34, 15.13 au
Average spatial batch extension              ...   0.70,  0.97,  0.66 au

Final grid set up in    0.0 sec

-------------------------------------------------------------------------------
                         DFT-NL dispersion correction                          
-------------------------------------------------------------------------------

SC Energy -4214.847492664 
NL    Energy 0.268838684 
SC+NL Energy -4214.578653980 
NL done in    0.0 sec
-------------------------------------------------------------------------------

----------------
TOTAL SCF ENERGY
----------------

Total Energy       :        -4214.57865398 Eh         -114684.51562 eV

Components:
Nuclear Repulsion  :          245.03308200 Eh            6667.68914 eV
Electronic Energy  :        -4459.61173598 Eh         -121352.20476 eV
One Electron Energy:        -6360.48021750 Eh         -173077.46581 eV
Two Electron Energy:         1900.86848153 Eh           51725.26104 eV

Virial components:
Potential Energy   :        -8424.34145778 Eh         -229237.98530 eV
Kinetic Energy     :         4209.76280380 Eh          114553.46968 eV
Virial Ratio       :            2.00114397


DFT components:
N(Alpha)           :       32.000004858694 electrons
N(Beta)            :       32.000004858694 electrons
N(Total)           :       64.000009717388 electrons
E(X)               :     -122.825341268019 Eh       
E(C)               :       -3.611961932183 Eh       
NL Energy, E(C,NL) :        0.268838683765 Eh       
E(XC)              :     -126.168464516437 Eh       
DFET-embed. en.    :        0.000000000000 Eh       

---------------
SCF CONVERGENCE
---------------

  Last Energy change         ...   -2.8055e-07  Tolerance :   1.0000e-06
  Last MAX-Density change    ...    1.0723e-04  Tolerance :   1.0000e-05
  Last RMS-Density change    ...    1.5865e-06  Tolerance :   1.0000e-06
  Last DIIS Error            ...    7.5237e-05  Tolerance :   1.0000e-06

             **** THE GBW FILE WAS UPDATED (52_CuBr.gbw) ****
             **** DENSITY FILE WAS UPDATED (52_CuBr.scfp) ****
             **** ENERGY FILE WAS UPDATED (52_CuBr.en.tmp) ****
             **** THE GBW FILE WAS UPDATED (52_CuBr.gbw) ****
             **** DENSITY FILE WAS UPDATED (52_CuBr.scfp) ****
----------------
ORBITAL ENERGIES
----------------

  NO   OCC          E(Eh)            E(eV) 
   0   2.0000    -483.468110    -13155.8361 
   1   2.0000    -323.567483     -8804.7188 
   2   2.0000     -62.772736     -1708.1330 
   3   2.0000     -56.458833     -1536.3230 
   4   2.0000     -56.457445     -1536.2852 
   5   2.0000     -56.457445     -1536.2852 
   6   2.0000     -39.080620     -1063.4377 
   7   2.0000     -34.180712      -930.1045 
   8   2.0000     -34.180712      -930.1045 
   9   2.0000     -34.179890      -930.0821 
  10   2.0000      -8.851269      -240.8553 
  11   2.0000      -6.632604      -180.4823 
  12   2.0000      -6.627306      -180.3382 
  13   2.0000      -6.627306      -180.3382 
  14   2.0000      -4.486651      -122.0880 
  15   2.0000      -2.953769       -80.3761 
  16   2.0000      -2.949139       -80.2501 
  17   2.0000      -2.949139       -80.2501 
  18   2.0000      -2.715056       -73.8804 
  19   2.0000      -2.713470       -73.8373 
  20   2.0000      -2.713470       -73.8373 
  21   2.0000      -2.709311       -73.7241 
  22   2.0000      -2.709275       -73.7231 
  23   2.0000      -0.842069       -22.9139 
  24   2.0000      -0.452624       -12.3165 
  25   2.0000      -0.437417       -11.9027 
  26   2.0000      -0.437417       -11.9027 
  27   2.0000      -0.420400       -11.4397 
  28   2.0000      -0.420393       -11.4395 
  29   2.0000      -0.374042       -10.1782 
  30   2.0000      -0.350088        -9.5264 
  31   2.0000      -0.350088        -9.5264 
  32   0.0000      -0.053967        -1.4685 
  33   0.0000       0.010636         0.2894 
  34   0.0000       0.010636         0.2894 
  35   0.0000       0.020622         0.5611 
  36   0.0000       0.025196         0.6856 
  37   0.0000       0.068642         1.8678 
  38   0.0000       0.068642         1.8678 
  39   0.0000       0.082504         2.2450 
  40   0.0000       0.104713         2.8494 
  41   0.0000       0.104714         2.8494 
  42   0.0000       0.122696         3.3387 
  43   0.0000       0.156965         4.2712 
  44   0.0000       0.156965         4.2712 
  45   0.0000       0.162388         4.4188 
  46   0.0000       0.181815         4.9474 
  47   0.0000       0.197625         5.3777 
  48   0.0000       0.197625         5.3777 
  49   0.0000       0.251927         6.8553 
  50   0.0000       0.251927         6.8553 
  51   0.0000       0.265367         7.2210 
  52   0.0000       0.288119         7.8401 
  53   0.0000       0.288119         7.8401 
  54   0.0000       0.335051         9.1172 
  55   0.0000       0.377391        10.2693 
  56   0.0000       0.377391        10.2693 
  57   0.0000       0.412150        11.2152 
  58   0.0000       0.525899        14.3105 
  59   0.0000       0.525900        14.3105 
  60   0.0000       0.590470        16.0675 
  61   0.0000       0.619765        16.8647 
  62   0.0000       0.619766        16.8647 
  63   0.0000       0.640686        17.4340 
  64   0.0000       0.640686        17.4340 
  65   0.0000       0.645141        17.5552 
  66   0.0000       0.742245        20.1975 
  67   0.0000       0.742249        20.1976 
  68   0.0000       0.774837        21.0844 
  69   0.0000       0.819309        22.2945 
  70   0.0000       0.831622        22.6296 
  71   0.0000       0.831622        22.6296 
  72   0.0000       0.888377        24.1740 
  73   0.0000       0.888377        24.1740 
  74   0.0000       0.912402        24.8277 
  75   0.0000       0.912404        24.8278 
  76   0.0000       1.012231        27.5442 
  77   0.0000       1.012231        27.5442 
  78   0.0000       1.013771        27.5861 
  79   0.0000       1.117319        30.4038 
  80   0.0000       1.117319        30.4038 
  81   0.0000       1.192253        32.4428 
  82   0.0000       1.458831        39.6968 
  83   0.0000       1.514429        41.2097 
  84   0.0000       1.514429        41.2097 
  85   0.0000       1.611613        43.8542 
  86   0.0000       1.611616        43.8543 
  87   0.0000       1.799912        48.9781 
  88   0.0000       1.799912        48.9781 
  89   0.0000       1.884609        51.2828 
  90   0.0000       2.017328        54.8943 
  91   0.0000       2.017328        54.8943 
  92   0.0000       2.109859        57.4122 
  93   0.0000       2.109913        57.4136 
  94   0.0000       2.134707        58.0883 
  95   0.0000       2.134707        58.0883 
  96   0.0000       2.134899        58.0936 
  97   0.0000       2.156390        58.6784 
  98   0.0000       2.156400        58.6786 
  99   0.0000       2.198917        59.8356 
 100   0.0000       2.198917        59.8356 
 101   0.0000       2.244859        61.0857 
 102   0.0000       2.244867        61.0859 
 103   0.0000       2.248229        61.1774 
 104   0.0000       2.248229        61.1774 
 105   0.0000       2.286317        62.2139 
 106   0.0000       2.340836        63.6974 
 107   0.0000       2.340836        63.6974 
 108   0.0000       2.364226        64.3339 
 109   0.0000       2.866073        77.9898 
 110   0.0000       3.988817       108.5412 
 111   0.0000       4.232181       115.1635 
 112   0.0000       4.386458       119.3616 
 113   0.0000       4.386458       119.3616 
 114   0.0000       4.467725       121.5730 
 115   0.0000       4.467725       121.5730 
 116   0.0000       4.511107       122.7535 
 117   0.0000       4.511119       122.7538 
 118   0.0000       4.663708       126.9059 
 119   0.0000       4.663708       126.9059 
 120   0.0000       4.669348       127.0594 
 121   0.0000       5.018201       136.5522 
 122   0.0000       6.174449       168.0153 
 123   0.0000       6.174449       168.0153 
 124   0.0000       6.176936       168.0830 
 125   0.0000       6.176993       168.0845 
 126   0.0000       6.178248       168.1187 
 127   0.0000       6.178431       168.1237 
 128   0.0000       6.211964       169.0361 
 129   0.0000       6.211964       169.0361 
 130   0.0000       6.305807       171.5897 
 131   0.0000       8.080239       219.8745 
 132   0.0000       8.080270       219.8753 
 133   0.0000       8.119868       220.9528 
 134   0.0000       8.119868       220.9528 
 135   0.0000       8.429128       229.3682 
 136   0.0000      14.214364       386.7925 
 137   0.0000      14.214364       386.7925 
 138   0.0000      14.236825       387.4037 
 139   0.0000      14.236943       387.4069 
 140   0.0000      14.319423       389.6513 
 141   0.0000      14.319423       389.6513 
 142   0.0000      14.395570       391.7234 
 143   0.0000      16.703758       454.5324 
 144   0.0000      16.703758       454.5324 
 145   0.0000      16.704969       454.5653 
 146   0.0000      16.705512       454.5801 
 147   0.0000      16.705522       454.5804 
 148   0.0000      16.705528       454.5805 
 149   0.0000      16.722035       455.0297 
 150   0.0000      16.722035       455.0297 
 151   0.0000      16.754008       455.8997 

                    ********************************
                    * MULLIKEN POPULATION ANALYSIS *
                    ********************************

-----------------------
MULLIKEN ATOMIC CHARGES
-----------------------
   0 Cu:    0.486586
   1 Br:   -0.486586
Sum of atomic charges:   -0.0000000

--------------------------------
MULLIKEN REDUCED ORBITAL CHARGES
--------------------------------
  0 Cus       :     6.405606  s :     6.405606
      pz      :     4.085972  p :    12.176353
      px      :     4.045190
      py      :     4.045190
      dz2     :     1.935976  d :     9.926170
      dxz     :     1.995817
      dyz     :     1.995817
      dx2y2   :     1.999280
      dxy     :     1.999280
      f0      :     0.001929  f :     0.005238
      f+1     :     0.001606
      f-1     :     0.001606
      f+2     :     0.000048
      f-2     :     0.000048
      f+3     :     0.000000
      f-3     :     0.000000
      g0      :     0.000024  g :     0.000048
      g+1     :     0.000011
      g-1     :     0.000011
      g+2     :     0.000001
      g-2     :     0.000001
      g+3     :     0.000000
      g-3     :     0.000000
      g+4     :     0.000000
      g-4     :     0.000000
  1 Brs       :     7.983097  s :     7.983097
      pz      :     5.577955  p :    17.478605
      px      :     5.950325
      py      :     5.950325
      dz2     :     2.008251  d :    10.021148
      dxz     :     2.006006
      dyz     :     2.006006
      dx2y2   :     2.000443
      dxy     :     2.000443
      f0      :     0.001191  f :     0.003736
      f+1     :     0.001044
      f-1     :     0.001044
      f+2     :     0.000229
      f-2     :     0.000229
      f+3     :     0.000000
      f-3     :     0.000000


                     *******************************
                     * LOEWDIN POPULATION ANALYSIS *
                     *******************************

----------------------
LOEWDIN ATOMIC CHARGES
----------------------
   0 Cu:   -0.058908
   1 Br:    0.058908

-------------------------------
LOEWDIN REDUCED ORBITAL CHARGES
-------------------------------
  0 Cus       :     6.387764  s :     6.387764
      pz      :     4.249692  p :    12.448134
      px      :     4.099221
      py      :     4.099221
      dz2     :     2.068087  d :    10.187168
      dxz     :     2.063650
      dyz     :     2.063650
      dx2y2   :     1.995890
      dxy     :     1.995890
      f0      :     0.016510  f :     0.035631
      f+1     :     0.009482
      f-1     :     0.009482
      f+2     :     0.000079
      f-2     :     0.000079
      f+3     :     0.000000
      f-3     :     0.000000
      g0      :     0.000111  g :     0.000210
      g+1     :     0.000049
      g-1     :     0.000049
      g+2     :     0.000000
      g-2     :     0.000000
      g+3     :     0.000000
      g-3     :     0.000000
      g+4     :     0.000000
      g-4     :     0.000000
  1 Brs       :     7.621319  s :     7.621319
      pz      :     5.533723  p :    17.108423
      px      :     5.787350
      py      :     5.787350
      dz2     :     2.080192  d :    10.123772
      dxz     :     2.020015
      dyz     :     2.020015
      dx2y2   :     2.001775
      dxy     :     2.001775
      f0      :     0.042602  f :     0.087578
      f+1     :     0.020233
      f-1     :     0.020233
      f+2     :     0.002255
      f-2     :     0.002255
      f+3     :     0.000000
      f-3     :     0.000000


                      *****************************
                      * MAYER POPULATION ANALYSIS *
                      *****************************

  NA   - Mulliken gross atomic population
  ZA   - Total nuclear charge
  QA   - Mulliken gross atomic charge
  VA   - Mayer's total valence
  BVA  - Mayer's bonded valence
  FA   - Mayer's free valence

  ATOM       NA         ZA         QA         VA         BVA        FA
  0 Cu    28.5134    29.0000     0.4866     0.9931     0.9931    -0.0000
  1 Br    35.4866    35.0000    -0.4866     0.9931     0.9931    -0.0000

  Mayer bond orders larger than 0.100000
B(  0-Cu,  1-Br) :   0.9931 

-------
TIMINGS
-------

Total SCF time: 0 days 0 hours 3 min 54 sec 

Total time                  ....     234.410 sec
Sum of individual times     ....     233.999 sec  ( 99.8%)

Fock matrix formation       ....     233.615 sec  ( 99.7%)
  XC integration            ....       0.424 sec  (  0.2% of F)
    Basis function eval.    ....       0.101 sec  ( 23.8% of XC)
    Density eval.           ....       0.058 sec  ( 13.7% of XC)
    XC-Functional eval.     ....       0.016 sec  (  3.9% of XC)
    XC-Potential eval.      ....       0.119 sec  ( 28.0% of XC)
Diagonalization             ....       0.034 sec  (  0.0%)
Density matrix formation    ....       0.005 sec  (  0.0%)
Population analysis         ....       0.005 sec  (  0.0%)
Initial guess               ....       0.117 sec  (  0.1%)
Orbital Transformation      ....       0.000 sec  (  0.0%)
Orbital Orthonormalization  ....       0.000 sec  (  0.0%)
DIIS solution               ....       0.015 sec  (  0.0%)
Grid generation             ....       0.209 sec  (  0.1%)

-------------------------   --------------------
FINAL SINGLE POINT ENERGY     -4214.578653980479
-------------------------   --------------------


                            ***************************************
                            *     ORCA property calculations      *
                            ***************************************

                                    ---------------------
                                    Active property flags
                                    ---------------------
   (+) Dipole Moment


------------------------------------------------------------------------------
                       ORCA ELECTRIC PROPERTIES CALCULATION
------------------------------------------------------------------------------

Dipole Moment Calculation                       ... on
Quadrupole Moment Calculation                   ... off
Polarizability Calculation                      ... off
GBWName                                         ... 52_CuBr.gbw
Electron density file                           ... 52_CuBr.scfp
The origin for moment calculation is the CENTER OF MASS  = ( 0.000000,  0.000000  2.125789)

-------------
DIPOLE MOMENT
-------------
                                X             Y             Z
Electronic contribution:      0.00000       0.00000       0.62649
Nuclear contribution   :      0.00000       0.00000      -2.68116
                        -----------------------------------------
Total Dipole Moment    :      0.00000       0.00000      -2.05467
                        -----------------------------------------
Magnitude (a.u.)       :      2.05467
Magnitude (Debye)      :      5.22255



--------------------
Rotational spectrum 
--------------------
 
Rotational constants in cm-1:     0.000000     0.099117     0.099117 
Rotational constants in MHz :     0.000000  2971.467067  2971.467067 

 Dipole components along the rotational axes: 
x,y,z [a.u.] :    -2.054666     0.000000     0.000000 
x,y,z [Debye]:    -5.222545     0.000000     0.000000 

 

Timings for individual modules:

Sum of individual times         ...      256.012 sec (=   4.267 min)
GTO integral calculation        ...       14.283 sec (=   0.238 min)   5.6 %
SCF iterations                  ...      241.729 sec (=   4.029 min)  94.4 %
                             ****ORCA TERMINATED NORMALLY****
TOTAL RUN TIME: 0 days 0 hours 4 minutes 19 seconds 398 msec
