
                                 *****************
                                 * O   R   C   A *
                                 *****************

           --- An Ab Initio, DFT and Semiempirical electronic structure package ---

                  #######################################################
                  #                        -***-                        #
                  #          Department of theory and spectroscopy      #
                  #               Directorship: Frank Neese             #
                  #        Max Planck Institute fuer Kohlenforschung    #
                  #                Kaiser Wilhelm Platz 1               #
                  #                 D-45470 Muelheim/Ruhr               #
                  #                      Germany                        #
                  #                                                     #
                  #                  All rights reserved                #
                  #                        -***-                        #
                  #######################################################


                         Program Version 4.2.0 -  RELEASE  -


 With contributions from (in alphabetic order):
   Daniel Aravena         : Magnetic Suceptibility
   Michael Atanasov       : Ab Initio Ligand Field Theory (pilot matlab implementation)
   Alexander A. Auer      : GIAO ZORA, VPT2
   Ute Becker             : Parallelization
   Giovanni Bistoni       : ED, misc. LED, open-shell LED, HFLED
   Martin Brehm           : Molecular dynamics
   Dmytro Bykov           : SCF Hessian
   Vijay G. Chilkuri      : MRCI spin determinant printing, contributions to CSF-ICE
   Dipayan Datta          : RHF DLPNO-CCSD density
   Achintya Kumar Dutta   : EOM-CC, STEOM-CC
   Dmitry Ganyushin       : Spin-Orbit,Spin-Spin,Magnetic field MRCI
   Miquel Garcia          : C-PCM Hessian, Gaussian charge scheme
   Yang Guo               : DLPNO-NEVPT2, CIM, IAO-localization
   Andreas Hansen         : Spin unrestricted coupled pair/coupled cluster methods
   Benjamin Helmich-Paris : CASSCF linear response (MC-RPA)
   Lee Huntington         : MR-EOM, pCC
   Robert Izsak           : Overlap fitted RIJCOSX, COSX-SCS-MP3, EOM
   Christian Kollmar      : KDIIS, OOCD, Brueckner-CCSD(T), CCSD density
   Simone Kossmann        : Meta GGA functionals, TD-DFT gradient, OOMP2, MP2 Hessian
   Martin Krupicka        : AUTO-CI
   Lucas Lang             : DCDCAS
   Dagmar Lenk            : GEPOL surface, SMD
   Dimitrios Liakos       : Extrapolation schemes; Compound Job, initial MDCI parallelization
   Dimitrios Manganas     : Further ROCIS development; embedding schemes
   Dimitrios Pantazis     : SARC Basis sets
   Taras Petrenko         : DFT Hessian,TD-DFT gradient, ASA, ECA, R-Raman, ABS, FL, XAS/XES, NRVS
   Peter Pinski           : DLPNO-MP2, DLPNO-MP2 Gradient
   Christoph Reimann      : Effective Core Potentials
   Marius Retegan         : Local ZFS, SOC
   Christoph Riplinger    : Optimizer, TS searches, QM/MM, DLPNO-CCSD(T), (RO)-DLPNO pert. Triples
   Tobias Risthaus        : Range-separated hybrids, TD-DFT gradient, RPA, STAB
   Michael Roemelt        : Original ROCIS implementation
   Masaaki Saitow         : Open-shell DLPNO-CCSD energy and density
   Barbara Sandhoefer     : DKH picture change effects
   Avijit Sen             : IP-ROCIS
   Kantharuban Sivalingam : CASSCF convergence, NEVPT2, FIC-MRCI
   Bernardo de Souza      : ESD, SOC TD-DFT
   Georgi Stoychev        : AutoAux, RI-MP2 NMR
   Willem Van den Heuvel  : Paramagnetic NMR
   Boris Wezisla          : Elementary symmetry handling
   Frank Wennmohs         : Technical directorship


 We gratefully acknowledge several colleagues who have allowed us to
 interface, adapt or use parts of their codes:
   Stefan Grimme, W. Hujo, H. Kruse,             : VdW corrections, initial TS optimization,
                  C. Bannwarth                     DFT functionals, gCP, sTDA/sTD-DF
   Ed Valeev, F. Pavosevic, A. Kumar             : LibInt (2-el integral package), F12 methods
   Garnet Chan, S. Sharma, J. Yang, R. Olivares  : DMRG
   Ulf Ekstrom                                   : XCFun DFT Library
   Mihaly Kallay                                 : mrcc  (arbitrary order and MRCC methods)
   Andreas Klamt, Michael Diedenhofen            : otool_cosmo (COSMO solvation model)
   Jiri Pittner, Ondrej Demel                    : Mk-CCSD
   Frank Weinhold                                : gennbo (NPA and NBO analysis)
   Christopher J. Cramer and Donald G. Truhlar   : smd solvation model
   Lars Goerigk                                  : TD-DFT with DH, B97 family of functionals
   V. Asgeirsson, H. Jonsson                     : NEB implementation
   FAccTs GmbH                                   : IRC, NEB, NEB-TS, Multilevel, MM, QM/MM, CI optimization
   S Lehtola, MJT Oliveira, MAL Marques          : LibXC Library


 Your calculation uses the libint2 library for the computation of 2-el integrals
 For citations please refer to: http://libint.valeyev.net

 Your ORCA version has been built with support for libXC version: 4.2.3
 For citations please refer to: https://tddft.org/programs/libxc/

 This ORCA versions uses:
   CBLAS   interface :  Fast vector & matrix operations
   LAPACKE interface :  Fast linear algebra routines
   SCALAPACK package :  Parallel linear algebra routines


Your calculation utilizes the DFT-NL dispersion correction.
Cite in your paper:
Vydrov, O. A.; Van Voorhis, T. J. Chem. Phys. 2010, 133, 244103
Hujo, W.; Grimme, S. J. Chem. Theory Comput. 2011, 7, 3866 
   

----- Orbital basis set information -----
Your calculation utilizes the basis: aug-cc-pVTZ 
    H, B-Ne : Obtained from the ccRepo (grant-hill.group.shef.ac.uk/ccrepo) Feb. 2017
              R. A. Kendall, T. H. Dunning, Jr., R. J. Harrison, J. Chem. Phys. 96, 6796 (1992)
         He : Obtained from the ccRepo (grant-hill.group.shef.ac.uk/ccrepo) Feb. 2017
              D. E. Woon, T. H. Dunning, Jr., J. Chem. Phys. 100, 2975 (1994)
  Li-Be, Na : Obtained from the ccRepo (grant-hill.group.shef.ac.uk/ccrepo) Feb. 2017
              B. P. Prascher, D. E. Woon, K. A. Peterson, T. H. Dunning, Jr., A. K. Wilson, Theor. Chem. Acc. 128, 69 (2011)
         Mg : Obtained from the Peterson Research Group Website (tyr0.chem.wsu.edu/~kipeters) Feb. 2017
              B. P. Prascher, D. E. Woon, K. A. Peterson, T. H. Dunning, Jr., A. K. Wilson, Theor. Chem. Acc. 128, 69 (2011)
      Al-Ar : Obtained from the ccRepo (grant-hill.group.shef.ac.uk/ccrepo) Feb. 2017
              D. E. Woon, T. H. Dunning, Jr., J. Chem. Phys. 98, 1358 (1993)
      Sc-Zn : Obtained from the ccRepo (grant-hill.group.shef.ac.uk/ccrepo) Feb. 2017
              N. B. Balabanov, K. A. Peterson, J. Chem. Phys. 123, 064107 (2005)
              N. B. Balabanov, K. A. Peterson, J. Chem. Phys. 125, 074110 (2006)
      Ga-Kr : Obtained from the ccRepo (grant-hill.group.shef.ac.uk/ccrepo) Feb. 2017
              A. K. Wilson, D. E. Woon, K. A. Peterson, T. H. Dunning, Jr., J. Chem. Phys. 110, 7667 (1999)
     Ag, Au : Obtained from the Peterson Research Group Website (tyr0.chem.wsu.edu/~kipeters) Feb. 2017
              K. A. Peterson, C. Puzzarini, Theor. Chem. Acc. 114, 283 (2005)

----- AuxJK basis set information -----
Your calculation utilizes the auxiliary basis: def2/JK
   H-Ba, Hf-Rn: F. Weigend, J. Comput. Chem. 29, 167 (2008).

================================================================================
                                        WARNINGS
                       Please study these warnings very carefully!
================================================================================


WARNING: your system is open-shell and RHF/RKS was chosen
  ===> : WILL SWITCH to UHF/UKS


INFO   : the flag for use of LIBINT has been found!

================================================================================
                                       INPUT FILE
================================================================================
NAME = 57_ZnCl.in
|  1> #
|  2> # 57_ZnCl wb97m-v/aug-cc-pvtz
|  3> #
|  4> ! wb97m-v aug-cc-pvtz def2/jk grid4 nofinalgrid
|  5> 
|  6> *xyz 0 2
|  7>   Zn  0.00000000000000      0.00000000000000     -0.08307444970280
|  8>   Cl  0.00000000000000      0.00000000000000      2.08307444970280
|  9> *
| 10> 
| 11> %pal
| 12> nprocs 24
| 13> end
| 14> 
| 15> 
| 16>                          ****END OF INPUT****
================================================================================

                       ****************************
                       * Single Point Calculation *
                       ****************************

---------------------------------
CARTESIAN COORDINATES (ANGSTROEM)
---------------------------------
  Zn     0.000000    0.000000   -0.083074
  Cl     0.000000    0.000000    2.083074

----------------------------
CARTESIAN COORDINATES (A.U.)
----------------------------
  NO LB      ZA    FRAG     MASS         X           Y           Z
   0 Zn   30.0000    0    65.380    0.000000    0.000000   -0.156988
   1 Cl   17.0000    0    35.453    0.000000    0.000000    3.936440

--------------------------------
INTERNAL COORDINATES (ANGSTROEM)
--------------------------------
 Zn     0   0   0     0.000000000000     0.00000000     0.00000000
 Cl     1   0   0     2.166148899406     0.00000000     0.00000000

---------------------------
INTERNAL COORDINATES (A.U.)
---------------------------
 Zn     0   0   0     0.000000000000     0.00000000     0.00000000
 Cl     1   0   0     4.093428185172     0.00000000     0.00000000

---------------------
BASIS SET INFORMATION
---------------------
There are 2 groups of distinct atoms

 Group   1 Type Zn  : 116s77p23d3f2g contracted to 8s7p5d3f2g pattern {19191919191911/151515151511/77711/111/11}
 Group   2 Type Cl  : 42s17p3d2f contracted to 6s5p3d2f pattern {131313111/77111/111/11}

Atom   0Zn   basis set group =>   1
Atom   1Cl   basis set group =>   2
----------------------------------
AUXILIARY/JK BASIS SET INFORMATION
----------------------------------
There are 2 groups of distinct atoms

 Group   1 Type Zn  : 19s14p12d10f7g3h1i contracted to 16s13p11d9f5g3h1i pattern {4111111111111111/2111111111111/21111111111/211111111/31111/111/1}
 Group   2 Type Cl  : 16s12p10d4f1g contracted to 13s11p9d4f1g pattern {4111111111111/21111111111/211111111/1111/1}

Atom   0Zn   basis set group =>   1
Atom   1Cl   basis set group =>   2


           ************************************************************
           *        Program running with 24 parallel MPI-processes    *
           *              working on a common directory               *
           ************************************************************
------------------------------------------------------------------------------
                           ORCA GTO INTEGRAL CALCULATION
------------------------------------------------------------------------------

                         BASIS SET STATISTICS AND STARTUP INFO

 # of primitive gaussian shells          ...  285
 # of primitive gaussian functions       ...  623
 # of contracted shells                  ...   41
 # of contracted basis functions         ...  143
 Highest angular momentum                ...    4
 Maximum contraction depth               ...   19
 Integral package used                   ... LIBINT
 Integral threshhold            Thresh   ...  1.000e-10
 Primitive cut-off              TCut     ...  1.000e-11


------------------------------ INTEGRAL EVALUATION ----------------------------


 * One electron integrals 
 Pre-screening matrix                    ... done
 Shell pair data                         ... done (   0.001 sec)



           ************************************************************
           *        Program running with 24 parallel MPI-processes    *
           *              working on a common directory               *
           ************************************************************
-------------------------------------------------------------------------------
                                 ORCA SCF
-------------------------------------------------------------------------------

------------
SCF SETTINGS
------------
Hamiltonian:
 Density Functional     Method          .... DFT(GTOs)
 Exchange Functional    Exchange        .... WB97M-V
 Correlation Functional Correlation     .... WB97M-V
 Gradients option       PostSCFGGA      .... off
 Hybrid DFT is turned on
   Fraction HF Exchange ScalHFX         ....  0.150000
   Scaling of DF-GGA-X  ScalDFX         ....  0.000000
   Scaling of DF-GGA-C  ScalDFC         ....  1.000000
   Scaling of DF-LDA-C  ScalLDAC        ....  1.000000
   Perturbative correction              ....  0.000000
   Density functional embedding theory  .... OFF
 Long-range corrected/Screened/Range-Separated Hybrid DFT is turned on
   Amount of maximum screened exact exchange              ....  0.850000
   Range separation parameter mu (erf(mu*r12)/r12)        ....  0.300000
   NL short-range parameter             ....  6.000000
   NL long-range parameter              ....  0.010000


General Settings:
 Integral files         IntName         .... 57_ZnCl
 Hartree-Fock type      HFTyp           .... UHF
 Total Charge           Charge          ....    0
 Multiplicity           Mult            ....    2
 Number of Electrons    NEL             ....   47
 Basis Dimension        Dim             ....  143
 Nuclear Repulsion      ENuc            ....    124.5899468439 Eh

Convergence Acceleration:
 DIIS                   CNVDIIS         .... on
   Start iteration      DIISMaxIt       ....    12
   Startup error        DIISStart       ....  0.200000
   # of expansion vecs  DIISMaxEq       ....     5
   Bias factor          DIISBfac        ....   1.050
   Max. coefficient     DIISMaxC        ....  10.000
 Newton-Raphson         CNVNR           .... off
 SOSCF                  CNVSOSCF        .... off
 Level Shifting         CNVShift        .... on
   Level shift para.    LevelShift      ....    0.2500
   Turn off err/grad.   ShiftErr        ....    0.0010
 Zerner damping         CNVZerner       .... off
 Static damping         CNVDamp         .... on
   Fraction old density DampFac         ....    0.7000
   Max. Damping (<1)    DampMax         ....    0.9800
   Min. Damping (>=0)   DampMin         ....    0.0000
   Turn off err/grad.   DampErr         ....    0.1000
 Fernandez-Rico         CNVRico         .... off

SCF Procedure:
 Maximum # iterations   MaxIter         ....   125
 SCF integral mode      SCFMode         .... Direct
   Integral package                     .... LIBINT
 Reset frequency        DirectResetFreq ....    20
 Integral Threshold     Thresh          ....  1.000e-10 Eh
 Primitive CutOff       TCut            ....  1.000e-11 Eh

Convergence Tolerance:
 Convergence Check Mode ConvCheckMode   .... Total+1el-Energy
 Convergence forced     ConvForced      .... 0
 Energy Change          TolE            ....  1.000e-06 Eh
 1-El. energy change                    ....  1.000e-03 Eh
 DIIS Error             TolErr          ....  1.000e-06


Diagonalization of the overlap matrix:
Smallest eigenvalue                        ... 2.608e-04
Time for diagonalization                   ...    0.005 sec
Threshold for overlap eigenvalues          ... 1.000e-08
Number of eigenvalues below threshold      ... 0
Time for construction of square roots      ...    0.003 sec
Total time needed                          ...    0.008 sec

-------------------
DFT GRID GENERATION
-------------------

General Integration Accuracy     IntAcc      ...  4.670
Radial Grid Type                 RadialGrid  ... Gauss-Chebyshev
Angular Grid (max. acc.)         AngularGrid ... Lebedev-302
Angular grid pruning method      GridPruning ... 3 (G Style)
Weight generation scheme         WeightScheme... Becke
Basis function cutoff            BFCut       ...    1.0000e-10
Integration weight cutoff        WCut        ...    1.0000e-14
Grids for H and He will be reduced by one unit

# of grid points (after initial pruning)     ...  16378 (   0.0 sec)
# of grid points (after weights+screening)   ...  16351 (   0.0 sec)
nearest neighbour list constructed           ...    0.0 sec
Grid point re-assignment to atoms done       ...    0.0 sec
Grid point division into batches done        ...    0.1 sec
Reduced shell lists constructed in    0.1 sec

Total number of grid points                  ...    16351
Total number of batches                      ...      256
Average number of points per batch           ...       63
Average number of grid points per atom       ...     8176
Average number of shells per batch           ...    14.00 (34.15%)
Average number of basis functions per batch  ...    31.50 (22.03%)
Average number of large shells per batch     ...     6.83 (48.81%)
Average number of large basis fcns per batch ...    16.17 (51.32%)
Maximum spatial batch extension              ...  23.02, 23.02, 16.62 au
Average spatial batch extension              ...   0.80,  0.78,  0.61 au

Time for grid setup =    0.169 sec

------------------------------
INITIAL GUESS: MODEL POTENTIAL
------------------------------
Loading Hartree-Fock densities                     ... done
Calculating cut-offs                               ... done
Setting up the integral package                    ... done
Initializing the effective Hamiltonian             ... done
Starting the Coulomb interaction                   ... done (   0.0 sec)
Reading the grid                                   ... done
Mapping shells                                     ... done
Starting the XC term evaluation                    ... done (   0.0 sec)
  promolecular density results
     # of electrons  =     46.999999447
     EX              =    -96.925510210
     EC              =     -2.075672651
     EX+EC           =    -99.001182860
Transforming the Hamiltonian                       ... done (   0.0 sec)
Diagonalizing the Hamiltonian                      ... done (   0.0 sec)
Back transforming the eigenvectors                 ... done (   0.0 sec)
Now organizing SCF variables                       ... done
                      ------------------
                      INITIAL GUESS DONE (   0.3 sec)
                      ------------------
--------------
SCF ITERATIONS
--------------
ITER       Energy         Delta-E        Max-DP      RMS-DP      [F,P]     Damp
               ***  Starting incremental Fock matrix formation  ***
  0  -2239.6466278382   0.000000000000 1.93190932  0.02138096  0.2611799 0.7000
  1  -2239.5928402956   0.053787542622 0.58525573  0.00644648  0.0851192 0.7000
                               ***Turning on DIIS***
  2  -2239.6434613835  -0.050621087928 1.36881833  0.01507258  0.0540863 0.0000
  3  -2239.7481888830  -0.104727499462 0.02933018  0.00035320  0.0405816 0.0000
  4  -2239.7499966597  -0.001807776678 0.01726099  0.00025020  0.0356712 0.0000
  5  -2239.7508525908  -0.000855931122 0.01216155  0.00013983  0.0044881 0.0000
  6  -2239.7509568479  -0.000104257107 5.33616597  0.08598925  0.0030873 0.0000
  7  -2239.2871548519   0.463801995953 0.04439203  0.00057937  0.1474547 0.7000
  8  -2239.2870958489   0.000059003007 0.03109969  0.00038875  0.1471553 0.7000
  9  -2239.2872644905  -0.000168641619 0.02497973  0.00031145  0.1467374 0.7000
 10  -2239.2874332897  -0.000168799147 0.21018450  0.00292956  0.1463808 0.7000
 11  -2239.2886952300  -0.001261940263 1.57738095  0.02532735  0.1463146 0.7000
 12  -2239.4520924365  -0.163397206543 3.68050447  0.05909111  0.0466537 0.0000
 13  -2239.7215265638  -0.269434127331 0.02045284  0.00033894  0.0998019 0.0000
 14  -2239.7354371678  -0.013910603927 0.01768081  0.00023104  0.0701809 0.0000
 15  -2239.7414530596  -0.006015891867 0.01469559  0.00017973  0.0548401 0.0000
 16  -2239.7447839394  -0.003330879760 0.01254597  0.00014681  0.0445825 0.0000
 17  -2239.7467763598  -0.001992420410 0.03566651  0.00045518  0.0372941 0.0000
 18  -2239.7508138304  -0.004037470571 0.01717750  0.00016436  0.0092553 0.0000
 19  -2239.7510490183  -0.000235187912 0.00719894  0.00006565  0.0077049 0.0000
               *** Restarting incremental Fock matrix formation ***
                                   *** Resetting DIIS ***
 20  -2239.7510587112  -0.000009692886 0.01222060  0.00021740  0.0017324 0.0000
 21  -2239.7513063164  -0.000247605237 0.00413677  0.00007400  0.0017651 0.0000
 22  -2239.7512045173   0.000101799119 0.00449823  0.00007923  0.0014158 0.0000
 23  -2239.7510651603   0.000139356946 0.00424028  0.00007781  0.0008183 0.0000
 24  -2239.7509101313   0.000155029043 0.00026733  0.00000630  0.0001715 0.0000
 25  -2239.7508999985   0.000010132831 0.00018600  0.00000372  0.0000997 0.0000
 26  -2239.7508976935   0.000002304948 0.00019438  0.00000355  0.0000337 0.0000
                 **** Energy Check signals convergence ****

               *****************************************************
               *                     SUCCESS                       *
               *           SCF CONVERGED AFTER  27 CYCLES          *
               *****************************************************


Setting up the DFT-NL grid :

General Integration Accuracy     IntAcc      ...  4.340
Radial Grid Type                 RadialGrid  ... Gauss-Chebyshev
Angular Grid (max. acc.)         AngularGrid ... Lebedev-110
Angular grid pruning method      GridPruning ... 3 (G Style)
Weight generation scheme         WeightScheme... Becke
Basis function cutoff            BFCut       ...    1.0000e-10
Integration weight cutoff        WCut        ...    1.0000e-14
Grids for H and He will be reduced by one unit

# of grid points (after initial pruning)     ...   4756 (   0.0 sec)
# of grid points (after weights+screening)   ...   4732 (   0.0 sec)
nearest neighbour list constructed           ...    0.0 sec
Grid point re-assignment to atoms done       ...    0.0 sec
Grid point division into batches done        ...    0.0 sec
Reduced shell lists constructed in    0.0 sec

Total number of grid points                  ...     4732
Total number of batches                      ...       75
Average number of points per batch           ...       63
Average number of grid points per atom       ...     2366
Average number of shells per batch           ...    20.00 (48.78%)
Average number of basis functions per batch  ...    53.60 (37.48%)
Average number of large shells per batch     ...    14.40 (72.00%)
Average number of large basis fcns per batch ...    35.20 (65.67%)
Maximum spatial batch extension              ...  17.39, 26.34, 15.08 au
Average spatial batch extension              ...   0.85,  1.17,  0.80 au

Final grid set up in    0.0 sec

-------------------------------------------------------------------------------
                         DFT-NL dispersion correction                          
-------------------------------------------------------------------------------

SC Energy -2239.750898115 
NL    Energy 0.198102624 
SC+NL Energy -2239.552795491 
NL done in    0.0 sec
-------------------------------------------------------------------------------

----------------
TOTAL SCF ENERGY
----------------

Total Energy       :        -2239.55279549 Eh          -60941.32976 eV

Components:
Nuclear Repulsion  :          124.58994684 Eh            3390.26481 eV
Electronic Energy  :        -2364.14274234 Eh          -64331.59457 eV
One Electron Energy:        -3366.20414166 Eh          -91599.07150 eV
Two Electron Energy:         1002.06139933 Eh           27267.47693 eV

Virial components:
Potential Energy   :        -4476.18058373 Eh         -121803.06603 eV
Kinetic Energy     :         2236.62778824 Eh           60861.73627 eV
Virial Ratio       :            2.00130778


DFT components:
N(Alpha)           :       24.000005078803 electrons
N(Beta)            :       23.000005885551 electrons
N(Total)           :       47.000010964354 electrons
E(X)               :      -76.000568437036 Eh       
E(C)               :       -2.412755038459 Eh       
NL Energy, E(C,NL) :        0.198102623562 Eh       
E(XC)              :      -78.215220851932 Eh       
DFET-embed. en.    :        0.000000000000 Eh       

---------------
SCF CONVERGENCE
---------------

  Last Energy change         ...   -4.2137e-07  Tolerance :   1.0000e-06
  Last MAX-Density change    ...    1.7857e-04  Tolerance :   1.0000e-05
  Last RMS-Density change    ...    3.1889e-06  Tolerance :   1.0000e-06
  Last DIIS Error            ...    7.0054e-05  Tolerance :   1.0000e-06

             **** THE GBW FILE WAS UPDATED (57_ZnCl.gbw) ****
             **** DENSITY FILE WAS UPDATED (57_ZnCl.scfp) ****
             **** ENERGY FILE WAS UPDATED (57_ZnCl.en.tmp) ****
----------------------
UHF SPIN CONTAMINATION
----------------------

Warning: in a DFT calculation there is little theoretical justification to 
         calculate <S**2> as in Hartree-Fock theory. We will do it anyways
         but you should keep in mind that the values have only limited relevance

Expectation value of <S**2>     :     0.753062
Ideal value S*(S+1) for S=0.5   :     0.750000
Deviation                       :     0.003062

             **** THE GBW FILE WAS UPDATED (57_ZnCl.gbw) ****
             **** DENSITY FILE WAS UPDATED (57_ZnCl.scfp) ****
----------------
ORBITAL ENERGIES
----------------
                 SPIN UP ORBITALS
  NO   OCC          E(Eh)            E(eV) 
   0   1.0000    -347.862003     -9465.8063 
   1   1.0000    -101.867705     -2771.9612 
   2   1.0000     -42.518034     -1156.9745 
   3   1.0000     -37.387970     -1017.3784 
   4   1.0000     -37.387970     -1017.3784 
   5   1.0000     -37.386440     -1017.3368 
   6   1.0000      -9.624986      -261.9092 
   7   1.0000      -7.328666      -199.4231 
   8   1.0000      -7.322875      -199.2656 
   9   1.0000      -7.322875      -199.2656 
  10   1.0000      -5.040342      -137.1547 
  11   1.0000      -3.399324       -92.5003 
  12   1.0000      -3.399324       -92.5003 
  13   1.0000      -3.395642       -92.4001 
  14   1.0000      -0.913716       -24.8635 
  15   1.0000      -0.655817       -17.8457 
  16   1.0000      -0.654522       -17.8105 
  17   1.0000      -0.654515       -17.8103 
  18   1.0000      -0.654036       -17.7972 
  19   1.0000      -0.654036       -17.7972 
  20   1.0000      -0.475395       -12.9362 
  21   1.0000      -0.410384       -11.1671 
  22   1.0000      -0.410383       -11.1671 
  23   1.0000      -0.320962        -8.7338 
  24   0.0000       0.003457         0.0941 
  25   0.0000       0.003458         0.0941 
  26   0.0000       0.011966         0.3256 
  27   0.0000       0.019905         0.5416 
  28   0.0000       0.052290         1.4229 
  29   0.0000       0.052290         1.4229 
  30   0.0000       0.095825         2.6075 
  31   0.0000       0.108772         2.9598 
  32   0.0000       0.116470         3.1693 
  33   0.0000       0.116470         3.1693 
  34   0.0000       0.149007         4.0547 
  35   0.0000       0.206176         5.6103 
  36   0.0000       0.206176         5.6103 
  37   0.0000       0.231556         6.3010 
  38   0.0000       0.231556         6.3010 
  39   0.0000       0.236309         6.4303 
  40   0.0000       0.259503         7.0614 
  41   0.0000       0.259503         7.0614 
  42   0.0000       0.259594         7.0639 
  43   0.0000       0.344367         9.3707 
  44   0.0000       0.344369         9.3708 
  45   0.0000       0.383083        10.4242 
  46   0.0000       0.431424        11.7396 
  47   0.0000       0.431424        11.7396 
  48   0.0000       0.451248        12.2791 
  49   0.0000       0.619551        16.8588 
  50   0.0000       0.619551        16.8588 
  51   0.0000       0.711482        19.3604 
  52   0.0000       0.769434        20.9374 
  53   0.0000       0.769434        20.9374 
  54   0.0000       0.770464        20.9654 
  55   0.0000       0.770470        20.9655 
  56   0.0000       0.788611        21.4592 
  57   0.0000       0.820841        22.3362 
  58   0.0000       0.848859        23.0986 
  59   0.0000       0.848865        23.0988 
  60   0.0000       0.925873        25.1943 
  61   0.0000       0.947667        25.7873 
  62   0.0000       0.947667        25.7873 
  63   0.0000       1.009828        27.4788 
  64   0.0000       1.009828        27.4788 
  65   0.0000       1.088471        29.6188 
  66   0.0000       1.088471        29.6188 
  67   0.0000       1.091011        29.6879 
  68   0.0000       1.091020        29.6882 
  69   0.0000       1.109731        30.1973 
  70   0.0000       1.277643        34.7664 
  71   0.0000       1.284875        34.9632 
  72   0.0000       1.284875        34.9632 
  73   0.0000       1.679479        45.7009 
  74   0.0000       1.699525        46.2464 
  75   0.0000       1.699525        46.2464 
  76   0.0000       1.794227        48.8234 
  77   0.0000       1.794229        48.8235 
  78   0.0000       1.997500        54.3547 
  79   0.0000       1.997500        54.3547 
  80   0.0000       2.120189        57.6933 
  81   0.0000       2.299629        62.5761 
  82   0.0000       2.299645        62.5765 
  83   0.0000       2.414183        65.6933 
  84   0.0000       2.414184        65.6933 
  85   0.0000       2.414469        65.7010 
  86   0.0000       2.521076        68.6020 
  87   0.0000       2.521076        68.6020 
  88   0.0000       2.798489        76.1507 
  89   0.0000       2.823516        76.8318 
  90   0.0000       2.823516        76.8318 
  91   0.0000       2.838585        77.2418 
  92   0.0000       2.838645        77.2435 
  93   0.0000       2.857424        77.7545 
  94   0.0000       2.857466        77.7556 
  95   0.0000       2.918407        79.4139 
  96   0.0000       2.918407        79.4139 
  97   0.0000       2.932872        79.8075 
  98   0.0000       2.932872        79.8075 
  99   0.0000       3.039677        82.7138 
 100   0.0000       3.204857        87.2086 
 101   0.0000       4.327260       117.7507 
 102   0.0000       4.407735       119.9406 
 103   0.0000       4.407735       119.9406 
 104   0.0000       4.921574       133.9228 
 105   0.0000       5.017946       136.5453 
 106   0.0000       5.017946       136.5453 
 107   0.0000       5.063950       137.7971 
 108   0.0000       5.063982       137.7979 
 109   0.0000       5.220265       142.0506 
 110   0.0000       5.220265       142.0506 
 111   0.0000       5.512281       149.9968 
 112   0.0000       5.902992       160.6286 
 113   0.0000       7.457300       202.9235 
 114   0.0000       7.457592       202.9314 
 115   0.0000       7.461444       203.0362 
 116   0.0000       7.461444       203.0362 
 117   0.0000       7.468419       203.2260 
 118   0.0000       7.468497       203.2281 
 119   0.0000       7.490061       203.8149 
 120   0.0000       7.490061       203.8149 
 121   0.0000       7.551072       205.4751 
 122   0.0000      10.315584       280.7013 
 123   0.0000      10.315596       280.7016 
 124   0.0000      10.381357       282.4911 
 125   0.0000      10.381357       282.4911 
 126   0.0000      10.546529       286.9856 
 127   0.0000      16.043150       436.5563 
 128   0.0000      16.043150       436.5563 
 129   0.0000      16.067158       437.2096 
 130   0.0000      16.067187       437.2104 
 131   0.0000      16.150026       439.4645 
 132   0.0000      16.150026       439.4645 
 133   0.0000      16.249071       442.1597 
 134   0.0000      19.803987       538.8939 
 135   0.0000      19.804074       538.8963 
 136   0.0000      19.807135       538.9795 
 137   0.0000      19.807135       538.9795 
 138   0.0000      19.811331       539.0937 
 139   0.0000      19.811610       539.1013 
 140   0.0000      19.823615       539.4280 
 141   0.0000      19.823615       539.4280 
 142   0.0000      19.845277       540.0174 

                 SPIN DOWN ORBITALS
  NO   OCC          E(Eh)            E(eV) 
   0   1.0000    -347.860718     -9465.7714 
   1   1.0000    -101.866177     -2771.9196 
   2   1.0000     -42.516899     -1156.9436 
   3   1.0000     -37.387383     -1017.3624 
   4   1.0000     -37.387383     -1017.3624 
   5   1.0000     -37.384537     -1017.2850 
   6   1.0000      -9.623477      -261.8681 
   7   1.0000      -7.323732      -199.2889 
   8   1.0000      -7.321748      -199.2349 
   9   1.0000      -7.321748      -199.2349 
  10   1.0000      -5.037542      -137.0785 
  11   1.0000      -3.396822       -92.4322 
  12   1.0000      -3.396822       -92.4322 
  13   1.0000      -3.393518       -92.3423 
  14   1.0000      -0.905531       -24.6408 
  15   1.0000      -0.651151       -17.7187 
  16   1.0000      -0.651143       -17.7185 
  17   1.0000      -0.650966       -17.7137 
  18   1.0000      -0.650966       -17.7137 
  19   1.0000      -0.649236       -17.6666 
  20   1.0000      -0.453173       -12.3315 
  21   1.0000      -0.406911       -11.0726 
  22   1.0000      -0.406910       -11.0726 
  23   0.0000      -0.165526        -4.5042 
  24   0.0000      -0.111892        -3.0447 
  25   0.0000      -0.059541        -1.6202 
  26   0.0000      -0.057931        -1.5764 
  27   0.0000      -0.007995        -0.2176 
  28   0.0000       0.011631         0.3165 
  29   0.0000       0.016822         0.4578 
  30   0.0000       0.019362         0.5269 
  31   0.0000       0.086935         2.3656 
  32   0.0000       0.103568         2.8182 
  33   0.0000       0.103988         2.8297 
  34   0.0000       0.111766         3.0413 
  35   0.0000       0.152649         4.1538 
  36   0.0000       0.152650         4.1538 
  37   0.0000       0.180886         4.9221 
  38   0.0000       0.181192         4.9305 
  39   0.0000       0.209523         5.7014 
  40   0.0000       0.223865         6.0917 
  41   0.0000       0.223971         6.0946 
  42   0.0000       0.230151         6.2627 
  43   0.0000       0.333018         9.0619 
  44   0.0000       0.333021         9.0620 
  45   0.0000       0.338466         9.2101 
  46   0.0000       0.415694        11.3116 
  47   0.0000       0.415801        11.3145 
  48   0.0000       0.439589        11.9618 
  49   0.0000       0.610320        16.6077 
  50   0.0000       0.610388        16.6095 
  51   0.0000       0.693726        18.8773 
  52   0.0000       0.764152        20.7936 
  53   0.0000       0.764159        20.7938 
  54   0.0000       0.767388        20.8817 
  55   0.0000       0.767390        20.8818 
  56   0.0000       0.783610        21.3231 
  57   0.0000       0.809097        22.0167 
  58   0.0000       0.846309        23.0292 
  59   0.0000       0.846314        23.0294 
  60   0.0000       0.918790        25.0015 
  61   0.0000       0.945145        25.7187 
  62   0.0000       0.945169        25.7194 
  63   0.0000       0.998258        27.1640 
  64   0.0000       0.998270        27.1643 
  65   0.0000       1.088242        29.6126 
  66   0.0000       1.088242        29.6126 
  67   0.0000       1.091776        29.7087 
  68   0.0000       1.091789        29.7091 
  69   0.0000       1.103759        30.0348 
  70   0.0000       1.277394        34.7597 
  71   0.0000       1.288135        35.0519 
  72   0.0000       1.288135        35.0519 
  73   0.0000       1.682655        45.7874 
  74   0.0000       1.706949        46.4485 
  75   0.0000       1.706949        46.4485 
  76   0.0000       1.802289        49.0428 
  77   0.0000       1.802296        49.0430 
  78   0.0000       2.003506        54.5182 
  79   0.0000       2.003507        54.5182 
  80   0.0000       2.121393        57.7260 
  81   0.0000       2.301341        62.6227 
  82   0.0000       2.301365        62.6233 
  83   0.0000       2.418544        65.8119 
  84   0.0000       2.418563        65.8124 
  85   0.0000       2.426635        66.0321 
  86   0.0000       2.527039        68.7642 
  87   0.0000       2.527043        68.7643 
  88   0.0000       2.811139        76.4950 
  89   0.0000       2.825187        76.8772 
  90   0.0000       2.825187        76.8772 
  91   0.0000       2.841566        77.3229 
  92   0.0000       2.841625        77.3245 
  93   0.0000       2.860733        77.8445 
  94   0.0000       2.860791        77.8461 
  95   0.0000       2.922010        79.5119 
  96   0.0000       2.922015        79.5121 
  97   0.0000       2.939034        79.9752 
  98   0.0000       2.939034        79.9752 
  99   0.0000       3.048140        82.9441 
 100   0.0000       3.208130        87.2976 
 101   0.0000       4.325013       117.6896 
 102   0.0000       4.407296       119.9286 
 103   0.0000       4.407299       119.9287 
 104   0.0000       4.919701       133.8719 
 105   0.0000       5.017874       136.5433 
 106   0.0000       5.017874       136.5433 
 107   0.0000       5.064409       137.8096 
 108   0.0000       5.064444       137.8105 
 109   0.0000       5.221510       142.0845 
 110   0.0000       5.221510       142.0845 
 111   0.0000       5.515339       150.0800 
 112   0.0000       5.902143       160.6055 
 113   0.0000       7.458942       202.9681 
 114   0.0000       7.459230       202.9760 
 115   0.0000       7.463503       203.0922 
 116   0.0000       7.463503       203.0922 
 117   0.0000       7.470967       203.2953 
 118   0.0000       7.471046       203.2975 
 119   0.0000       7.492671       203.8859 
 120   0.0000       7.492671       203.8859 
 121   0.0000       7.553355       205.5372 
 122   0.0000      10.315180       280.6903 
 123   0.0000      10.315197       280.6908 
 124   0.0000      10.380200       282.4596 
 125   0.0000      10.380201       282.4596 
 126   0.0000      10.546699       286.9903 
 127   0.0000      16.046228       436.6401 
 128   0.0000      16.046228       436.6401 
 129   0.0000      16.068690       437.2513 
 130   0.0000      16.068719       437.2521 
 131   0.0000      16.151642       439.5085 
 132   0.0000      16.151642       439.5085 
 133   0.0000      16.250830       442.2076 
 134   0.0000      19.805701       538.9405 
 135   0.0000      19.805787       538.9429 
 136   0.0000      19.807859       538.9992 
 137   0.0000      19.807859       538.9992 
 138   0.0000      19.811785       539.1061 
 139   0.0000      19.812063       539.1136 
 140   0.0000      19.823996       539.4384 
 141   0.0000      19.823996       539.4384 
 142   0.0000      19.845611       540.0265 

                    ********************************
                    * MULLIKEN POPULATION ANALYSIS *
                    ********************************

--------------------------------------------
MULLIKEN ATOMIC CHARGES AND SPIN POPULATIONS
--------------------------------------------
   0 Zn:    0.488067    0.855317
   1 Cl:   -0.488067    0.144683
Sum of atomic charges         :   -0.0000000
Sum of atomic spin populations:    1.0000000

-----------------------------------------------------
MULLIKEN REDUCED ORBITAL CHARGES AND SPIN POPULATIONS
-----------------------------------------------------
CHARGE
  0 Zns       :     7.130119  s :     7.130119
      pz      :     4.283343  p :    12.374662
      px      :     4.045665
      py      :     4.045654
      dz2     :     1.997337  d :    10.002838
      dxz     :     2.002866
      dyz     :     2.002864
      dx2y2   :     1.999886
      dxy     :     1.999886
      f0      :     0.001845  f :     0.004298
      f+1     :     0.001225
      f-1     :     0.001225
      f+2     :     0.000001
      f-2     :     0.000001
      f+3     :     0.000000
      f-3     :     0.000000
      g0      :     0.000007  g :     0.000016
      g+1     :     0.000004
      g-1     :     0.000004
      g+2     :     0.000000
      g-2     :     0.000000
      g+3     :     0.000000
      g-3     :     0.000000
      g+4     :     0.000000
      g-4     :     0.000000
  1 Cls       :     5.958607  s :     5.958607
      pz      :     3.614747  p :    11.501938
      px      :     3.943590
      py      :     3.943602
      dz2     :     0.013260  d :     0.025218
      dxz     :     0.005898
      dyz     :     0.005898
      dx2y2   :     0.000081
      dxy     :     0.000081
      f0      :     0.000736  f :     0.002303
      f+1     :     0.000751
      f-1     :     0.000751
      f+2     :     0.000032
      f-2     :     0.000032
      f+3     :     0.000000
      f-3     :     0.000000

SPIN
  0 Zns       :     0.670579  s :     0.670579
      pz      :     0.185746  p :     0.176977
      px      :    -0.004390
      py      :    -0.004379
      dz2     :     0.006510  d :     0.007474
      dxz     :     0.000558
      dyz     :     0.000560
      dx2y2   :    -0.000077
      dxy     :    -0.000077
      f0      :     0.000263  f :     0.000287
      f+1     :     0.000011
      f-1     :     0.000011
      f+2     :     0.000001
      f-2     :     0.000001
      f+3     :    -0.000000
      f-3     :    -0.000000
      g0      :     0.000001  g :     0.000001
      g+1     :    -0.000000
      g-1     :    -0.000000
      g+2     :    -0.000000
      g-2     :    -0.000000
      g+3     :    -0.000000
      g-3     :    -0.000000
      g+4     :    -0.000000
      g-4     :     0.000000
  1 Cls       :    -0.006329  s :    -0.006329
      pz      :     0.143028  p :     0.150110
      px      :     0.003548
      py      :     0.003535
      dz2     :     0.000259  d :     0.000866
      dxz     :     0.000242
      dyz     :     0.000242
      dx2y2   :     0.000061
      dxy     :     0.000061
      f0      :    -0.000056  f :     0.000035
      f+1     :     0.000030
      f-1     :     0.000030
      f+2     :     0.000015
      f-2     :     0.000015
      f+3     :     0.000000
      f-3     :     0.000000


                     *******************************
                     * LOEWDIN POPULATION ANALYSIS *
                     *******************************

-------------------------------------------
LOEWDIN ATOMIC CHARGES AND SPIN POPULATIONS
-------------------------------------------
   0 Zn:    0.216361    0.788328
   1 Cl:   -0.216361    0.211672

----------------------------------------------------
LOEWDIN REDUCED ORBITAL CHARGES AND SPIN POPULATIONS
----------------------------------------------------
CHARGE
  0 Zns       :     6.867511  s :     6.867511
      pz      :     4.489360  p :    12.653070
      px      :     4.081858
      py      :     4.081852
      dz2     :     2.116083  d :    10.240969
      dxz     :     2.063528
      dyz     :     2.063529
      dx2y2   :     1.998914
      dxy     :     1.998914
      f0      :     0.011842  f :     0.022007
      f+1     :     0.005080
      f-1     :     0.005080
      f+2     :     0.000002
      f-2     :     0.000002
      f+3     :     0.000000
      f-3     :     0.000000
      g0      :     0.000048  g :     0.000082
      g+1     :     0.000017
      g-1     :     0.000017
      g+2     :     0.000000
      g-2     :     0.000000
      g+3     :     0.000000
      g-3     :     0.000000
      g+4     :     0.000000
      g-4     :     0.000000
  1 Cls       :     5.722928  s :     5.722928
      pz      :     3.666034  p :    11.323348
      px      :     3.828654
      py      :     3.828660
      dz2     :     0.096736  d :     0.119843
      dxz     :     0.011065
      dyz     :     0.011065
      dx2y2   :     0.000489
      dxy     :     0.000489
      f0      :     0.029458  f :     0.050241
      f+1     :     0.009797
      f-1     :     0.009797
      f+2     :     0.000594
      f-2     :     0.000594
      f+3     :     0.000000
      f-3     :     0.000000

SPIN
  0 Zns       :     0.498057  s :     0.498057
      pz      :     0.277352  p :     0.270203
      px      :    -0.003578
      py      :    -0.003571
      dz2     :     0.015849  d :     0.018039
      dxz     :     0.001100
      dyz     :     0.001100
      dx2y2   :    -0.000005
      dxy     :    -0.000005
      f0      :     0.001924  f :     0.002022
      f+1     :     0.000047
      f-1     :     0.000047
      f+2     :     0.000002
      f-2     :     0.000002
      f+3     :    -0.000000
      f-3     :    -0.000000
      g0      :     0.000008  g :     0.000008
      g+1     :    -0.000000
      g-1     :    -0.000000
      g+2     :    -0.000000
      g-2     :    -0.000000
      g+3     :    -0.000000
      g-3     :    -0.000000
      g+4     :    -0.000000
      g-4     :     0.000000
  1 Cls       :     0.032244  s :     0.032244
      pz      :     0.151933  p :     0.157106
      px      :     0.002590
      py      :     0.002583
      dz2     :     0.021651  d :     0.021513
      dxz     :    -0.000074
      dyz     :    -0.000074
      dx2y2   :     0.000005
      dxy     :     0.000005
      f0      :     0.000982  f :     0.000809
      f+1     :    -0.000084
      f-1     :    -0.000084
      f+2     :    -0.000002
      f-2     :    -0.000002
      f+3     :     0.000000
      f-3     :     0.000000


                      *****************************
                      * MAYER POPULATION ANALYSIS *
                      *****************************

  NA   - Mulliken gross atomic population
  ZA   - Total nuclear charge
  QA   - Mulliken gross atomic charge
  VA   - Mayer's total valence
  BVA  - Mayer's bonded valence
  FA   - Mayer's free valence

  ATOM       NA         ZA         QA         VA         BVA        FA
  0 Zn    29.5119    30.0000     0.4881     1.6274     0.8348     0.7926
  1 Cl    17.4881    17.0000    -0.4881     0.8583     0.8348     0.0235

  Mayer bond orders larger than 0.100000
B(  0-Zn,  1-Cl) :   0.8348 

-------
TIMINGS
-------

Total SCF time: 0 days 0 hours 7 min 45 sec 

Total time                  ....     465.821 sec
Sum of individual times     ....     465.451 sec  ( 99.9%)

Fock matrix formation       ....     464.923 sec  ( 99.8%)
  XC integration            ....       0.982 sec  (  0.2% of F)
    Basis function eval.    ....       0.133 sec  ( 13.5% of XC)
    Density eval.           ....       0.146 sec  ( 14.8% of XC)
    XC-Functional eval.     ....       0.034 sec  (  3.5% of XC)
    XC-Potential eval.      ....       0.420 sec  ( 42.7% of XC)
Diagonalization             ....       0.148 sec  (  0.0%)
Density matrix formation    ....       0.018 sec  (  0.0%)
Population analysis         ....       0.007 sec  (  0.0%)
Initial guess               ....       0.117 sec  (  0.0%)
Orbital Transformation      ....       0.000 sec  (  0.0%)
Orbital Orthonormalization  ....       0.000 sec  (  0.0%)
DIIS solution               ....       0.054 sec  (  0.0%)
Grid generation             ....       0.184 sec  (  0.0%)

-------------------------   --------------------
FINAL SINGLE POINT ENERGY     -2239.552795491326
-------------------------   --------------------


                            ***************************************
                            *     ORCA property calculations      *
                            ***************************************

                                    ---------------------
                                    Active property flags
                                    ---------------------
   (+) Dipole Moment


------------------------------------------------------------------------------
                       ORCA ELECTRIC PROPERTIES CALCULATION
------------------------------------------------------------------------------

Dipole Moment Calculation                       ... on
Quadrupole Moment Calculation                   ... off
Polarizability Calculation                      ... off
GBWName                                         ... 57_ZnCl.gbw
Electron density file                           ... 57_ZnCl.scfp
The origin for moment calculation is the CENTER OF MASS  = ( 0.000000,  0.000000  1.282266)

-------------
DIPOLE MOMENT
-------------
                                X             Y             Z
Electronic contribution:     -0.00003      -0.00001      -2.99486
Nuclear contribution   :      0.00000       0.00000       1.94334
                        -----------------------------------------
Total Dipole Moment    :     -0.00003      -0.00001      -1.05152
                        -----------------------------------------
Magnitude (a.u.)       :      1.05152
Magnitude (Debye)      :      2.67276



--------------------
Rotational spectrum 
--------------------
 
Rotational constants in cm-1:     0.000000     0.156288     0.156288 
Rotational constants in MHz :     0.000000  4685.390286  4685.390286 

 Dipole components along the rotational axes: 
x,y,z [a.u.] :    -1.051523    -0.000014    -0.000034 
x,y,z [Debye]:    -2.672758    -0.000034    -0.000087 

 

Timings for individual modules:

Sum of individual times         ...      469.744 sec (=   7.829 min)
GTO integral calculation        ...        3.382 sec (=   0.056 min)   0.7 %
SCF iterations                  ...      466.362 sec (=   7.773 min)  99.3 %
                             ****ORCA TERMINATED NORMALLY****
TOTAL RUN TIME: 0 days 0 hours 7 minutes 50 seconds 343 msec
