
                                 *****************
                                 * O   R   C   A *
                                 *****************

           --- An Ab Initio, DFT and Semiempirical electronic structure package ---

                  #######################################################
                  #                        -***-                        #
                  #          Department of theory and spectroscopy      #
                  #               Directorship: Frank Neese             #
                  #        Max Planck Institute fuer Kohlenforschung    #
                  #                Kaiser Wilhelm Platz 1               #
                  #                 D-45470 Muelheim/Ruhr               #
                  #                      Germany                        #
                  #                                                     #
                  #                  All rights reserved                #
                  #                        -***-                        #
                  #######################################################


                         Program Version 4.2.0 -  RELEASE  -


 With contributions from (in alphabetic order):
   Daniel Aravena         : Magnetic Suceptibility
   Michael Atanasov       : Ab Initio Ligand Field Theory (pilot matlab implementation)
   Alexander A. Auer      : GIAO ZORA, VPT2
   Ute Becker             : Parallelization
   Giovanni Bistoni       : ED, misc. LED, open-shell LED, HFLED
   Martin Brehm           : Molecular dynamics
   Dmytro Bykov           : SCF Hessian
   Vijay G. Chilkuri      : MRCI spin determinant printing, contributions to CSF-ICE
   Dipayan Datta          : RHF DLPNO-CCSD density
   Achintya Kumar Dutta   : EOM-CC, STEOM-CC
   Dmitry Ganyushin       : Spin-Orbit,Spin-Spin,Magnetic field MRCI
   Miquel Garcia          : C-PCM Hessian, Gaussian charge scheme
   Yang Guo               : DLPNO-NEVPT2, CIM, IAO-localization
   Andreas Hansen         : Spin unrestricted coupled pair/coupled cluster methods
   Benjamin Helmich-Paris : CASSCF linear response (MC-RPA)
   Lee Huntington         : MR-EOM, pCC
   Robert Izsak           : Overlap fitted RIJCOSX, COSX-SCS-MP3, EOM
   Christian Kollmar      : KDIIS, OOCD, Brueckner-CCSD(T), CCSD density
   Simone Kossmann        : Meta GGA functionals, TD-DFT gradient, OOMP2, MP2 Hessian
   Martin Krupicka        : AUTO-CI
   Lucas Lang             : DCDCAS
   Dagmar Lenk            : GEPOL surface, SMD
   Dimitrios Liakos       : Extrapolation schemes; Compound Job, initial MDCI parallelization
   Dimitrios Manganas     : Further ROCIS development; embedding schemes
   Dimitrios Pantazis     : SARC Basis sets
   Taras Petrenko         : DFT Hessian,TD-DFT gradient, ASA, ECA, R-Raman, ABS, FL, XAS/XES, NRVS
   Peter Pinski           : DLPNO-MP2, DLPNO-MP2 Gradient
   Christoph Reimann      : Effective Core Potentials
   Marius Retegan         : Local ZFS, SOC
   Christoph Riplinger    : Optimizer, TS searches, QM/MM, DLPNO-CCSD(T), (RO)-DLPNO pert. Triples
   Tobias Risthaus        : Range-separated hybrids, TD-DFT gradient, RPA, STAB
   Michael Roemelt        : Original ROCIS implementation
   Masaaki Saitow         : Open-shell DLPNO-CCSD energy and density
   Barbara Sandhoefer     : DKH picture change effects
   Avijit Sen             : IP-ROCIS
   Kantharuban Sivalingam : CASSCF convergence, NEVPT2, FIC-MRCI
   Bernardo de Souza      : ESD, SOC TD-DFT
   Georgi Stoychev        : AutoAux, RI-MP2 NMR
   Willem Van den Heuvel  : Paramagnetic NMR
   Boris Wezisla          : Elementary symmetry handling
   Frank Wennmohs         : Technical directorship


 We gratefully acknowledge several colleagues who have allowed us to
 interface, adapt or use parts of their codes:
   Stefan Grimme, W. Hujo, H. Kruse,             : VdW corrections, initial TS optimization,
                  C. Bannwarth                     DFT functionals, gCP, sTDA/sTD-DF
   Ed Valeev, F. Pavosevic, A. Kumar             : LibInt (2-el integral package), F12 methods
   Garnet Chan, S. Sharma, J. Yang, R. Olivares  : DMRG
   Ulf Ekstrom                                   : XCFun DFT Library
   Mihaly Kallay                                 : mrcc  (arbitrary order and MRCC methods)
   Andreas Klamt, Michael Diedenhofen            : otool_cosmo (COSMO solvation model)
   Jiri Pittner, Ondrej Demel                    : Mk-CCSD
   Frank Weinhold                                : gennbo (NPA and NBO analysis)
   Christopher J. Cramer and Donald G. Truhlar   : smd solvation model
   Lars Goerigk                                  : TD-DFT with DH, B97 family of functionals
   V. Asgeirsson, H. Jonsson                     : NEB implementation
   FAccTs GmbH                                   : IRC, NEB, NEB-TS, Multilevel, MM, QM/MM, CI optimization
   S Lehtola, MJT Oliveira, MAL Marques          : LibXC Library


 Your calculation uses the libint2 library for the computation of 2-el integrals
 For citations please refer to: http://libint.valeyev.net

 Your ORCA version has been built with support for libXC version: 4.2.3
 For citations please refer to: https://tddft.org/programs/libxc/

 This ORCA versions uses:
   CBLAS   interface :  Fast vector & matrix operations
   LAPACKE interface :  Fast linear algebra routines
   SCALAPACK package :  Parallel linear algebra routines


Your calculation utilizes the DFT-NL dispersion correction.
Cite in your paper:
Vydrov, O. A.; Van Voorhis, T. J. Chem. Phys. 2010, 133, 244103
Hujo, W.; Grimme, S. J. Chem. Theory Comput. 2011, 7, 3866 
   

----- Orbital basis set information -----
Your calculation utilizes the basis: aug-cc-pVTZ 
    H, B-Ne : Obtained from the ccRepo (grant-hill.group.shef.ac.uk/ccrepo) Feb. 2017
              R. A. Kendall, T. H. Dunning, Jr., R. J. Harrison, J. Chem. Phys. 96, 6796 (1992)
         He : Obtained from the ccRepo (grant-hill.group.shef.ac.uk/ccrepo) Feb. 2017
              D. E. Woon, T. H. Dunning, Jr., J. Chem. Phys. 100, 2975 (1994)
  Li-Be, Na : Obtained from the ccRepo (grant-hill.group.shef.ac.uk/ccrepo) Feb. 2017
              B. P. Prascher, D. E. Woon, K. A. Peterson, T. H. Dunning, Jr., A. K. Wilson, Theor. Chem. Acc. 128, 69 (2011)
         Mg : Obtained from the Peterson Research Group Website (tyr0.chem.wsu.edu/~kipeters) Feb. 2017
              B. P. Prascher, D. E. Woon, K. A. Peterson, T. H. Dunning, Jr., A. K. Wilson, Theor. Chem. Acc. 128, 69 (2011)
      Al-Ar : Obtained from the ccRepo (grant-hill.group.shef.ac.uk/ccrepo) Feb. 2017
              D. E. Woon, T. H. Dunning, Jr., J. Chem. Phys. 98, 1358 (1993)
      Sc-Zn : Obtained from the ccRepo (grant-hill.group.shef.ac.uk/ccrepo) Feb. 2017
              N. B. Balabanov, K. A. Peterson, J. Chem. Phys. 123, 064107 (2005)
              N. B. Balabanov, K. A. Peterson, J. Chem. Phys. 125, 074110 (2006)
      Ga-Kr : Obtained from the ccRepo (grant-hill.group.shef.ac.uk/ccrepo) Feb. 2017
              A. K. Wilson, D. E. Woon, K. A. Peterson, T. H. Dunning, Jr., J. Chem. Phys. 110, 7667 (1999)
     Ag, Au : Obtained from the Peterson Research Group Website (tyr0.chem.wsu.edu/~kipeters) Feb. 2017
              K. A. Peterson, C. Puzzarini, Theor. Chem. Acc. 114, 283 (2005)

----- AuxJK basis set information -----
Your calculation utilizes the auxiliary basis: def2/JK
   H-Ba, Hf-Rn: F. Weigend, J. Comput. Chem. 29, 167 (2008).

================================================================================
                                        WARNINGS
                       Please study these warnings very carefully!
================================================================================


WARNING: your system is open-shell and RHF/RKS was chosen
  ===> : WILL SWITCH to UHF/UKS


INFO   : the flag for use of LIBINT has been found!

================================================================================
                                       INPUT FILE
================================================================================
NAME = 58_ZnBr.in
|  1> #
|  2> # 58_ZnBr wb97m-v/aug-cc-pvtz
|  3> #
|  4> ! wb97m-v aug-cc-pvtz def2/jk grid4 nofinalgrid
|  5> 
|  6> *xyz 0 2
|  7>   Zn  0.00000000000000      0.00000000000000     -0.15390624723259
|  8>   Br  0.00000000000000      0.00000000000000      2.15390624723258
|  9> *
| 10> 
| 11> %pal
| 12> nprocs 24
| 13> end
| 14> 
| 15> 
| 16>                          ****END OF INPUT****
================================================================================

                       ****************************
                       * Single Point Calculation *
                       ****************************

---------------------------------
CARTESIAN COORDINATES (ANGSTROEM)
---------------------------------
  Zn     0.000000    0.000000   -0.153906
  Br     0.000000    0.000000    2.153906

----------------------------
CARTESIAN COORDINATES (A.U.)
----------------------------
  NO LB      ZA    FRAG     MASS         X           Y           Z
   0 Zn   30.0000    0    65.380    0.000000    0.000000   -0.290841
   1 Br   35.0000    0    79.900    0.000000    0.000000    4.070293

--------------------------------
INTERNAL COORDINATES (ANGSTROEM)
--------------------------------
 Zn     0   0   0     0.000000000000     0.00000000     0.00000000
 Br     1   0   0     2.307812494465     0.00000000     0.00000000

---------------------------
INTERNAL COORDINATES (A.U.)
---------------------------
 Zn     0   0   0     0.000000000000     0.00000000     0.00000000
 Br     1   0   0     4.361133582981     0.00000000     0.00000000

---------------------
BASIS SET INFORMATION
---------------------
There are 2 groups of distinct atoms

 Group   1 Type Zn  : 116s77p23d3f2g contracted to 8s7p5d3f2g pattern {19191919191911/151515151511/77711/111/11}
 Group   2 Type Br  : 75s36p10d2f contracted to 7s6p4d2f pattern {18181818111/111111111/7111/11}

Atom   0Zn   basis set group =>   1
Atom   1Br   basis set group =>   2
----------------------------------
AUXILIARY/JK BASIS SET INFORMATION
----------------------------------
There are 2 groups of distinct atoms

 Group   1 Type Zn  : 19s14p12d10f7g3h1i contracted to 16s13p11d9f5g3h1i pattern {4111111111111111/2111111111111/21111111111/211111111/31111/111/1}
 Group   2 Type Br  : 20s14p13d10f7g3h contracted to 17s13p12d9f6g3h pattern {41111111111111111/2111111111111/211111111111/211111111/211111/111}

Atom   0Zn   basis set group =>   1
Atom   1Br   basis set group =>   2


           ************************************************************
           *        Program running with 24 parallel MPI-processes    *
           *              working on a common directory               *
           ************************************************************
------------------------------------------------------------------------------
                           ORCA GTO INTEGRAL CALCULATION
------------------------------------------------------------------------------

                         BASIS SET STATISTICS AND STARTUP INFO

 # of primitive gaussian shells          ...  344
 # of primitive gaussian functions       ...  748
 # of contracted shells                  ...   44
 # of contracted basis functions         ...  152
 Highest angular momentum                ...    4
 Maximum contraction depth               ...   19
 Integral package used                   ... LIBINT
 Integral threshhold            Thresh   ...  1.000e-10
 Primitive cut-off              TCut     ...  1.000e-11


------------------------------ INTEGRAL EVALUATION ----------------------------


 * One electron integrals 
 Pre-screening matrix                    ... done
 Shell pair data                         ... done (   0.002 sec)



           ************************************************************
           *        Program running with 24 parallel MPI-processes    *
           *              working on a common directory               *
           ************************************************************
-------------------------------------------------------------------------------
                                 ORCA SCF
-------------------------------------------------------------------------------

------------
SCF SETTINGS
------------
Hamiltonian:
 Density Functional     Method          .... DFT(GTOs)
 Exchange Functional    Exchange        .... WB97M-V
 Correlation Functional Correlation     .... WB97M-V
 Gradients option       PostSCFGGA      .... off
 Hybrid DFT is turned on
   Fraction HF Exchange ScalHFX         ....  0.150000
   Scaling of DF-GGA-X  ScalDFX         ....  0.000000
   Scaling of DF-GGA-C  ScalDFC         ....  1.000000
   Scaling of DF-LDA-C  ScalLDAC        ....  1.000000
   Perturbative correction              ....  0.000000
   Density functional embedding theory  .... OFF
 Long-range corrected/Screened/Range-Separated Hybrid DFT is turned on
   Amount of maximum screened exact exchange              ....  0.850000
   Range separation parameter mu (erf(mu*r12)/r12)        ....  0.300000
   NL short-range parameter             ....  6.000000
   NL long-range parameter              ....  0.010000


General Settings:
 Integral files         IntName         .... 58_ZnBr
 Hartree-Fock type      HFTyp           .... UHF
 Total Charge           Charge          ....    0
 Multiplicity           Mult            ....    2
 Number of Electrons    NEL             ....   65
 Basis Dimension        Dim             ....  152
 Nuclear Repulsion      ENuc            ....    240.7630906096 Eh

Convergence Acceleration:
 DIIS                   CNVDIIS         .... on
   Start iteration      DIISMaxIt       ....    12
   Startup error        DIISStart       ....  0.200000
   # of expansion vecs  DIISMaxEq       ....     5
   Bias factor          DIISBfac        ....   1.050
   Max. coefficient     DIISMaxC        ....  10.000
 Newton-Raphson         CNVNR           .... off
 SOSCF                  CNVSOSCF        .... off
 Level Shifting         CNVShift        .... on
   Level shift para.    LevelShift      ....    0.2500
   Turn off err/grad.   ShiftErr        ....    0.0010
 Zerner damping         CNVZerner       .... off
 Static damping         CNVDamp         .... on
   Fraction old density DampFac         ....    0.7000
   Max. Damping (<1)    DampMax         ....    0.9800
   Min. Damping (>=0)   DampMin         ....    0.0000
   Turn off err/grad.   DampErr         ....    0.1000
 Fernandez-Rico         CNVRico         .... off

SCF Procedure:
 Maximum # iterations   MaxIter         ....   125
 SCF integral mode      SCFMode         .... Direct
   Integral package                     .... LIBINT
 Reset frequency        DirectResetFreq ....    20
 Integral Threshold     Thresh          ....  1.000e-10 Eh
 Primitive CutOff       TCut            ....  1.000e-11 Eh

Convergence Tolerance:
 Convergence Check Mode ConvCheckMode   .... Total+1el-Energy
 Convergence forced     ConvForced      .... 0
 Energy Change          TolE            ....  1.000e-06 Eh
 1-El. energy change                    ....  1.000e-03 Eh
 DIIS Error             TolErr          ....  1.000e-06


Diagonalization of the overlap matrix:
Smallest eigenvalue                        ... 2.167e-04
Time for diagonalization                   ...    0.006 sec
Threshold for overlap eigenvalues          ... 1.000e-08
Number of eigenvalues below threshold      ... 0
Time for construction of square roots      ...    0.003 sec
Total time needed                          ...    0.009 sec

-------------------
DFT GRID GENERATION
-------------------

General Integration Accuracy     IntAcc      ...  4.670
Radial Grid Type                 RadialGrid  ... Gauss-Chebyshev
Angular Grid (max. acc.)         AngularGrid ... Lebedev-302
Angular grid pruning method      GridPruning ... 3 (G Style)
Weight generation scheme         WeightScheme... Becke
Basis function cutoff            BFCut       ...    1.0000e-10
Integration weight cutoff        WCut        ...    1.0000e-14
Grids for H and He will be reduced by one unit

# of grid points (after initial pruning)     ...  19256 (   0.0 sec)
# of grid points (after weights+screening)   ...  19230 (   0.0 sec)
nearest neighbour list constructed           ...    0.0 sec
Grid point re-assignment to atoms done       ...    0.0 sec
Grid point division into batches done        ...    0.2 sec
Reduced shell lists constructed in    0.2 sec

Total number of grid points                  ...    19230
Total number of batches                      ...      301
Average number of points per batch           ...       63
Average number of grid points per atom       ...     9615
Average number of shells per batch           ...    14.00 (31.82%)
Average number of basis functions per batch  ...    31.86 (20.96%)
Average number of large shells per batch     ...     7.86 (56.12%)
Average number of large basis fcns per batch ...    17.86 (56.05%)
Maximum spatial batch extension              ...  22.45, 22.17, 16.62 au
Average spatial batch extension              ...   0.78,  0.77,  0.63 au

Time for grid setup =    0.214 sec

------------------------------
INITIAL GUESS: MODEL POTENTIAL
------------------------------
Loading Hartree-Fock densities                     ... done
Calculating cut-offs                               ... done
Setting up the integral package                    ... done
Initializing the effective Hamiltonian             ... done
Starting the Coulomb interaction                   ... done (   0.0 sec)
Reading the grid                                   ... done
Mapping shells                                     ... done
Starting the XC term evaluation                    ... done (   0.0 sec)
  promolecular density results
     # of electrons  =     65.000004919
     EX              =   -158.830253155
     EC              =     -3.127805260
     EX+EC           =   -161.958058415
Transforming the Hamiltonian                       ... done (   0.0 sec)
Diagonalizing the Hamiltonian                      ... done (   0.0 sec)
Back transforming the eigenvectors                 ... done (   0.0 sec)
Now organizing SCF variables                       ... done
                      ------------------
                      INITIAL GUESS DONE (   0.3 sec)
                      ------------------
--------------
SCF ITERATIONS
--------------
ITER       Energy         Delta-E        Max-DP      RMS-DP      [F,P]     Damp
               ***  Starting incremental Fock matrix formation  ***
  0  -4353.5951528926   0.000000000000 0.01769534  0.00048316  0.2611669 0.7000
  1  -4353.6345696866  -0.039416793985 0.01867217  0.00043029  0.0850585 0.7000
                               ***Turning on DIIS***
  2  -4353.6523027911  -0.017733104436 0.06947164  0.00117611  0.0542771 0.0000
  3  -4353.6870197785  -0.034716987458 0.01920376  0.00027126  0.0384390 0.0000
  4  -4353.6892389385  -0.002219160023 0.00837071  0.00016384  0.0307887 0.0000
  5  -4353.6898605025  -0.000621563958 0.00764980  0.00007554  0.0042478 0.0000
  6  -4353.6899678791  -0.000107376577 0.00434390  0.00004538  0.0015698 0.0000
  7  -4353.6900103877  -0.000042508676 0.00385848  0.00005198  0.0008660 0.0000
  8  -4353.6900327122  -0.000022324464 0.00100201  0.00001873  0.0002113 0.0000
  9  -4353.6900233016   0.000009410632 0.00042310  0.00000676  0.0000659 0.0000
 10  -4353.6900266501  -0.000003348561 0.00022488  0.00000489  0.0000445 0.0000
 11  -4353.6900213473   0.000005302795 0.00010287  0.00000206  0.0000402 0.0000
 12  -4353.6900238701  -0.000002522725 0.00008952  0.00000172  0.0000390 0.0000
 13  -4353.6900253239  -0.000001453876 0.00004525  0.00000089  0.0000788 0.0000
 14  -4353.6900268098  -0.000001485870 0.00013364  0.00000251  0.0001079 0.0000
 15  -4353.6900237004   0.000003109379 0.00005836  0.00000125  0.0000568 0.0000
                 **** Energy Check signals convergence ****

               *****************************************************
               *                     SUCCESS                       *
               *           SCF CONVERGED AFTER  16 CYCLES          *
               *****************************************************


Setting up the DFT-NL grid :

General Integration Accuracy     IntAcc      ...  4.340
Radial Grid Type                 RadialGrid  ... Gauss-Chebyshev
Angular Grid (max. acc.)         AngularGrid ... Lebedev-110
Angular grid pruning method      GridPruning ... 3 (G Style)
Weight generation scheme         WeightScheme... Becke
Basis function cutoff            BFCut       ...    1.0000e-10
Integration weight cutoff        WCut        ...    1.0000e-14
Grids for H and He will be reduced by one unit

# of grid points (after initial pruning)     ...   5802 (   0.0 sec)
# of grid points (after weights+screening)   ...   5778 (   0.0 sec)
nearest neighbour list constructed           ...    0.0 sec
Grid point re-assignment to atoms done       ...    0.0 sec
Grid point division into batches done        ...    0.0 sec
Reduced shell lists constructed in    0.0 sec

Total number of grid points                  ...     5778
Total number of batches                      ...       91
Average number of points per batch           ...       63
Average number of grid points per atom       ...     2889
Average number of shells per batch           ...    21.60 (49.09%)
Average number of basis functions per batch  ...    56.80 (37.37%)
Average number of large shells per batch     ...    15.60 (72.22%)
Average number of large basis fcns per batch ...    42.80 (75.35%)
Maximum spatial batch extension              ...  17.39, 26.34, 15.35 au
Average spatial batch extension              ...   0.70,  0.97,  0.67 au

Final grid set up in    0.0 sec

-------------------------------------------------------------------------------
                         DFT-NL dispersion correction                          
-------------------------------------------------------------------------------

SC Energy -4353.690022719 
NL    Energy 0.273355518 
SC+NL Energy -4353.416667200 
NL done in    0.0 sec
-------------------------------------------------------------------------------

----------------
TOTAL SCF ENERGY
----------------

Total Energy       :        -4353.41666720 Eh         -118462.49003 eV

Components:
Nuclear Repulsion  :          240.76309061 Eh            6551.49677 eV
Electronic Energy  :        -4594.17975781 Eh         -125013.98680 eV
One Electron Energy:        -6545.62756488 Eh         -178115.58126 eV
Two Electron Energy:         1951.44780707 Eh           53101.59446 eV

Virial components:
Potential Energy   :        -8701.94099532 Eh         -236791.85275 eV
Kinetic Energy     :         4348.52432812 Eh          118329.36272 eV
Virial Ratio       :            2.00112506


DFT components:
N(Alpha)           :       33.000012301115 electrons
N(Beta)            :       32.000012930350 electrons
N(Total)           :       65.000025231465 electrons
E(X)               :     -125.941048504468 Eh       
E(C)               :       -3.663648764539 Eh       
NL Energy, E(C,NL) :        0.273355518381 Eh       
E(XC)              :     -129.331341750626 Eh       
DFET-embed. en.    :        0.000000000000 Eh       

---------------
SCF CONVERGENCE
---------------

  Last Energy change         ...    9.8158e-07  Tolerance :   1.0000e-06
  Last MAX-Density change    ...    5.9374e-05  Tolerance :   1.0000e-05
  Last RMS-Density change    ...    1.0647e-06  Tolerance :   1.0000e-06
  Last DIIS Error            ...    3.4183e-05  Tolerance :   1.0000e-06

             **** THE GBW FILE WAS UPDATED (58_ZnBr.gbw) ****
             **** DENSITY FILE WAS UPDATED (58_ZnBr.scfp) ****
             **** ENERGY FILE WAS UPDATED (58_ZnBr.en.tmp) ****
----------------------
UHF SPIN CONTAMINATION
----------------------

Warning: in a DFT calculation there is little theoretical justification to 
         calculate <S**2> as in Hartree-Fock theory. We will do it anyways
         but you should keep in mind that the values have only limited relevance

Expectation value of <S**2>     :     0.753849
Ideal value S*(S+1) for S=0.5   :     0.750000
Deviation                       :     0.003849

             **** THE GBW FILE WAS UPDATED (58_ZnBr.gbw) ****
             **** DENSITY FILE WAS UPDATED (58_ZnBr.scfp) ****
----------------
ORBITAL ENERGIES
----------------
                 SPIN UP ORBITALS
  NO   OCC          E(Eh)            E(eV) 
   0   1.0000    -483.495703    -13156.5869 
   1   1.0000    -347.861745     -9465.7993 
   2   1.0000     -62.800158     -1708.8792 
   3   1.0000     -56.487013     -1537.0898 
   4   1.0000     -56.484807     -1537.0297 
   5   1.0000     -56.484807     -1537.0297 
   6   1.0000     -42.517789     -1156.9679 
   7   1.0000     -37.387629     -1017.3691 
   8   1.0000     -37.387629     -1017.3691 
   9   1.0000     -37.386388     -1017.3353 
  10   1.0000      -8.878891      -241.6069 
  11   1.0000      -6.661350      -181.2646 
  12   1.0000      -6.654502      -181.0782 
  13   1.0000      -6.654502      -181.0782 
  14   1.0000      -5.039736      -137.1382 
  15   1.0000      -3.398480       -92.4773 
  16   1.0000      -3.398480       -92.4773 
  17   1.0000      -3.395412       -92.3939 
  18   1.0000      -2.743500       -74.6544 
  19   1.0000      -2.741577       -74.6021 
  20   1.0000      -2.741577       -74.6021 
  21   1.0000      -2.736356       -74.4600 
  22   1.0000      -2.736322       -74.4591 
  23   1.0000      -0.874950       -23.8086 
  24   1.0000      -0.653968       -17.7954 
  25   1.0000      -0.653540       -17.7837 
  26   1.0000      -0.653531       -17.7835 
  27   1.0000      -0.653033       -17.7699 
  28   1.0000      -0.653033       -17.7699 
  29   1.0000      -0.461691       -12.5633 
  30   1.0000      -0.388307       -10.5664 
  31   1.0000      -0.388307       -10.5664 
  32   1.0000      -0.315522        -8.5858 
  33   0.0000       0.003110         0.0846 
  34   0.0000       0.003111         0.0847 
  35   0.0000       0.011831         0.3219 
  36   0.0000       0.018845         0.5128 
  37   0.0000       0.049758         1.3540 
  38   0.0000       0.049760         1.3540 
  39   0.0000       0.076148         2.0721 
  40   0.0000       0.095588         2.6011 
  41   0.0000       0.095589         2.6011 
  42   0.0000       0.108717         2.9583 
  43   0.0000       0.151969         4.1353 
  44   0.0000       0.166735         4.5371 
  45   0.0000       0.195191         5.3114 
  46   0.0000       0.195192         5.3114 
  47   0.0000       0.221537         6.0283 
  48   0.0000       0.221538         6.0284 
  49   0.0000       0.247429         6.7329 
  50   0.0000       0.251382         6.8405 
  51   0.0000       0.251382         6.8405 
  52   0.0000       0.284854         7.7513 
  53   0.0000       0.284856         7.7513 
  54   0.0000       0.355666         9.6782 
  55   0.0000       0.371960        10.1216 
  56   0.0000       0.371960        10.1216 
  57   0.0000       0.408088        11.1046 
  58   0.0000       0.505459        13.7542 
  59   0.0000       0.505459        13.7542 
  60   0.0000       0.551357        15.0032 
  61   0.0000       0.647852        17.6289 
  62   0.0000       0.657240        17.8844 
  63   0.0000       0.657240        17.8844 
  64   0.0000       0.686355        18.6767 
  65   0.0000       0.686359        18.6768 
  66   0.0000       0.763492        20.7757 
  67   0.0000       0.789277        21.4773 
  68   0.0000       0.789282        21.4774 
  69   0.0000       0.867336        23.6014 
  70   0.0000       0.867336        23.6014 
  71   0.0000       0.871698        23.7201 
  72   0.0000       0.881274        23.9807 
  73   0.0000       0.881274        23.9807 
  74   0.0000       0.893563        24.3151 
  75   0.0000       0.893571        24.3153 
  76   0.0000       1.008976        27.4556 
  77   0.0000       1.008976        27.4556 
  78   0.0000       1.024686        27.8831 
  79   0.0000       1.086063        29.5533 
  80   0.0000       1.086063        29.5533 
  81   0.0000       1.221132        33.2287 
  82   0.0000       1.391650        37.8687 
  83   0.0000       1.698099        46.2076 
  84   0.0000       1.698099        46.2076 
  85   0.0000       1.750602        47.6363 
  86   0.0000       1.750604        47.6363 
  87   0.0000       1.864887        50.7462 
  88   0.0000       1.864887        50.7462 
  89   0.0000       1.891309        51.4651 
  90   0.0000       1.983925        53.9853 
  91   0.0000       1.983925        53.9853 
  92   0.0000       2.077702        56.5371 
  93   0.0000       2.077712        56.5374 
  94   0.0000       2.099810        57.1387 
  95   0.0000       2.108711        57.3810 
  96   0.0000       2.108711        57.3810 
  97   0.0000       2.133061        58.0435 
  98   0.0000       2.133101        58.0446 
  99   0.0000       2.175885        59.2088 
 100   0.0000       2.175885        59.2089 
 101   0.0000       2.244671        61.0806 
 102   0.0000       2.244671        61.0806 
 103   0.0000       2.291261        62.3484 
 104   0.0000       2.663590        72.4800 
 105   0.0000       2.851304        77.5879 
 106   0.0000       2.851314        77.5882 
 107   0.0000       2.934453        79.8505 
 108   0.0000       2.934453        79.8505 
 109   0.0000       3.071883        83.5902 
 110   0.0000       4.053727       110.3075 
 111   0.0000       4.330294       117.8333 
 112   0.0000       4.401081       119.7595 
 113   0.0000       4.401081       119.7595 
 114   0.0000       4.884932       132.9258 
 115   0.0000       5.018659       136.5647 
 116   0.0000       5.018659       136.5647 
 117   0.0000       5.053779       137.5203 
 118   0.0000       5.053811       137.5212 
 119   0.0000       5.179299       140.9359 
 120   0.0000       5.179299       140.9359 
 121   0.0000       5.447552       148.2354 
 122   0.0000       7.458668       202.9607 
 123   0.0000       7.458977       202.9691 
 124   0.0000       7.462174       203.0561 
 125   0.0000       7.462174       203.0561 
 126   0.0000       7.466465       203.1728 
 127   0.0000       7.466517       203.1742 
 128   0.0000       7.477551       203.4745 
 129   0.0000       7.477551       203.4745 
 130   0.0000       7.507990       204.3028 
 131   0.0000      10.317784       280.7612 
 132   0.0000      10.317803       280.7617 
 133   0.0000      10.392251       282.7875 
 134   0.0000      10.392251       282.7875 
 135   0.0000      10.521593       286.3071 
 136   0.0000      16.044029       436.5802 
 137   0.0000      16.044029       436.5802 
 138   0.0000      16.062881       437.0932 
 139   0.0000      16.062881       437.0932 
 140   0.0000      16.129356       438.9021 
 141   0.0000      16.129356       438.9021 
 142   0.0000      16.234590       441.7657 
 143   0.0000      19.805158       538.9258 
 144   0.0000      19.805217       538.9273 
 145   0.0000      19.807769       538.9968 
 146   0.0000      19.807769       538.9968 
 147   0.0000      19.810432       539.0693 
 148   0.0000      19.810701       539.0766 
 149   0.0000      19.817219       539.2539 
 150   0.0000      19.817219       539.2539 
 151   0.0000      19.829999       539.6017 

                 SPIN DOWN ORBITALS
  NO   OCC          E(Eh)            E(eV) 
   0   1.0000    -483.494971    -13156.5670 
   1   1.0000    -347.860518     -9465.7659 
   2   1.0000     -62.799908     -1708.8724 
   3   1.0000     -56.485484     -1537.0482 
   4   1.0000     -56.484519     -1537.0219 
   5   1.0000     -56.484519     -1537.0219 
   6   1.0000     -42.516764     -1156.9400 
   7   1.0000     -37.387096     -1017.3546 
   8   1.0000     -37.387096     -1017.3546 
   9   1.0000     -37.384655     -1017.2882 
  10   1.0000      -8.877918      -241.5804 
  11   1.0000      -6.658814      -181.1956 
  12   1.0000      -6.653991      -181.0643 
  13   1.0000      -6.653991      -181.0643 
  14   1.0000      -5.037155      -137.0680 
  15   1.0000      -3.396204       -92.4154 
  16   1.0000      -3.396204       -92.4154 
  17   1.0000      -3.393458       -92.3407 
  18   1.0000      -2.741410       -74.5976 
  19   1.0000      -2.739904       -74.5566 
  20   1.0000      -2.739904       -74.5566 
  21   1.0000      -2.735993       -74.4502 
  22   1.0000      -2.735960       -74.4493 
  23   1.0000      -0.865436       -23.5497 
  24   1.0000      -0.650406       -17.6984 
  25   1.0000      -0.650397       -17.6982 
  26   1.0000      -0.650128       -17.6909 
  27   1.0000      -0.650128       -17.6909 
  28   1.0000      -0.648037       -17.6340 
  29   1.0000      -0.435691       -11.8557 
  30   1.0000      -0.384765       -10.4700 
  31   1.0000      -0.384765       -10.4700 
  32   0.0000      -0.149118        -4.0577 
  33   0.0000      -0.093681        -2.5492 
  34   0.0000      -0.056050        -1.5252 
  35   0.0000      -0.055112        -1.4997 
  36   0.0000      -0.002575        -0.0701 
  37   0.0000       0.011187         0.3044 
  38   0.0000       0.012410         0.3377 
  39   0.0000       0.024722         0.6727 
  40   0.0000       0.064134         1.7452 
  41   0.0000       0.083012         2.2589 
  42   0.0000       0.083152         2.2627 
  43   0.0000       0.124272         3.3816 
  44   0.0000       0.147469         4.0128 
  45   0.0000       0.157455         4.2846 
  46   0.0000       0.157456         4.2846 
  47   0.0000       0.174126         4.7382 
  48   0.0000       0.174306         4.7431 
  49   0.0000       0.223243         6.0748 
  50   0.0000       0.223361         6.0780 
  51   0.0000       0.229193         6.2366 
  52   0.0000       0.265487         7.2243 
  53   0.0000       0.265489         7.2243 
  54   0.0000       0.313135         8.5208 
  55   0.0000       0.348081         9.4718 
  56   0.0000       0.348107         9.4725 
  57   0.0000       0.384402        10.4601 
  58   0.0000       0.495932        13.4950 
  59   0.0000       0.495991        13.4966 
  60   0.0000       0.545854        14.8534 
  61   0.0000       0.644526        17.5384 
  62   0.0000       0.654745        17.8165 
  63   0.0000       0.654755        17.8168 
  64   0.0000       0.687080        18.6964 
  65   0.0000       0.687083        18.6965 
  66   0.0000       0.749401        20.3922 
  67   0.0000       0.779434        21.2095 
  68   0.0000       0.779438        21.2096 
  69   0.0000       0.857090        23.3226 
  70   0.0000       0.867212        23.5980 
  71   0.0000       0.867212        23.5980 
  72   0.0000       0.875596        23.8262 
  73   0.0000       0.875599        23.8263 
  74   0.0000       0.894687        24.3457 
  75   0.0000       0.894697        24.3459 
  76   0.0000       1.001105        27.2415 
  77   0.0000       1.001148        27.2426 
  78   0.0000       1.022715        27.8295 
  79   0.0000       1.087752        29.5992 
  80   0.0000       1.087756        29.5993 
  81   0.0000       1.219953        33.1966 
  82   0.0000       1.391037        37.8520 
  83   0.0000       1.705175        46.4002 
  84   0.0000       1.705175        46.4002 
  85   0.0000       1.758392        47.8483 
  86   0.0000       1.758393        47.8483 
  87   0.0000       1.869040        50.8592 
  88   0.0000       1.869045        50.8593 
  89   0.0000       1.897929        51.6453 
  90   0.0000       1.987837        54.0918 
  91   0.0000       1.987849        54.0921 
  92   0.0000       2.079358        56.5822 
  93   0.0000       2.079359        56.5822 
  94   0.0000       2.108128        57.3651 
  95   0.0000       2.110485        57.4292 
  96   0.0000       2.110485        57.4292 
  97   0.0000       2.138193        58.1832 
  98   0.0000       2.138236        58.1843 
  99   0.0000       2.182316        59.3838 
 100   0.0000       2.182316        59.3838 
 101   0.0000       2.250599        61.2419 
 102   0.0000       2.250600        61.2420 
 103   0.0000       2.301971        62.6398 
 104   0.0000       2.667617        72.5896 
 105   0.0000       2.852082        77.6091 
 106   0.0000       2.852090        77.6093 
 107   0.0000       2.936643        79.9101 
 108   0.0000       2.936644        79.9101 
 109   0.0000       3.076104        83.7050 
 110   0.0000       4.049919       110.2039 
 111   0.0000       4.328481       117.7840 
 112   0.0000       4.400635       119.7474 
 113   0.0000       4.400644       119.7476 
 114   0.0000       4.881390       132.8294 
 115   0.0000       5.018540       136.5614 
 116   0.0000       5.018540       136.5614 
 117   0.0000       5.054073       137.5283 
 118   0.0000       5.054106       137.5292 
 119   0.0000       5.180153       140.9591 
 120   0.0000       5.180153       140.9591 
 121   0.0000       5.448981       148.2743 
 122   0.0000       7.460214       203.0027 
 123   0.0000       7.460521       203.0111 
 124   0.0000       7.464111       203.1088 
 125   0.0000       7.464111       203.1088 
 126   0.0000       7.468848       203.2377 
 127   0.0000       7.468900       203.2391 
 128   0.0000       7.480018       203.5416 
 129   0.0000       7.480018       203.5416 
 130   0.0000       7.510187       204.3626 
 131   0.0000      10.317246       280.7465 
 132   0.0000      10.317267       280.7471 
 133   0.0000      10.390890       282.7505 
 134   0.0000      10.390890       282.7505 
 135   0.0000      10.521397       286.3018 
 136   0.0000      16.046777       436.6550 
 137   0.0000      16.046777       436.6550 
 138   0.0000      16.064274       437.1311 
 139   0.0000      16.064275       437.1311 
 140   0.0000      16.130788       438.9410 
 141   0.0000      16.130788       438.9410 
 142   0.0000      16.236105       441.8069 
 143   0.0000      19.806642       538.9661 
 144   0.0000      19.806701       538.9677 
 145   0.0000      19.808391       539.0137 
 146   0.0000      19.808391       539.0137 
 147   0.0000      19.810805       539.0794 
 148   0.0000      19.811073       539.0867 
 149   0.0000      19.817515       539.2620 
 150   0.0000      19.817515       539.2620 
 151   0.0000      19.830247       539.6084 

                    ********************************
                    * MULLIKEN POPULATION ANALYSIS *
                    ********************************

--------------------------------------------
MULLIKEN ATOMIC CHARGES AND SPIN POPULATIONS
--------------------------------------------
   0 Zn:    0.409504    0.811163
   1 Br:   -0.409504    0.188837
Sum of atomic charges         :   -0.0000000
Sum of atomic spin populations:    1.0000000

-----------------------------------------------------
MULLIKEN REDUCED ORBITAL CHARGES AND SPIN POPULATIONS
-----------------------------------------------------
CHARGE
  0 Zns       :     7.200622  s :     7.200622
      pz      :     4.289612  p :    12.383627
      px      :     4.047008
      py      :     4.047006
      dz2     :     1.997068  d :    10.003012
      dxz     :     2.003115
      dyz     :     2.003115
      dx2y2   :     1.999857
      dxy     :     1.999857
      f0      :     0.001389  f :     0.003224
      f+1     :     0.000916
      f-1     :     0.000916
      f+2     :     0.000002
      f-2     :     0.000002
      f+3     :     0.000000
      f-3     :     0.000000
      g0      :     0.000005  g :     0.000010
      g+1     :     0.000003
      g-1     :     0.000003
      g+2     :     0.000000
      g-2     :     0.000000
      g+3     :     0.000000
      g-3     :     0.000000
      g+4     :     0.000000
      g-4     :     0.000000
  1 Brs       :     7.980094  s :     7.980094
      pz      :     5.518220  p :    17.402806
      px      :     5.942292
      py      :     5.942294
      dz2     :     2.011918  d :    10.023557
      dxz     :     2.005727
      dyz     :     2.005727
      dx2y2   :     2.000093
      dxy     :     2.000093
      f0      :     0.001072  f :     0.003047
      f+1     :     0.000940
      f-1     :     0.000940
      f+2     :     0.000048
      f-2     :     0.000048
      f+3     :     0.000000
      f-3     :     0.000000

SPIN
  0 Zns       :     0.622516  s :     0.622516
      pz      :     0.190507  p :     0.180851
      px      :    -0.004829
      py      :    -0.004827
      dz2     :     0.006269  d :     0.007528
      dxz     :     0.000700
      dyz     :     0.000700
      dx2y2   :    -0.000071
      dxy     :    -0.000071
      f0      :     0.000235  f :     0.000267
      f+1     :     0.000016
      f-1     :     0.000016
      f+2     :    -0.000000
      f-2     :    -0.000000
      f+3     :     0.000000
      f-3     :     0.000000
      g0      :     0.000001  g :     0.000001
      g+1     :    -0.000000
      g-1     :    -0.000000
      g+2     :    -0.000000
      g-2     :    -0.000000
      g+3     :     0.000000
      g-3     :     0.000000
      g+4     :     0.000000
      g-4     :    -0.000000
  1 Brs       :    -0.002874  s :    -0.002874
      pz      :     0.182945  p :     0.190524
      px      :     0.003791
      py      :     0.003789
      dz2     :     0.000444  d :     0.001047
      dxz     :     0.000249
      dyz     :     0.000249
      dx2y2   :     0.000052
      dxy     :     0.000052
      f0      :    -0.000043  f :     0.000140
      f+1     :     0.000073
      f-1     :     0.000073
      f+2     :     0.000019
      f-2     :     0.000019
      f+3     :    -0.000000
      f-3     :    -0.000000


                     *******************************
                     * LOEWDIN POPULATION ANALYSIS *
                     *******************************

-------------------------------------------
LOEWDIN ATOMIC CHARGES AND SPIN POPULATIONS
-------------------------------------------
   0 Zn:    0.154155    0.756304
   1 Br:   -0.154155    0.243696

----------------------------------------------------
LOEWDIN REDUCED ORBITAL CHARGES AND SPIN POPULATIONS
----------------------------------------------------
CHARGE
  0 Zns       :     6.896678  s :     6.896678
      pz      :     4.501806  p :    12.675945
      px      :     4.087070
      py      :     4.087069
      dz2     :     2.119458  d :    10.257590
      dxz     :     2.069987
      dyz     :     2.069987
      dx2y2   :     1.999079
      dxy     :     1.999079
      f0      :     0.008334  f :     0.015585
      f+1     :     0.003624
      f-1     :     0.003624
      f+2     :     0.000001
      f-2     :     0.000001
      f+3     :     0.000000
      f-3     :     0.000000
      g0      :     0.000025  g :     0.000046
      g+1     :     0.000010
      g-1     :     0.000010
      g+2     :     0.000000
      g-2     :     0.000000
      g+3     :     0.000000
      g-3     :     0.000000
      g+4     :     0.000000
      g-4     :     0.000000
  1 Brs       :     7.730203  s :     7.730203
      pz      :     5.604071  p :    17.248449
      px      :     5.822189
      py      :     5.822190
      dz2     :     2.109334  d :    10.127124
      dxz     :     2.008505
      dyz     :     2.008505
      dx2y2   :     2.000390
      dxy     :     2.000390
      f0      :     0.030089  f :     0.048379
      f+1     :     0.008615
      f-1     :     0.008615
      f+2     :     0.000530
      f-2     :     0.000530
      f+3     :     0.000000
      f-3     :     0.000000

SPIN
  0 Zns       :     0.459097  s :     0.459097
      pz      :     0.284587  p :     0.276966
      px      :    -0.003811
      py      :    -0.003810
      dz2     :     0.015981  d :     0.018527
      dxz     :     0.001277
      dyz     :     0.001277
      dx2y2   :    -0.000004
      dxy     :    -0.000004
      f0      :     0.001636  f :     0.001709
      f+1     :     0.000036
      f-1     :     0.000036
      f+2     :     0.000001
      f-2     :     0.000001
      f+3     :     0.000000
      f-3     :     0.000000
      g0      :     0.000005  g :     0.000005
      g+1     :    -0.000000
      g-1     :    -0.000000
      g+2     :    -0.000000
      g-2     :    -0.000000
      g+3     :     0.000000
      g-3     :     0.000000
      g+4     :     0.000000
      g-4     :    -0.000000
  1 Brs       :     0.033225  s :     0.033225
      pz      :     0.173450  p :     0.178728
      px      :     0.002640
      py      :     0.002639
      dz2     :     0.030411  d :     0.030275
      dxz     :    -0.000073
      dyz     :    -0.000073
      dx2y2   :     0.000005
      dxy     :     0.000005
      f0      :     0.001607  f :     0.001468
      f+1     :    -0.000068
      f-1     :    -0.000068
      f+2     :    -0.000002
      f-2     :    -0.000002
      f+3     :    -0.000000
      f-3     :    -0.000000


                      *****************************
                      * MAYER POPULATION ANALYSIS *
                      *****************************

  NA   - Mulliken gross atomic population
  ZA   - Total nuclear charge
  QA   - Mulliken gross atomic charge
  VA   - Mayer's total valence
  BVA  - Mayer's bonded valence
  FA   - Mayer's free valence

  ATOM       NA         ZA         QA         VA         BVA        FA
  0 Zn    29.5905    30.0000     0.4095     1.6261     0.8975     0.7286
  1 Br    35.4095    35.0000    -0.4095     0.9380     0.8975     0.0405

  Mayer bond orders larger than 0.100000
B(  0-Zn,  1-Br) :   0.8975 

-------
TIMINGS
-------

Total SCF time: 0 days 0 hours 6 min 28 sec 

Total time                  ....     388.696 sec
Sum of individual times     ....     388.325 sec  ( 99.9%)

Fock matrix formation       ....     387.826 sec  ( 99.8%)
  XC integration            ....       0.707 sec  (  0.2% of F)
    Basis function eval.    ....       0.119 sec  ( 16.9% of XC)
    Density eval.           ....       0.120 sec  ( 17.0% of XC)
    XC-Functional eval.     ....       0.024 sec  (  3.4% of XC)
    XC-Potential eval.      ....       0.259 sec  ( 36.6% of XC)
Diagonalization             ....       0.093 sec  (  0.0%)
Density matrix formation    ....       0.012 sec  (  0.0%)
Population analysis         ....       0.007 sec  (  0.0%)
Initial guess               ....       0.118 sec  (  0.0%)
Orbital Transformation      ....       0.000 sec  (  0.0%)
Orbital Orthonormalization  ....       0.000 sec  (  0.0%)
DIIS solution               ....       0.035 sec  (  0.0%)
Grid generation             ....       0.234 sec  (  0.1%)

-------------------------   --------------------
FINAL SINGLE POINT ENERGY     -4353.416667200476
-------------------------   --------------------


                            ***************************************
                            *     ORCA property calculations      *
                            ***************************************

                                    ---------------------
                                    Active property flags
                                    ---------------------
   (+) Dipole Moment


------------------------------------------------------------------------------
                       ORCA ELECTRIC PROPERTIES CALCULATION
------------------------------------------------------------------------------

Dipole Moment Calculation                       ... on
Quadrupole Moment Calculation                   ... off
Polarizability Calculation                      ... off
GBWName                                         ... 58_ZnBr.gbw
Electron density file                           ... 58_ZnBr.scfp
The origin for moment calculation is the CENTER OF MASS  = ( 0.000000,  0.000000  2.107663)

-------------
DIPOLE MOMENT
-------------
                                X             Y             Z
Electronic contribution:      0.00000       0.00000       2.28238
Nuclear contribution   :      0.00000       0.00000      -3.26305
                        -----------------------------------------
Total Dipole Moment    :      0.00000       0.00000      -0.98067
                        -----------------------------------------
Magnitude (a.u.)       :      0.98067
Magnitude (Debye)      :      2.49266



--------------------
Rotational spectrum 
--------------------
 
Rotational constants in cm-1:     0.000000     0.088026     0.088026 
Rotational constants in MHz :     0.000000  2638.947188  2638.947188 

 Dipole components along the rotational axes: 
x,y,z [a.u.] :    -0.980670     0.000000     0.000001 
x,y,z [Debye]:    -2.492664     0.000001     0.000002 

 

Timings for individual modules:

Sum of individual times         ...      394.137 sec (=   6.569 min)
GTO integral calculation        ...        4.841 sec (=   0.081 min)   1.2 %
SCF iterations                  ...      389.297 sec (=   6.488 min)  98.8 %
                             ****ORCA TERMINATED NORMALLY****
TOTAL RUN TIME: 0 days 0 hours 6 minutes 34 seconds 742 msec
