
                                 *****************
                                 * O   R   C   A *
                                 *****************

           --- An Ab Initio, DFT and Semiempirical electronic structure package ---

                  #######################################################
                  #                        -***-                        #
                  #          Department of theory and spectroscopy      #
                  #               Directorship: Frank Neese             #
                  #        Max Planck Institute fuer Kohlenforschung    #
                  #                Kaiser Wilhelm Platz 1               #
                  #                 D-45470 Muelheim/Ruhr               #
                  #                      Germany                        #
                  #                                                     #
                  #                  All rights reserved                #
                  #                        -***-                        #
                  #######################################################


                         Program Version 4.2.0 -  RELEASE  -


 With contributions from (in alphabetic order):
   Daniel Aravena         : Magnetic Suceptibility
   Michael Atanasov       : Ab Initio Ligand Field Theory (pilot matlab implementation)
   Alexander A. Auer      : GIAO ZORA, VPT2
   Ute Becker             : Parallelization
   Giovanni Bistoni       : ED, misc. LED, open-shell LED, HFLED
   Martin Brehm           : Molecular dynamics
   Dmytro Bykov           : SCF Hessian
   Vijay G. Chilkuri      : MRCI spin determinant printing, contributions to CSF-ICE
   Dipayan Datta          : RHF DLPNO-CCSD density
   Achintya Kumar Dutta   : EOM-CC, STEOM-CC
   Dmitry Ganyushin       : Spin-Orbit,Spin-Spin,Magnetic field MRCI
   Miquel Garcia          : C-PCM Hessian, Gaussian charge scheme
   Yang Guo               : DLPNO-NEVPT2, CIM, IAO-localization
   Andreas Hansen         : Spin unrestricted coupled pair/coupled cluster methods
   Benjamin Helmich-Paris : CASSCF linear response (MC-RPA)
   Lee Huntington         : MR-EOM, pCC
   Robert Izsak           : Overlap fitted RIJCOSX, COSX-SCS-MP3, EOM
   Christian Kollmar      : KDIIS, OOCD, Brueckner-CCSD(T), CCSD density
   Simone Kossmann        : Meta GGA functionals, TD-DFT gradient, OOMP2, MP2 Hessian
   Martin Krupicka        : AUTO-CI
   Lucas Lang             : DCDCAS
   Dagmar Lenk            : GEPOL surface, SMD
   Dimitrios Liakos       : Extrapolation schemes; Compound Job, initial MDCI parallelization
   Dimitrios Manganas     : Further ROCIS development; embedding schemes
   Dimitrios Pantazis     : SARC Basis sets
   Taras Petrenko         : DFT Hessian,TD-DFT gradient, ASA, ECA, R-Raman, ABS, FL, XAS/XES, NRVS
   Peter Pinski           : DLPNO-MP2, DLPNO-MP2 Gradient
   Christoph Reimann      : Effective Core Potentials
   Marius Retegan         : Local ZFS, SOC
   Christoph Riplinger    : Optimizer, TS searches, QM/MM, DLPNO-CCSD(T), (RO)-DLPNO pert. Triples
   Tobias Risthaus        : Range-separated hybrids, TD-DFT gradient, RPA, STAB
   Michael Roemelt        : Original ROCIS implementation
   Masaaki Saitow         : Open-shell DLPNO-CCSD energy and density
   Barbara Sandhoefer     : DKH picture change effects
   Avijit Sen             : IP-ROCIS
   Kantharuban Sivalingam : CASSCF convergence, NEVPT2, FIC-MRCI
   Bernardo de Souza      : ESD, SOC TD-DFT
   Georgi Stoychev        : AutoAux, RI-MP2 NMR
   Willem Van den Heuvel  : Paramagnetic NMR
   Boris Wezisla          : Elementary symmetry handling
   Frank Wennmohs         : Technical directorship


 We gratefully acknowledge several colleagues who have allowed us to
 interface, adapt or use parts of their codes:
   Stefan Grimme, W. Hujo, H. Kruse,             : VdW corrections, initial TS optimization,
                  C. Bannwarth                     DFT functionals, gCP, sTDA/sTD-DF
   Ed Valeev, F. Pavosevic, A. Kumar             : LibInt (2-el integral package), F12 methods
   Garnet Chan, S. Sharma, J. Yang, R. Olivares  : DMRG
   Ulf Ekstrom                                   : XCFun DFT Library
   Mihaly Kallay                                 : mrcc  (arbitrary order and MRCC methods)
   Andreas Klamt, Michael Diedenhofen            : otool_cosmo (COSMO solvation model)
   Jiri Pittner, Ondrej Demel                    : Mk-CCSD
   Frank Weinhold                                : gennbo (NPA and NBO analysis)
   Christopher J. Cramer and Donald G. Truhlar   : smd solvation model
   Lars Goerigk                                  : TD-DFT with DH, B97 family of functionals
   V. Asgeirsson, H. Jonsson                     : NEB implementation
   FAccTs GmbH                                   : IRC, NEB, NEB-TS, Multilevel, MM, QM/MM, CI optimization
   S Lehtola, MJT Oliveira, MAL Marques          : LibXC Library


 Your calculation uses the libint2 library for the computation of 2-el integrals
 For citations please refer to: http://libint.valeyev.net

 Your ORCA version has been built with support for libXC version: 4.2.3
 For citations please refer to: https://tddft.org/programs/libxc/

 This ORCA versions uses:
   CBLAS   interface :  Fast vector & matrix operations
   LAPACKE interface :  Fast linear algebra routines
   SCALAPACK package :  Parallel linear algebra routines


Your calculation utilizes the DFT-NL dispersion correction.
Cite in your paper:
Vydrov, O. A.; Van Voorhis, T. J. Chem. Phys. 2010, 133, 244103
Hujo, W.; Grimme, S. J. Chem. Theory Comput. 2011, 7, 3866 
   

----- Orbital basis set information -----
Your calculation utilizes the basis: aug-cc-pVTZ 
    H, B-Ne : Obtained from the ccRepo (grant-hill.group.shef.ac.uk/ccrepo) Feb. 2017
              R. A. Kendall, T. H. Dunning, Jr., R. J. Harrison, J. Chem. Phys. 96, 6796 (1992)
         He : Obtained from the ccRepo (grant-hill.group.shef.ac.uk/ccrepo) Feb. 2017
              D. E. Woon, T. H. Dunning, Jr., J. Chem. Phys. 100, 2975 (1994)
  Li-Be, Na : Obtained from the ccRepo (grant-hill.group.shef.ac.uk/ccrepo) Feb. 2017
              B. P. Prascher, D. E. Woon, K. A. Peterson, T. H. Dunning, Jr., A. K. Wilson, Theor. Chem. Acc. 128, 69 (2011)
         Mg : Obtained from the Peterson Research Group Website (tyr0.chem.wsu.edu/~kipeters) Feb. 2017
              B. P. Prascher, D. E. Woon, K. A. Peterson, T. H. Dunning, Jr., A. K. Wilson, Theor. Chem. Acc. 128, 69 (2011)
      Al-Ar : Obtained from the ccRepo (grant-hill.group.shef.ac.uk/ccrepo) Feb. 2017
              D. E. Woon, T. H. Dunning, Jr., J. Chem. Phys. 98, 1358 (1993)
      Sc-Zn : Obtained from the ccRepo (grant-hill.group.shef.ac.uk/ccrepo) Feb. 2017
              N. B. Balabanov, K. A. Peterson, J. Chem. Phys. 123, 064107 (2005)
              N. B. Balabanov, K. A. Peterson, J. Chem. Phys. 125, 074110 (2006)
      Ga-Kr : Obtained from the ccRepo (grant-hill.group.shef.ac.uk/ccrepo) Feb. 2017
              A. K. Wilson, D. E. Woon, K. A. Peterson, T. H. Dunning, Jr., J. Chem. Phys. 110, 7667 (1999)
     Ag, Au : Obtained from the Peterson Research Group Website (tyr0.chem.wsu.edu/~kipeters) Feb. 2017
              K. A. Peterson, C. Puzzarini, Theor. Chem. Acc. 114, 283 (2005)

----- AuxJK basis set information -----
Your calculation utilizes the auxiliary basis: def2/JK
   H-Ba, Hf-Rn: F. Weigend, J. Comput. Chem. 29, 167 (2008).

================================================================================
                                        WARNINGS
                       Please study these warnings very carefully!
================================================================================


WARNING: your system is open-shell and RHF/RKS was chosen
  ===> : WILL SWITCH to UHF/UKS


INFO   : the flag for use of LIBINT has been found!

================================================================================
                                       INPUT FILE
================================================================================
NAME = 61_Sc.in
|  1> #
|  2> # 61_Sc wb97m-v/aug-cc-pvtz
|  3> #
|  4> ! wb97m-v aug-cc-pvtz def2/jk grid4 nofinalgrid
|  5> 
|  6> *xyz 0 2
|  7> Sc 0.0 0.0 0.0
|  8> *
|  9> 
| 10> %pal
| 11> nprocs 24
| 12> end
| 13> 
| 14> 
| 15>                          ****END OF INPUT****
================================================================================

                       ****************************
                       * Single Point Calculation *
                       ****************************

---------------------------------
CARTESIAN COORDINATES (ANGSTROEM)
---------------------------------
  Sc     0.000000    0.000000    0.000000

----------------------------
CARTESIAN COORDINATES (A.U.)
----------------------------
  NO LB      ZA    FRAG     MASS         X           Y           Z
   0 Sc   21.0000    0    44.960    0.000000    0.000000    0.000000

--------------------------------
INTERNAL COORDINATES (ANGSTROEM)
--------------------------------
 Sc     0   0   0     0.000000000000     0.00000000     0.00000000

---------------------------
INTERNAL COORDINATES (A.U.)
---------------------------
 Sc     0   0   0     0.000000000000     0.00000000     0.00000000

---------------------
BASIS SET INFORMATION
---------------------
There are 1 groups of distinct atoms

 Group   1 Type Sc  : 116s77p23d3f2g contracted to 8s7p5d3f2g pattern {19191919191911/151515151511/77711/111/11}

Atom   0Sc   basis set group =>   1
----------------------------------
AUXILIARY/JK BASIS SET INFORMATION
----------------------------------
There are 1 groups of distinct atoms

 Group   1 Type Sc  : 19s14p12d10f7g3h1i contracted to 16s13p11d9f5g3h1i pattern {4111111111111111/2111111111111/21111111111/211111111/31111/111/1}

Atom   0Sc   basis set group =>   1


           ************************************************************
           *        Program running with 24 parallel MPI-processes    *
           *              working on a common directory               *
           ************************************************************
------------------------------------------------------------------------------
                           ORCA GTO INTEGRAL CALCULATION
------------------------------------------------------------------------------

                         BASIS SET STATISTICS AND STARTUP INFO

 # of primitive gaussian shells          ...  221
 # of primitive gaussian functions       ...  501
 # of contracted shells                  ...   25
 # of contracted basis functions         ...   93
 Highest angular momentum                ...    4
 Maximum contraction depth               ...   19
 Integral package used                   ... LIBINT
 Integral threshhold            Thresh   ...  1.000e-10
 Primitive cut-off              TCut     ...  1.000e-11


------------------------------ INTEGRAL EVALUATION ----------------------------


 * One electron integrals 
 Pre-screening matrix                    ... done
 Shell pair data                         ... done (   0.001 sec)



           ************************************************************
           *        Program running with 24 parallel MPI-processes    *
           *              working on a common directory               *
           ************************************************************
-------------------------------------------------------------------------------
                                 ORCA SCF
-------------------------------------------------------------------------------

------------
SCF SETTINGS
------------
Hamiltonian:
 Density Functional     Method          .... DFT(GTOs)
 Exchange Functional    Exchange        .... WB97M-V
 Correlation Functional Correlation     .... WB97M-V
 Gradients option       PostSCFGGA      .... off
 Hybrid DFT is turned on
   Fraction HF Exchange ScalHFX         ....  0.150000
   Scaling of DF-GGA-X  ScalDFX         ....  0.000000
   Scaling of DF-GGA-C  ScalDFC         ....  1.000000
   Scaling of DF-LDA-C  ScalLDAC        ....  1.000000
   Perturbative correction              ....  0.000000
   Density functional embedding theory  .... OFF
 Long-range corrected/Screened/Range-Separated Hybrid DFT is turned on
   Amount of maximum screened exact exchange              ....  0.850000
   Range separation parameter mu (erf(mu*r12)/r12)        ....  0.300000
   NL short-range parameter             ....  6.000000
   NL long-range parameter              ....  0.010000


General Settings:
 Integral files         IntName         .... 61_Sc
 Hartree-Fock type      HFTyp           .... UHF
 Total Charge           Charge          ....    0
 Multiplicity           Mult            ....    2
 Number of Electrons    NEL             ....   21
 Basis Dimension        Dim             ....   93
 Nuclear Repulsion      ENuc            ....      0.0000000000 Eh

Convergence Acceleration:
 DIIS                   CNVDIIS         .... on
   Start iteration      DIISMaxIt       ....    12
   Startup error        DIISStart       ....  0.200000
   # of expansion vecs  DIISMaxEq       ....     5
   Bias factor          DIISBfac        ....   1.050
   Max. coefficient     DIISMaxC        ....  10.000
 Newton-Raphson         CNVNR           .... off
 SOSCF                  CNVSOSCF        .... off
 Level Shifting         CNVShift        .... on
   Level shift para.    LevelShift      ....    0.2500
   Turn off err/grad.   ShiftErr        ....    0.0010
 Zerner damping         CNVZerner       .... off
 Static damping         CNVDamp         .... on
   Fraction old density DampFac         ....    0.7000
   Max. Damping (<1)    DampMax         ....    0.9800
   Min. Damping (>=0)   DampMin         ....    0.0000
   Turn off err/grad.   DampErr         ....    0.1000
 Fernandez-Rico         CNVRico         .... off

SCF Procedure:
 Maximum # iterations   MaxIter         ....   125
 SCF integral mode      SCFMode         .... Direct
   Integral package                     .... LIBINT
 Reset frequency        DirectResetFreq ....    20
 Integral Threshold     Thresh          ....  1.000e-10 Eh
 Primitive CutOff       TCut            ....  1.000e-11 Eh

Convergence Tolerance:
 Convergence Check Mode ConvCheckMode   .... Total+1el-Energy
 Convergence forced     ConvForced      .... 0
 Energy Change          TolE            ....  1.000e-06 Eh
 1-El. energy change                    ....  1.000e-03 Eh
 DIIS Error             TolErr          ....  1.000e-06


Diagonalization of the overlap matrix:
Smallest eigenvalue                        ... 1.458e-04
Time for diagonalization                   ...    0.002 sec
Threshold for overlap eigenvalues          ... 1.000e-08
Number of eigenvalues below threshold      ... 0
Time for construction of square roots      ...    0.001 sec
Total time needed                          ...    0.004 sec

-------------------
DFT GRID GENERATION
-------------------

General Integration Accuracy     IntAcc      ...  4.670
Radial Grid Type                 RadialGrid  ... Gauss-Chebyshev
Angular Grid (max. acc.)         AngularGrid ... Lebedev-302
Angular grid pruning method      GridPruning ... 3 (G Style)
Weight generation scheme         WeightScheme... Becke
Basis function cutoff            BFCut       ...    1.0000e-10
Integration weight cutoff        WCut        ...    1.0000e-14
Grids for H and He will be reduced by one unit

# of grid points (after initial pruning)     ...   9664 (   0.0 sec)
# of grid points (after weights+screening)   ...   9664 (   0.0 sec)
Grid point division into batches done        ...    0.1 sec
Reduced shell lists constructed in    0.1 sec

Total number of grid points                  ...     9664
Total number of batches                      ...      152
Average number of points per batch           ...       63
Average number of grid points per atom       ...     9664
Average number of shells per batch           ...    13.75 (55.00%)
Average number of basis functions per batch  ...    43.50 (46.77%)
Average number of large shells per batch     ...     7.00 (50.91%)
Average number of large basis fcns per batch ...    24.50 (56.32%)
Maximum spatial batch extension              ...  30.28, 24.13, 24.13 au
Average spatial batch extension              ...   1.03,  0.96,  0.93 au

Time for grid setup =    0.120 sec

------------------------------
INITIAL GUESS: MODEL POTENTIAL
------------------------------
Loading Hartree-Fock densities                     ... done
Calculating cut-offs                               ... done
Setting up the integral package                    ... done
Initializing the effective Hamiltonian             ... done
Starting the Coulomb interaction                   ... done (   0.0 sec)
Reading the grid                                   ... done
Mapping shells                                     ... done
Starting the XC term evaluation                    ... done (   0.0 sec)
  promolecular density results
     # of electrons  =     21.000012946
     EX              =    -37.836537873
     EC              =     -0.827465387
     EX+EC           =    -38.664003261
Transforming the Hamiltonian                       ... done (   0.0 sec)
Diagonalizing the Hamiltonian                      ... done (   0.0 sec)
Back transforming the eigenvectors                 ... done (   0.0 sec)
Now organizing SCF variables                       ... done
                      ------------------
                      INITIAL GUESS DONE (   0.2 sec)
                      ------------------
--------------
SCF ITERATIONS
--------------
ITER       Energy         Delta-E        Max-DP      RMS-DP      [F,P]     Damp
               ***  Starting incremental Fock matrix formation  ***
  0   -760.6708788760   0.000000000000 0.03177240  0.00113157  0.0473008 0.7000
  1   -760.6717028134  -0.000823937415 0.02482865  0.00086089  0.0334108 0.7000
                               ***Turning on DIIS***
  2   -760.6723688015  -0.000665988167 0.05888858  0.00204257  0.0234861 0.0000
  3   -760.6741846806  -0.001815879083 0.00737690  0.00013648  0.0037738 0.0000
  4   -760.6743361540  -0.000151473354 0.00638394  0.00013199  0.0025517 0.0000
  5   -760.6744356457  -0.000099491701 0.00393089  0.00006228  0.0021645 0.0000
  6   -760.6744949165  -0.000059270837 0.00396367  0.00005555  0.0017927 0.0000
  7   -760.6745324222  -0.000037505679 0.00404667  0.00004127  0.0014349 0.0000
  8   -760.6745563851  -0.000023962936 0.00424731  0.00004366  0.0010756 0.0000
  9   -760.6745718143  -0.000015429175 0.00654659  0.00006183  0.0007097 0.0000
 10   -760.6745826539  -0.000010839552 0.00163920  0.00001867  0.0001845 0.0000
                 **** Energy Check signals convergence ****

               *****************************************************
               *                     SUCCESS                       *
               *           SCF CONVERGED AFTER  11 CYCLES          *
               *****************************************************


Setting up the DFT-NL grid :

General Integration Accuracy     IntAcc      ...  4.340
Radial Grid Type                 RadialGrid  ... Gauss-Chebyshev
Angular Grid (max. acc.)         AngularGrid ... Lebedev-110
Angular grid pruning method      GridPruning ... 3 (G Style)
Weight generation scheme         WeightScheme... Becke
Basis function cutoff            BFCut       ...    1.0000e-10
Integration weight cutoff        WCut        ...    1.0000e-14
Grids for H and He will be reduced by one unit

# of grid points (after initial pruning)     ...   2972 (   0.0 sec)
# of grid points (after weights+screening)   ...   2972 (   0.0 sec)
Grid point division into batches done        ...    0.0 sec
Reduced shell lists constructed in    0.0 sec

Total number of grid points                  ...     2972
Total number of batches                      ...       47
Average number of points per batch           ...       63
Average number of grid points per atom       ...     2972
Average number of shells per batch           ...    15.33 (61.33%)
Average number of basis functions per batch  ...    51.33 (55.20%)
Average number of large shells per batch     ...    13.33 (86.96%)
Average number of large basis fcns per batch ...    48.00 (93.51%)
Maximum spatial batch extension              ...  20.27, 31.13, 31.13 au
Average spatial batch extension              ...   0.86,  1.32,  1.32 au

Final grid set up in    0.0 sec

-------------------------------------------------------------------------------
                         DFT-NL dispersion correction                          
-------------------------------------------------------------------------------

SC Energy -760.674583232 
NL    Energy 0.088812965 
SC+NL Energy -760.585770267 
NL done in    0.0 sec
-------------------------------------------------------------------------------

----------------
TOTAL SCF ENERGY
----------------

Total Energy       :         -760.58577027 Eh          -20696.59100 eV

Components:
Nuclear Repulsion  :            0.00000000 Eh               0.00000 eV
Electronic Energy  :         -760.58577027 Eh          -20696.59100 eV
One Electron Energy:        -1040.42119076 Eh          -28311.29992 eV
Two Electron Energy:          279.83542050 Eh            7614.70892 eV

Virial components:
Potential Energy   :        -1520.14835441 Eh          -41365.33970 eV
Kinetic Energy     :          759.56258415 Eh           20668.74869 eV
Virial Ratio       :            2.00134707


DFT components:
N(Alpha)           :       10.999996801321 electrons
N(Beta)            :        9.999996436287 electrons
N(Total)           :       20.999993237608 electrons
E(X)               :      -29.479540651604 Eh       
E(C)               :       -0.967880846017 Eh       
NL Energy, E(C,NL) :        0.088812965092 Eh       
E(XC)              :      -30.358608532530 Eh       
DFET-embed. en.    :        0.000000000000 Eh       

---------------
SCF CONVERGENCE
---------------

  Last Energy change         ...   -5.7791e-07  Tolerance :   1.0000e-06
  Last MAX-Density change    ...    7.2822e-04  Tolerance :   1.0000e-05
  Last RMS-Density change    ...    1.0378e-05  Tolerance :   1.0000e-06
  Last DIIS Error            ...    1.8196e-04  Tolerance :   1.0000e-06

             **** THE GBW FILE WAS UPDATED (61_Sc.gbw) ****
             **** DENSITY FILE WAS UPDATED (61_Sc.scfp) ****
             **** ENERGY FILE WAS UPDATED (61_Sc.en.tmp) ****
----------------------
UHF SPIN CONTAMINATION
----------------------

Warning: in a DFT calculation there is little theoretical justification to 
         calculate <S**2> as in Hartree-Fock theory. We will do it anyways
         but you should keep in mind that the values have only limited relevance

Expectation value of <S**2>     :     0.752202
Ideal value S*(S+1) for S=0.5   :     0.750000
Deviation                       :     0.002202

             **** THE GBW FILE WAS UPDATED (61_Sc.gbw) ****
             **** DENSITY FILE WAS UPDATED (61_Sc.scfp) ****
----------------
ORBITAL ENERGIES
----------------
                 SPIN UP ORBITALS
  NO   OCC          E(Eh)            E(eV) 
   0   1.0000    -162.135101     -4411.9204 
   1   1.0000     -17.843870      -485.5564 
   2   1.0000     -14.701300      -400.0427 
   3   1.0000     -14.692920      -399.8147 
   4   1.0000     -14.691908      -399.7871 
   5   1.0000      -2.259078       -61.4726 
   6   1.0000      -1.436671       -39.0938 
   7   1.0000      -1.432491       -38.9800 
   8   1.0000      -1.431637       -38.9568 
   9   1.0000      -0.282782        -7.6949 
  10   1.0000      -0.237000        -6.4491 
  11   0.0000      -0.004086        -0.1112 
  12   0.0000      -0.003166        -0.0861 
  13   0.0000      -0.003049        -0.0830 
  14   0.0000       0.007851         0.2136 
  15   0.0000       0.017027         0.4633 
  16   0.0000       0.019204         0.5226 
  17   0.0000       0.020104         0.5471 
  18   0.0000       0.023905         0.6505 
  19   0.0000       0.026783         0.7288 
  20   0.0000       0.031470         0.8563 
  21   0.0000       0.032650         0.8884 
  22   0.0000       0.033204         0.9035 
  23   0.0000       0.033748         0.9183 
  24   0.0000       0.033884         0.9220 
  25   0.0000       0.034237         0.9316 
  26   0.0000       0.045719         1.2441 
  27   0.0000       0.105644         2.8747 
  28   0.0000       0.120727         3.2852 
  29   0.0000       0.127188         3.4610 
  30   0.0000       0.128210         3.4888 
  31   0.0000       0.128699         3.5021 
  32   0.0000       0.132810         3.6139 
  33   0.0000       0.141058         3.8384 
  34   0.0000       0.142391         3.8746 
  35   0.0000       0.142508         3.8778 
  36   0.0000       0.142564         3.8794 
  37   0.0000       0.142713         3.8834 
  38   0.0000       0.142793         3.8856 
  39   0.0000       0.142851         3.8872 
  40   0.0000       0.142961         3.8902 
  41   0.0000       0.143640         3.9086 
  42   0.0000       0.143700         3.9103 
  43   0.0000       0.389444        10.5973 
  44   0.0000       0.405438        11.0325 
  45   0.0000       0.409741        11.1496 
  46   0.0000       0.410914        11.1815 
  47   0.0000       0.411603        11.2003 
  48   0.0000       0.419137        11.4053 
  49   0.0000       0.429646        11.6913 
  50   0.0000       0.429661        11.6917 
  51   0.0000       0.429697        11.6926 
  52   0.0000       0.429770        11.6946 
  53   0.0000       0.431420        11.7395 
  54   0.0000       0.432017        11.7558 
  55   0.0000       0.432238        11.7618 
  56   0.0000       0.433632        11.7997 
  57   0.0000       0.434002        11.8098 
  58   0.0000       0.499925        13.6037 
  59   0.0000       0.507253        13.8031 
  60   0.0000       0.508091        13.8259 
  61   0.0000       0.568768        15.4770 
  62   0.0000       0.568785        15.4774 
  63   0.0000       0.569737        15.5033 
  64   0.0000       0.570338        15.5197 
  65   0.0000       0.572554        15.5800 
  66   0.0000       0.573385        15.6026 
  67   0.0000       0.573457        15.6045 
  68   0.0000       1.405287        38.2398 
  69   0.0000       1.413299        38.4578 
  70   0.0000       1.420440        38.6521 
  71   0.0000       1.422704        38.7137 
  72   0.0000       1.440445        39.1965 
  73   0.0000       1.698009        46.2052 
  74   0.0000       1.705516        46.4095 
  75   0.0000       1.706686        46.4413 
  76   0.0000       1.808666        49.2163 
  77   0.0000       1.855143        50.4810 
  78   0.0000       1.855205        50.4827 
  79   0.0000       1.856278        50.5119 
  80   0.0000       1.859255        50.5929 
  81   0.0000       1.865643        50.7667 
  82   0.0000       1.868336        50.8400 
  83   0.0000       1.868518        50.8450 
  84   0.0000       1.870676        50.9037 
  85   0.0000       1.871496        50.9260 
  86   0.0000       2.119570        57.6764 
  87   0.0000       2.122641        57.7600 
  88   0.0000       2.123433        57.7816 
  89   0.0000       2.125784        57.8455 
  90   0.0000       2.136684        58.1421 
  91   0.0000       2.138486        58.1912 
  92   0.0000       2.142983        58.3135 

                 SPIN DOWN ORBITALS
  NO   OCC          E(Eh)            E(eV) 
   0   1.0000    -162.135006     -4411.9178 
   1   1.0000     -17.834847      -485.3109 
   2   1.0000     -14.699406      -399.9912 
   3   1.0000     -14.683118      -399.5480 
   4   1.0000     -14.681205      -399.4959 
   5   1.0000      -2.230319       -60.6901 
   6   1.0000      -1.426997       -38.8306 
   7   1.0000      -1.389213       -37.8024 
   8   1.0000      -1.384654       -37.6784 
   9   1.0000      -0.230273        -6.2660 
  10   0.0000      -0.002218        -0.0604 
  11   0.0000      -0.001014        -0.0276 
  12   0.0000      -0.000897        -0.0244 
  13   0.0000       0.009457         0.2573 
  14   0.0000       0.023225         0.6320 
  15   0.0000       0.024152         0.6572 
  16   0.0000       0.024487         0.6663 
  17   0.0000       0.025770         0.7012 
  18   0.0000       0.025977         0.7069 
  19   0.0000       0.034402         0.9361 
  20   0.0000       0.036229         0.9858 
  21   0.0000       0.036445         0.9917 
  22   0.0000       0.038220         1.0400 
  23   0.0000       0.041097         1.1183 
  24   0.0000       0.042459         1.1554 
  25   0.0000       0.054244         1.4760 
  26   0.0000       0.058696         1.5972 
  27   0.0000       0.108440         2.9508 
  28   0.0000       0.130808         3.5595 
  29   0.0000       0.131699         3.5837 
  30   0.0000       0.132108         3.5948 
  31   0.0000       0.136063         3.7025 
  32   0.0000       0.138901         3.7797 
  33   0.0000       0.142342         3.8733 
  34   0.0000       0.143054         3.8927 
  35   0.0000       0.143079         3.8934 
  36   0.0000       0.143321         3.9000 
  37   0.0000       0.143512         3.9051 
  38   0.0000       0.143536         3.9058 
  39   0.0000       0.143674         3.9096 
  40   0.0000       0.144146         3.9224 
  41   0.0000       0.145155         3.9499 
  42   0.0000       0.145427         3.9573 
  43   0.0000       0.387685        10.5495 
  44   0.0000       0.411033        11.1848 
  45   0.0000       0.412822        11.2335 
  46   0.0000       0.413640        11.2557 
  47   0.0000       0.420158        11.4331 
  48   0.0000       0.423835        11.5331 
  49   0.0000       0.425394        11.5756 
  50   0.0000       0.425399        11.5757 
  51   0.0000       0.425415        11.5761 
  52   0.0000       0.425455        11.5772 
  53   0.0000       0.425804        11.5867 
  54   0.0000       0.425892        11.5891 
  55   0.0000       0.425912        11.5897 
  56   0.0000       0.426136        11.5957 
  57   0.0000       0.426495        11.6055 
  58   0.0000       0.493430        13.4269 
  59   0.0000       0.505343        13.7511 
  60   0.0000       0.506877        13.7928 
  61   0.0000       0.563263        15.3272 
  62   0.0000       0.564123        15.3506 
  63   0.0000       0.564891        15.3715 
  64   0.0000       0.566742        15.4218 
  65   0.0000       0.566975        15.4282 
  66   0.0000       0.572008        15.5651 
  67   0.0000       0.572473        15.5778 
  68   0.0000       1.417116        38.5617 
  69   0.0000       1.421510        38.6813 
  70   0.0000       1.423385        38.7323 
  71   0.0000       1.438628        39.1471 
  72   0.0000       1.447840        39.3977 
  73   0.0000       1.698870        46.2286 
  74   0.0000       1.723629        46.9023 
  75   0.0000       1.726618        46.9837 
  76   0.0000       1.826006        49.6882 
  77   0.0000       1.844957        50.2038 
  78   0.0000       1.845627        50.2221 
  79   0.0000       1.846573        50.2478 
  80   0.0000       1.847990        50.2864 
  81   0.0000       1.853770        50.4436 
  82   0.0000       1.858141        50.5626 
  83   0.0000       1.858848        50.5818 
  84   0.0000       1.868090        50.8333 
  85   0.0000       1.872878        50.9636 
  86   0.0000       2.137952        58.1766 
  87   0.0000       2.139609        58.2217 
  88   0.0000       2.140960        58.2585 
  89   0.0000       2.144833        58.3639 
  90   0.0000       2.157368        58.7050 
  91   0.0000       2.172637        59.1204 
  92   0.0000       2.173613        59.1470 

                    ********************************
                    * MULLIKEN POPULATION ANALYSIS *
                    ********************************

--------------------------------------------
MULLIKEN ATOMIC CHARGES AND SPIN POPULATIONS
--------------------------------------------
   0 Sc:    0.000000    1.000000
Sum of atomic charges         :    0.0000000
Sum of atomic spin populations:    1.0000000

-----------------------------------------------------
MULLIKEN REDUCED ORBITAL CHARGES AND SPIN POPULATIONS
-----------------------------------------------------
CHARGE
  0 Scs       :     7.995796  s :     7.995796
      pz      :     3.999950  p :    11.999759
      px      :     3.999908
      py      :     3.999901
      dz2     :     0.005429  d :     1.004189
      dxz     :     0.020316
      dyz     :     0.028921
      dx2y2   :     0.949434
      dxy     :     0.000089
      f0      :     0.000043  f :     0.000241
      f+1     :     0.000029
      f-1     :     0.000034
      f+2     :     0.000010
      f-2     :     0.000007
      f+3     :     0.000058
      f-3     :     0.000060
      g0      :     0.000001  g :     0.000015
      g+1     :     0.000000
      g-1     :     0.000000
      g+2     :     0.000000
      g-2     :     0.000000
      g+3     :     0.000001
      g-3     :     0.000001
      g+4     :     0.000012
      g-4     :     0.000000

SPIN
  0 Scs       :     0.003254  s :     0.003254
      pz      :     0.000029  p :    -0.000017
      px      :    -0.000029
      py      :    -0.000017
      dz2     :    -0.000950  d :     0.996735
      dxz     :     0.019863
      dyz     :     0.028348
      dx2y2   :     0.949398
      dxy     :     0.000076
      f0      :    -0.000032  f :     0.000017
      f+1     :    -0.000025
      f-1     :    -0.000030
      f+2     :    -0.000002
      f-2     :     0.000003
      f+3     :     0.000055
      f-3     :     0.000048
      g0      :     0.000000  g :     0.000010
      g+1     :     0.000000
      g-1     :     0.000000
      g+2     :     0.000000
      g-2     :     0.000000
      g+3     :     0.000000
      g-3     :     0.000001
      g+4     :     0.000008
      g-4     :     0.000000


                     *******************************
                     * LOEWDIN POPULATION ANALYSIS *
                     *******************************

-------------------------------------------
LOEWDIN ATOMIC CHARGES AND SPIN POPULATIONS
-------------------------------------------
   0 Sc:    0.000000    1.000000

----------------------------------------------------
LOEWDIN REDUCED ORBITAL CHARGES AND SPIN POPULATIONS
----------------------------------------------------
CHARGE
  0 Scs       :     7.995796  s :     7.995796
      pz      :     3.999950  p :    11.999759
      px      :     3.999908
      py      :     3.999901
      dz2     :     0.005429  d :     1.004189
      dxz     :     0.020316
      dyz     :     0.028921
      dx2y2   :     0.949434
      dxy     :     0.000089
      f0      :     0.000043  f :     0.000241
      f+1     :     0.000029
      f-1     :     0.000034
      f+2     :     0.000010
      f-2     :     0.000007
      f+3     :     0.000058
      f-3     :     0.000060
      g0      :     0.000001  g :     0.000015
      g+1     :     0.000000
      g-1     :     0.000000
      g+2     :     0.000000
      g-2     :     0.000000
      g+3     :     0.000001
      g-3     :     0.000001
      g+4     :     0.000012
      g-4     :     0.000000

SPIN
  0 Scs       :     0.003254  s :     0.003254
      pz      :     0.000029  p :    -0.000017
      px      :    -0.000029
      py      :    -0.000017
      dz2     :    -0.000950  d :     0.996735
      dxz     :     0.019863
      dyz     :     0.028348
      dx2y2   :     0.949398
      dxy     :     0.000076
      f0      :    -0.000032  f :     0.000017
      f+1     :    -0.000025
      f-1     :    -0.000030
      f+2     :    -0.000002
      f-2     :     0.000003
      f+3     :     0.000055
      f-3     :     0.000048
      g0      :     0.000000  g :     0.000010
      g+1     :     0.000000
      g-1     :     0.000000
      g+2     :     0.000000
      g-2     :     0.000000
      g+3     :     0.000000
      g-3     :     0.000001
      g+4     :     0.000008
      g-4     :     0.000000


                      *****************************
                      * MAYER POPULATION ANALYSIS *
                      *****************************

  NA   - Mulliken gross atomic population
  ZA   - Total nuclear charge
  QA   - Mulliken gross atomic charge
  VA   - Mayer's total valence
  BVA  - Mayer's bonded valence
  FA   - Mayer's free valence

  ATOM       NA         ZA         QA         VA         BVA        FA
  0 Sc    21.0000    21.0000     0.0000     1.0044     0.0000     1.0044

  Mayer bond orders larger than 0.100000


-------
TIMINGS
-------

Total SCF time: 0 days 0 hours 1 min 51 sec 

Total time                  ....     111.308 sec
Sum of individual times     ....     111.012 sec  ( 99.7%)

Fock matrix formation       ....     110.746 sec  ( 99.5%)
  XC integration            ....       0.211 sec  (  0.2% of F)
    Basis function eval.    ....       0.031 sec  ( 14.6% of XC)
    Density eval.           ....       0.029 sec  ( 13.7% of XC)
    XC-Functional eval.     ....       0.009 sec  (  4.3% of XC)
    XC-Potential eval.      ....       0.064 sec  ( 30.5% of XC)
Diagonalization             ....       0.028 sec  (  0.0%)
Density matrix formation    ....       0.006 sec  (  0.0%)
Population analysis         ....       0.004 sec  (  0.0%)
Initial guess               ....       0.086 sec  (  0.1%)
Orbital Transformation      ....       0.000 sec  (  0.0%)
Orbital Orthonormalization  ....       0.000 sec  (  0.0%)
DIIS solution               ....       0.011 sec  (  0.0%)
Grid generation             ....       0.131 sec  (  0.1%)

-------------------------   --------------------
FINAL SINGLE POINT ENERGY      -760.585770266683
-------------------------   --------------------


                            ***************************************
                            *     ORCA property calculations      *
                            ***************************************

                                    ---------------------
                                    Active property flags
                                    ---------------------
   (+) Dipole Moment


------------------------------------------------------------------------------
                       ORCA ELECTRIC PROPERTIES CALCULATION
------------------------------------------------------------------------------

Dipole Moment Calculation                       ... on
Quadrupole Moment Calculation                   ... off
Polarizability Calculation                      ... off
GBWName                                         ... 61_Sc.gbw
Electron density file                           ... 61_Sc.scfp
The origin for moment calculation is the CENTER OF MASS  = ( 0.000000,  0.000000  0.000000)

-------------
DIPOLE MOMENT
-------------
                                X             Y             Z
Electronic contribution:     -0.00000      -0.00000       0.00000
Nuclear contribution   :      0.00000       0.00000       0.00000
                        -----------------------------------------
Total Dipole Moment    :     -0.00000      -0.00000       0.00000
                        -----------------------------------------
Magnitude (a.u.)       :      0.00000
Magnitude (Debye)      :      0.00000



--------------------
Rotational spectrum 
--------------------
 
Rotational constants in cm-1:     0.000000     0.000000     0.000000 
Rotational constants in MHz :     0.000000     0.000000     0.000000 

 Dipole components along the rotational axes: 
x,y,z [a.u.] :    -0.000000    -0.000000     0.000000 
x,y,z [Debye]:    -0.000000    -0.000000     0.000000 

 

Timings for individual modules:

Sum of individual times         ...      114.624 sec (=   1.910 min)
GTO integral calculation        ...        2.797 sec (=   0.047 min)   2.4 %
SCF iterations                  ...      111.827 sec (=   1.864 min)  97.6 %
                             ****ORCA TERMINATED NORMALLY****
TOTAL RUN TIME: 0 days 0 hours 1 minutes 55 seconds 232 msec
