
                                 *****************
                                 * O   R   C   A *
                                 *****************

           --- An Ab Initio, DFT and Semiempirical electronic structure package ---

                  #######################################################
                  #                        -***-                        #
                  #          Department of theory and spectroscopy      #
                  #               Directorship: Frank Neese             #
                  #        Max Planck Institute fuer Kohlenforschung    #
                  #                Kaiser Wilhelm Platz 1               #
                  #                 D-45470 Muelheim/Ruhr               #
                  #                      Germany                        #
                  #                                                     #
                  #                  All rights reserved                #
                  #                        -***-                        #
                  #######################################################


                         Program Version 4.2.0 -  RELEASE  -


 With contributions from (in alphabetic order):
   Daniel Aravena         : Magnetic Suceptibility
   Michael Atanasov       : Ab Initio Ligand Field Theory (pilot matlab implementation)
   Alexander A. Auer      : GIAO ZORA, VPT2
   Ute Becker             : Parallelization
   Giovanni Bistoni       : ED, misc. LED, open-shell LED, HFLED
   Martin Brehm           : Molecular dynamics
   Dmytro Bykov           : SCF Hessian
   Vijay G. Chilkuri      : MRCI spin determinant printing, contributions to CSF-ICE
   Dipayan Datta          : RHF DLPNO-CCSD density
   Achintya Kumar Dutta   : EOM-CC, STEOM-CC
   Dmitry Ganyushin       : Spin-Orbit,Spin-Spin,Magnetic field MRCI
   Miquel Garcia          : C-PCM Hessian, Gaussian charge scheme
   Yang Guo               : DLPNO-NEVPT2, CIM, IAO-localization
   Andreas Hansen         : Spin unrestricted coupled pair/coupled cluster methods
   Benjamin Helmich-Paris : CASSCF linear response (MC-RPA)
   Lee Huntington         : MR-EOM, pCC
   Robert Izsak           : Overlap fitted RIJCOSX, COSX-SCS-MP3, EOM
   Christian Kollmar      : KDIIS, OOCD, Brueckner-CCSD(T), CCSD density
   Simone Kossmann        : Meta GGA functionals, TD-DFT gradient, OOMP2, MP2 Hessian
   Martin Krupicka        : AUTO-CI
   Lucas Lang             : DCDCAS
   Dagmar Lenk            : GEPOL surface, SMD
   Dimitrios Liakos       : Extrapolation schemes; Compound Job, initial MDCI parallelization
   Dimitrios Manganas     : Further ROCIS development; embedding schemes
   Dimitrios Pantazis     : SARC Basis sets
   Taras Petrenko         : DFT Hessian,TD-DFT gradient, ASA, ECA, R-Raman, ABS, FL, XAS/XES, NRVS
   Peter Pinski           : DLPNO-MP2, DLPNO-MP2 Gradient
   Christoph Reimann      : Effective Core Potentials
   Marius Retegan         : Local ZFS, SOC
   Christoph Riplinger    : Optimizer, TS searches, QM/MM, DLPNO-CCSD(T), (RO)-DLPNO pert. Triples
   Tobias Risthaus        : Range-separated hybrids, TD-DFT gradient, RPA, STAB
   Michael Roemelt        : Original ROCIS implementation
   Masaaki Saitow         : Open-shell DLPNO-CCSD energy and density
   Barbara Sandhoefer     : DKH picture change effects
   Avijit Sen             : IP-ROCIS
   Kantharuban Sivalingam : CASSCF convergence, NEVPT2, FIC-MRCI
   Bernardo de Souza      : ESD, SOC TD-DFT
   Georgi Stoychev        : AutoAux, RI-MP2 NMR
   Willem Van den Heuvel  : Paramagnetic NMR
   Boris Wezisla          : Elementary symmetry handling
   Frank Wennmohs         : Technical directorship


 We gratefully acknowledge several colleagues who have allowed us to
 interface, adapt or use parts of their codes:
   Stefan Grimme, W. Hujo, H. Kruse,             : VdW corrections, initial TS optimization,
                  C. Bannwarth                     DFT functionals, gCP, sTDA/sTD-DF
   Ed Valeev, F. Pavosevic, A. Kumar             : LibInt (2-el integral package), F12 methods
   Garnet Chan, S. Sharma, J. Yang, R. Olivares  : DMRG
   Ulf Ekstrom                                   : XCFun DFT Library
   Mihaly Kallay                                 : mrcc  (arbitrary order and MRCC methods)
   Andreas Klamt, Michael Diedenhofen            : otool_cosmo (COSMO solvation model)
   Jiri Pittner, Ondrej Demel                    : Mk-CCSD
   Frank Weinhold                                : gennbo (NPA and NBO analysis)
   Christopher J. Cramer and Donald G. Truhlar   : smd solvation model
   Lars Goerigk                                  : TD-DFT with DH, B97 family of functionals
   V. Asgeirsson, H. Jonsson                     : NEB implementation
   FAccTs GmbH                                   : IRC, NEB, NEB-TS, Multilevel, MM, QM/MM, CI optimization
   S Lehtola, MJT Oliveira, MAL Marques          : LibXC Library


 Your calculation uses the libint2 library for the computation of 2-el integrals
 For citations please refer to: http://libint.valeyev.net

 Your ORCA version has been built with support for libXC version: 4.2.3
 For citations please refer to: https://tddft.org/programs/libxc/

 This ORCA versions uses:
   CBLAS   interface :  Fast vector & matrix operations
   LAPACKE interface :  Fast linear algebra routines
   SCALAPACK package :  Parallel linear algebra routines


Your calculation utilizes the DFT-NL dispersion correction.
Cite in your paper:
Vydrov, O. A.; Van Voorhis, T. J. Chem. Phys. 2010, 133, 244103
Hujo, W.; Grimme, S. J. Chem. Theory Comput. 2011, 7, 3866 
   

----- Orbital basis set information -----
Your calculation utilizes the basis: aug-cc-pVTZ 
    H, B-Ne : Obtained from the ccRepo (grant-hill.group.shef.ac.uk/ccrepo) Feb. 2017
              R. A. Kendall, T. H. Dunning, Jr., R. J. Harrison, J. Chem. Phys. 96, 6796 (1992)
         He : Obtained from the ccRepo (grant-hill.group.shef.ac.uk/ccrepo) Feb. 2017
              D. E. Woon, T. H. Dunning, Jr., J. Chem. Phys. 100, 2975 (1994)
  Li-Be, Na : Obtained from the ccRepo (grant-hill.group.shef.ac.uk/ccrepo) Feb. 2017
              B. P. Prascher, D. E. Woon, K. A. Peterson, T. H. Dunning, Jr., A. K. Wilson, Theor. Chem. Acc. 128, 69 (2011)
         Mg : Obtained from the Peterson Research Group Website (tyr0.chem.wsu.edu/~kipeters) Feb. 2017
              B. P. Prascher, D. E. Woon, K. A. Peterson, T. H. Dunning, Jr., A. K. Wilson, Theor. Chem. Acc. 128, 69 (2011)
      Al-Ar : Obtained from the ccRepo (grant-hill.group.shef.ac.uk/ccrepo) Feb. 2017
              D. E. Woon, T. H. Dunning, Jr., J. Chem. Phys. 98, 1358 (1993)
      Sc-Zn : Obtained from the ccRepo (grant-hill.group.shef.ac.uk/ccrepo) Feb. 2017
              N. B. Balabanov, K. A. Peterson, J. Chem. Phys. 123, 064107 (2005)
              N. B. Balabanov, K. A. Peterson, J. Chem. Phys. 125, 074110 (2006)
      Ga-Kr : Obtained from the ccRepo (grant-hill.group.shef.ac.uk/ccrepo) Feb. 2017
              A. K. Wilson, D. E. Woon, K. A. Peterson, T. H. Dunning, Jr., J. Chem. Phys. 110, 7667 (1999)
     Ag, Au : Obtained from the Peterson Research Group Website (tyr0.chem.wsu.edu/~kipeters) Feb. 2017
              K. A. Peterson, C. Puzzarini, Theor. Chem. Acc. 114, 283 (2005)

----- AuxJK basis set information -----
Your calculation utilizes the auxiliary basis: def2/JK
   H-Ba, Hf-Rn: F. Weigend, J. Comput. Chem. 29, 167 (2008).

================================================================================
                                        WARNINGS
                       Please study these warnings very carefully!
================================================================================


WARNING: your system is open-shell and RHF/RKS was chosen
  ===> : WILL SWITCH to UHF/UKS


INFO   : the flag for use of LIBINT has been found!

================================================================================
                                       INPUT FILE
================================================================================
NAME = 76_S.in
|  1> #
|  2> # 76_S wb97m-v/aug-cc-pvtz
|  3> #
|  4> ! wb97m-v aug-cc-pvtz def2/jk grid4 nofinalgrid
|  5> 
|  6> *xyz 0 3
|  7> S 0.0 0.0 0.0
|  8> *
|  9> 
| 10> %pal
| 11> nprocs 24
| 12> end
| 13> 
| 14> 
| 15>                          ****END OF INPUT****
================================================================================

                       ****************************
                       * Single Point Calculation *
                       ****************************

---------------------------------
CARTESIAN COORDINATES (ANGSTROEM)
---------------------------------
  S      0.000000    0.000000    0.000000

----------------------------
CARTESIAN COORDINATES (A.U.)
----------------------------
  NO LB      ZA    FRAG     MASS         X           Y           Z
   0 S    16.0000    0    32.060    0.000000    0.000000    0.000000

--------------------------------
INTERNAL COORDINATES (ANGSTROEM)
--------------------------------
 S      0   0   0     0.000000000000     0.00000000     0.00000000

---------------------------
INTERNAL COORDINATES (A.U.)
---------------------------
 S      0   0   0     0.000000000000     0.00000000     0.00000000

---------------------
BASIS SET INFORMATION
---------------------
There are 1 groups of distinct atoms

 Group   1 Type S   : 42s17p3d2f contracted to 6s5p3d2f pattern {131313111/77111/111/11}

Atom   0S    basis set group =>   1
----------------------------------
AUXILIARY/JK BASIS SET INFORMATION
----------------------------------
There are 1 groups of distinct atoms

 Group   1 Type S   : 16s12p10d4f1g contracted to 13s11p9d4f1g pattern {4111111111111/21111111111/211111111/1111/1}

Atom   0S    basis set group =>   1


           ************************************************************
           *        Program running with 24 parallel MPI-processes    *
           *              working on a common directory               *
           ************************************************************
------------------------------------------------------------------------------
                           ORCA GTO INTEGRAL CALCULATION
------------------------------------------------------------------------------

                         BASIS SET STATISTICS AND STARTUP INFO

 # of primitive gaussian shells          ...   64
 # of primitive gaussian functions       ...  122
 # of contracted shells                  ...   16
 # of contracted basis functions         ...   50
 Highest angular momentum                ...    3
 Maximum contraction depth               ...   13
 Integral package used                   ... LIBINT
 Integral threshhold            Thresh   ...  1.000e-10
 Primitive cut-off              TCut     ...  1.000e-11


------------------------------ INTEGRAL EVALUATION ----------------------------


 * One electron integrals 
 Pre-screening matrix                    ... done
 Shell pair data                         ... done (   0.000 sec)



           ************************************************************
           *        Program running with 24 parallel MPI-processes    *
           *              working on a common directory               *
           ************************************************************
-------------------------------------------------------------------------------
                                 ORCA SCF
-------------------------------------------------------------------------------

------------
SCF SETTINGS
------------
Hamiltonian:
 Density Functional     Method          .... DFT(GTOs)
 Exchange Functional    Exchange        .... WB97M-V
 Correlation Functional Correlation     .... WB97M-V
 Gradients option       PostSCFGGA      .... off
 Hybrid DFT is turned on
   Fraction HF Exchange ScalHFX         ....  0.150000
   Scaling of DF-GGA-X  ScalDFX         ....  0.000000
   Scaling of DF-GGA-C  ScalDFC         ....  1.000000
   Scaling of DF-LDA-C  ScalLDAC        ....  1.000000
   Perturbative correction              ....  0.000000
   Density functional embedding theory  .... OFF
 Long-range corrected/Screened/Range-Separated Hybrid DFT is turned on
   Amount of maximum screened exact exchange              ....  0.850000
   Range separation parameter mu (erf(mu*r12)/r12)        ....  0.300000
   NL short-range parameter             ....  6.000000
   NL long-range parameter              ....  0.010000


General Settings:
 Integral files         IntName         .... 76_S
 Hartree-Fock type      HFTyp           .... UHF
 Total Charge           Charge          ....    0
 Multiplicity           Mult            ....    3
 Number of Electrons    NEL             ....   16
 Basis Dimension        Dim             ....   50
 Nuclear Repulsion      ENuc            ....      0.0000000000 Eh

Convergence Acceleration:
 DIIS                   CNVDIIS         .... on
   Start iteration      DIISMaxIt       ....    12
   Startup error        DIISStart       ....  0.200000
   # of expansion vecs  DIISMaxEq       ....     5
   Bias factor          DIISBfac        ....   1.050
   Max. coefficient     DIISMaxC        ....  10.000
 Newton-Raphson         CNVNR           .... off
 SOSCF                  CNVSOSCF        .... off
 Level Shifting         CNVShift        .... on
   Level shift para.    LevelShift      ....    0.2500
   Turn off err/grad.   ShiftErr        ....    0.0010
 Zerner damping         CNVZerner       .... off
 Static damping         CNVDamp         .... on
   Fraction old density DampFac         ....    0.7000
   Max. Damping (<1)    DampMax         ....    0.9800
   Min. Damping (>=0)   DampMin         ....    0.0000
   Turn off err/grad.   DampErr         ....    0.1000
 Fernandez-Rico         CNVRico         .... off

SCF Procedure:
 Maximum # iterations   MaxIter         ....   125
 SCF integral mode      SCFMode         .... Direct
   Integral package                     .... LIBINT
 Reset frequency        DirectResetFreq ....    20
 Integral Threshold     Thresh          ....  1.000e-10 Eh
 Primitive CutOff       TCut            ....  1.000e-11 Eh

Convergence Tolerance:
 Convergence Check Mode ConvCheckMode   .... Total+1el-Energy
 Convergence forced     ConvForced      .... 0
 Energy Change          TolE            ....  1.000e-06 Eh
 1-El. energy change                    ....  1.000e-03 Eh
 DIIS Error             TolErr          ....  1.000e-06


Diagonalization of the overlap matrix:
Smallest eigenvalue                        ... 1.216e-02
Time for diagonalization                   ...    0.002 sec
Threshold for overlap eigenvalues          ... 1.000e-08
Number of eigenvalues below threshold      ... 0
Time for construction of square roots      ...    0.001 sec
Total time needed                          ...    0.003 sec

-------------------
DFT GRID GENERATION
-------------------

General Integration Accuracy     IntAcc      ...  4.670
Radial Grid Type                 RadialGrid  ... Gauss-Chebyshev
Angular Grid (max. acc.)         AngularGrid ... Lebedev-302
Angular grid pruning method      GridPruning ... 3 (G Style)
Weight generation scheme         WeightScheme... Becke
Basis function cutoff            BFCut       ...    1.0000e-10
Integration weight cutoff        WCut        ...    1.0000e-14
Grids for H and He will be reduced by one unit

# of grid points (after initial pruning)     ...   6846 (   0.0 sec)
# of grid points (after weights+screening)   ...   6846 (   0.0 sec)
Grid point division into batches done        ...    0.0 sec
Reduced shell lists constructed in    0.0 sec

Total number of grid points                  ...     6846
Total number of batches                      ...      107
Average number of points per batch           ...       63
Average number of grid points per atom       ...     6846
Average number of shells per batch           ...     4.17 (26.04%)
Average number of basis functions per batch  ...    10.83 (21.67%)
Average number of large shells per batch     ...     3.33 (80.00%)
Average number of large basis fcns per batch ...    10.00 (92.31%)
Maximum spatial batch extension              ...  17.78, 17.78, 17.78 au
Average spatial batch extension              ...   0.72,  0.72,  0.74 au

Time for grid setup =    0.064 sec

------------------------------
INITIAL GUESS: MODEL POTENTIAL
------------------------------
Loading Hartree-Fock densities                     ... done
Calculating cut-offs                               ... done
Setting up the integral package                    ... done
Initializing the effective Hamiltonian             ... done
Starting the Coulomb interaction                   ... done (   0.0 sec)
Reading the grid                                   ... done
Mapping shells                                     ... done
Starting the XC term evaluation                    ... done (   0.0 sec)
  promolecular density results
     # of electrons  =     16.000000228
     EX              =    -24.807173065
     EC              =     -0.594926646
     EX+EC           =    -25.402099711
Transforming the Hamiltonian                       ... done (   0.0 sec)
Diagonalizing the Hamiltonian                      ... done (   0.0 sec)
Back transforming the eigenvectors                 ... done (   0.0 sec)
Now organizing SCF variables                       ... done
                      ------------------
                      INITIAL GUESS DONE (   0.2 sec)
                      ------------------
--------------
SCF ITERATIONS
--------------
ITER       Energy         Delta-E        Max-DP      RMS-DP      [F,P]     Damp
               ***  Starting incremental Fock matrix formation  ***
  0   -398.1604496483   0.000000000000 0.01118819  0.00036653  0.0457160 0.7000
  1   -398.1618454498  -0.001395801482 0.00795596  0.00029234  0.0316959 0.7000
                               ***Turning on DIIS***
  2   -398.1629660429  -0.001120593097 0.02035293  0.00072465  0.0217852 0.0000
  3   -398.1659206189  -0.002954575970 0.00294342  0.00011819  0.0026596 0.0000
  4   -398.1661029563  -0.000182337382 0.00178594  0.00006061  0.0012294 0.0000
  5   -398.1661863540  -0.000083397784 0.00102608  0.00003939  0.0005523 0.0000
  6   -398.1662512960  -0.000064941962 0.00010926  0.00000360  0.0000703 0.0000
  7   -398.1662584940  -0.000007198028 0.00001996  0.00000086  0.0000197 0.0000
                 **** Energy Check signals convergence ****

               *****************************************************
               *                     SUCCESS                       *
               *           SCF CONVERGED AFTER   8 CYCLES          *
               *****************************************************


Setting up the DFT-NL grid :

General Integration Accuracy     IntAcc      ...  4.340
Radial Grid Type                 RadialGrid  ... Gauss-Chebyshev
Angular Grid (max. acc.)         AngularGrid ... Lebedev-110
Angular grid pruning method      GridPruning ... 3 (G Style)
Weight generation scheme         WeightScheme... Becke
Basis function cutoff            BFCut       ...    1.0000e-10
Integration weight cutoff        WCut        ...    1.0000e-14
Grids for H and He will be reduced by one unit

# of grid points (after initial pruning)     ...   1806 (   0.0 sec)
# of grid points (after weights+screening)   ...   1806 (   0.0 sec)
Grid point division into batches done        ...    0.0 sec
Reduced shell lists constructed in    0.0 sec

Total number of grid points                  ...     1806
Total number of batches                      ...       29
Average number of points per batch           ...       62
Average number of grid points per atom       ...     1806
Average number of shells per batch           ...    10.67 (66.67%)
Average number of basis functions per batch  ...    33.33 (66.67%)
Average number of large shells per batch     ...     7.33 (68.75%)
Average number of large basis fcns per batch ...    26.00 (78.00%)
Maximum spatial batch extension              ...  16.21, 29.83, 29.83 au
Average spatial batch extension              ...   1.12,  2.06,  2.06 au

Final grid set up in    0.0 sec

-------------------------------------------------------------------------------
                         DFT-NL dispersion correction                          
-------------------------------------------------------------------------------

SC Energy -398.166259375 
NL    Energy 0.068660799 
SC+NL Energy -398.097598576 
NL done in    0.0 sec
-------------------------------------------------------------------------------

----------------
TOTAL SCF ENERGY
----------------

Total Energy       :         -398.09759858 Eh          -10832.78639 eV

Components:
Nuclear Repulsion  :            0.00000000 Eh               0.00000 eV
Electronic Energy  :         -398.09759858 Eh          -10832.78639 eV
One Electron Energy:         -549.34831181 Eh          -14948.52753 eV
Two Electron Energy:          151.25071323 Eh            4115.74115 eV

Virial components:
Potential Energy   :         -795.23183513 Eh          -21639.35836 eV
Kinetic Energy     :          397.13423656 Eh           10806.57197 eV
Virial Ratio       :            2.00242578


DFT components:
N(Alpha)           :        8.999999859302 electrons
N(Beta)            :        6.999999876819 electrons
N(Total)           :       15.999999736121 electrons
E(X)               :      -19.071631892107 Eh       
E(C)               :       -0.658718012951 Eh       
NL Energy, E(C,NL) :        0.068660799244 Eh       
E(XC)              :      -19.661689105814 Eh       
DFET-embed. en.    :        0.000000000000 Eh       

---------------
SCF CONVERGENCE
---------------

  Last Energy change         ...   -8.8082e-07  Tolerance :   1.0000e-06
  Last MAX-Density change    ...    3.9586e-06  Tolerance :   1.0000e-05
  Last RMS-Density change    ...    1.4519e-07  Tolerance :   1.0000e-06
  Last DIIS Error            ...    3.4738e-06  Tolerance :   1.0000e-06

             **** THE GBW FILE WAS UPDATED (76_S.gbw) ****
             **** DENSITY FILE WAS UPDATED (76_S.scfp) ****
             **** ENERGY FILE WAS UPDATED (76_S.en.tmp) ****
----------------------
UHF SPIN CONTAMINATION
----------------------

Warning: in a DFT calculation there is little theoretical justification to 
         calculate <S**2> as in Hartree-Fock theory. We will do it anyways
         but you should keep in mind that the values have only limited relevance

Expectation value of <S**2>     :     2.003557
Ideal value S*(S+1) for S=1.0   :     2.000000
Deviation                       :     0.003557

             **** THE GBW FILE WAS UPDATED (76_S.gbw) ****
             **** DENSITY FILE WAS UPDATED (76_S.scfp) ****
----------------
ORBITAL ENERGIES
----------------
                 SPIN UP ORBITALS
  NO   OCC          E(Eh)            E(eV) 
   0   1.0000     -89.270723     -2429.1799 
   1   1.0000      -8.179979      -222.5885 
   2   1.0000      -6.096740      -165.9007 
   3   1.0000      -6.096740      -165.9007 
   4   1.0000      -6.077672      -165.3819 
   5   1.0000      -0.841344       -22.8941 
   6   1.0000      -0.428036       -11.6474 
   7   1.0000      -0.428036       -11.6474 
   8   1.0000      -0.391429       -10.6513 
   9   0.0000       0.067073         1.8251 
  10   0.0000       0.067073         1.8251 
  11   0.0000       0.071594         1.9482 
  12   0.0000       0.072777         1.9804 
  13   0.0000       0.210913         5.7392 
  14   0.0000       0.210913         5.7392 
  15   0.0000       0.222407         6.0520 
  16   0.0000       0.222407         6.0520 
  17   0.0000       0.225454         6.1349 
  18   0.0000       0.459396        12.5008 
  19   0.0000       0.459396        12.5008 
  20   0.0000       0.474777        12.9193 
  21   0.0000       0.579650        15.7731 
  22   0.0000       0.579650        15.7731 
  23   0.0000       0.604327        16.4446 
  24   0.0000       0.604327        16.4446 
  25   0.0000       0.611055        16.6276 
  26   0.0000       0.622403        16.9365 
  27   0.0000       0.746350        20.3092 
  28   0.0000       0.746350        20.3092 
  29   0.0000       0.757471        20.6118 
  30   0.0000       0.757471        20.6118 
  31   0.0000       0.764447        20.8017 
  32   0.0000       0.764447        20.8017 
  33   0.0000       0.767577        20.8868 
  34   0.0000       1.716462        46.7073 
  35   0.0000       1.716462        46.7073 
  36   0.0000       1.751268        47.6544 
  37   0.0000       1.751268        47.6544 
  38   0.0000       1.762840        47.9693 
  39   0.0000       2.022668        55.0396 
  40   0.0000       2.022668        55.0396 
  41   0.0000       2.053678        55.8834 
  42   0.0000       2.053678        55.8834 
  43   0.0000       2.073441        56.4212 
  44   0.0000       2.080643        56.6172 
  45   0.0000       2.080643        56.6172 
  46   0.0000       2.095501        57.0215 
  47   0.0000       2.095501        57.0215 
  48   0.0000       2.101910        57.1959 
  49   0.0000       3.788839       103.0995 

                 SPIN DOWN ORBITALS
  NO   OCC          E(Eh)            E(eV) 
   0   1.0000     -89.259510     -2428.8747 
   1   1.0000      -8.169307      -222.2982 
   2   1.0000      -6.073689      -165.2735 
   3   1.0000      -6.073689      -165.2735 
   4   1.0000      -6.070001      -165.1731 
   5   1.0000      -0.749313       -20.3898 
   6   1.0000      -0.359306        -9.7772 
   7   0.0000      -0.106457        -2.8968 
   8   0.0000      -0.106457        -2.8968 
   9   0.0000       0.019800         0.5388 
  10   0.0000       0.035828         0.9749 
  11   0.0000       0.035832         0.9750 
  12   0.0000       0.071190         1.9372 
  13   0.0000       0.163883         4.4595 
  14   0.0000       0.163892         4.4597 
  15   0.0000       0.211640         5.7590 
  16   0.0000       0.217239         5.9114 
  17   0.0000       0.217240         5.9114 
  18   0.0000       0.448340        12.2000 
  19   0.0000       0.448342        12.2000 
  20   0.0000       0.478725        13.0268 
  21   0.0000       0.635150        17.2833 
  22   0.0000       0.635156        17.2835 
  23   0.0000       0.635533        17.2937 
  24   0.0000       0.642382        17.4801 
  25   0.0000       0.642382        17.4801 
  26   0.0000       0.652044        17.7430 
  27   0.0000       0.717044        19.5118 
  28   0.0000       0.717044        19.5118 
  29   0.0000       0.753979        20.5168 
  30   0.0000       0.753979        20.5168 
  31   0.0000       0.754881        20.5414 
  32   0.0000       0.754882        20.5414 
  33   0.0000       0.762191        20.7403 
  34   0.0000       1.801043        49.0089 
  35   0.0000       1.801045        49.0089 
  36   0.0000       1.803473        49.0750 
  37   0.0000       1.806825        49.1662 
  38   0.0000       1.806825        49.1662 
  39   0.0000       2.116587        57.5952 
  40   0.0000       2.116587        57.5953 
  41   0.0000       2.118633        57.6509 
  42   0.0000       2.149371        58.4874 
  43   0.0000       2.150711        58.5238 
  44   0.0000       2.150711        58.5238 
  45   0.0000       2.156661        58.6857 
  46   0.0000       2.156661        58.6857 
  47   0.0000       2.156929        58.6930 
  48   0.0000       2.156929        58.6930 
  49   0.0000       3.832938       104.2995 

                    ********************************
                    * MULLIKEN POPULATION ANALYSIS *
                    ********************************

--------------------------------------------
MULLIKEN ATOMIC CHARGES AND SPIN POPULATIONS
--------------------------------------------
   0 S :   -0.000000    2.000000
Sum of atomic charges         :   -0.0000000
Sum of atomic spin populations:    2.0000000

-----------------------------------------------------
MULLIKEN REDUCED ORBITAL CHARGES AND SPIN POPULATIONS
-----------------------------------------------------
CHARGE
  0 S s       :     5.999127  s :     5.999127
      pz      :     2.999804  p :     9.999181
      px      :     3.999161
      py      :     3.000216
      dz2     :     0.000218  d :     0.000873
      dxz     :     0.000000
      dyz     :     0.000000
      dx2y2   :     0.000654
      dxy     :     0.000001
      f0      :     0.000074  f :     0.000819
      f+1     :     0.000158
      f-1     :     0.000012
      f+2     :     0.000124
      f-2     :     0.000000
      f+3     :     0.000263
      f-3     :     0.000186

SPIN
  0 S s       :    -0.000589  s :    -0.000589
      pz      :     0.999799  p :     1.999400
      px      :     0.000213
      py      :     0.999387
      dz2     :     0.000147  d :     0.000589
      dxz     :     0.000000
      dyz     :     0.000000
      dx2y2   :     0.000441
      dxy     :     0.000001
      f0      :     0.000074  f :     0.000600
      f+1     :     0.000076
      f-1     :     0.000012
      f+2     :     0.000124
      f-2     :     0.000000
      f+3     :     0.000128
      f-3     :     0.000186


                     *******************************
                     * LOEWDIN POPULATION ANALYSIS *
                     *******************************

-------------------------------------------
LOEWDIN ATOMIC CHARGES AND SPIN POPULATIONS
-------------------------------------------
   0 S :   -0.000000    2.000000

----------------------------------------------------
LOEWDIN REDUCED ORBITAL CHARGES AND SPIN POPULATIONS
----------------------------------------------------
CHARGE
  0 S s       :     5.999127  s :     5.999127
      pz      :     2.999804  p :     9.999181
      px      :     3.999161
      py      :     3.000216
      dz2     :     0.000218  d :     0.000873
      dxz     :     0.000000
      dyz     :     0.000000
      dx2y2   :     0.000654
      dxy     :     0.000001
      f0      :     0.000074  f :     0.000819
      f+1     :     0.000158
      f-1     :     0.000012
      f+2     :     0.000124
      f-2     :     0.000000
      f+3     :     0.000263
      f-3     :     0.000186

SPIN
  0 S s       :    -0.000589  s :    -0.000589
      pz      :     0.999799  p :     1.999400
      px      :     0.000213
      py      :     0.999387
      dz2     :     0.000147  d :     0.000589
      dxz     :     0.000000
      dyz     :     0.000000
      dx2y2   :     0.000441
      dxy     :     0.000001
      f0      :     0.000074  f :     0.000600
      f+1     :     0.000076
      f-1     :     0.000012
      f+2     :     0.000124
      f-2     :     0.000000
      f+3     :     0.000128
      f-3     :     0.000186


                      *****************************
                      * MAYER POPULATION ANALYSIS *
                      *****************************

  NA   - Mulliken gross atomic population
  ZA   - Total nuclear charge
  QA   - Mulliken gross atomic charge
  VA   - Mayer's total valence
  BVA  - Mayer's bonded valence
  FA   - Mayer's free valence

  ATOM       NA         ZA         QA         VA         BVA        FA
  0 S     16.0000    16.0000    -0.0000     2.0071     0.0000     2.0071

  Mayer bond orders larger than 0.100000


-------
TIMINGS
-------

Total SCF time: 0 days 0 hours 0 min 2 sec 

Total time                  ....       2.380 sec
Sum of individual times     ....       2.178 sec  ( 91.5%)

Fock matrix formation       ....       1.982 sec  ( 83.3%)
  XC integration            ....       0.077 sec  (  3.9% of F)
    Basis function eval.    ....       0.006 sec  (  7.7% of XC)
    Density eval.           ....       0.010 sec  ( 13.6% of XC)
    XC-Functional eval.     ....       0.005 sec  (  6.2% of XC)
    XC-Potential eval.      ....       0.012 sec  ( 15.9% of XC)
Diagonalization             ....       0.007 sec  (  0.3%)
Density matrix formation    ....       0.003 sec  (  0.1%)
Population analysis         ....       0.003 sec  (  0.1%)
Initial guess               ....       0.107 sec  (  4.5%)
Orbital Transformation      ....       0.000 sec  (  0.0%)
Orbital Orthonormalization  ....       0.000 sec  (  0.0%)
DIIS solution               ....       0.004 sec  (  0.2%)
Grid generation             ....       0.072 sec  (  3.0%)

-------------------------   --------------------
FINAL SINGLE POINT ENERGY      -398.097598575616
-------------------------   --------------------


                            ***************************************
                            *     ORCA property calculations      *
                            ***************************************

                                    ---------------------
                                    Active property flags
                                    ---------------------
   (+) Dipole Moment


------------------------------------------------------------------------------
                       ORCA ELECTRIC PROPERTIES CALCULATION
------------------------------------------------------------------------------

Dipole Moment Calculation                       ... on
Quadrupole Moment Calculation                   ... off
Polarizability Calculation                      ... off
GBWName                                         ... 76_S.gbw
Electron density file                           ... 76_S.scfp
The origin for moment calculation is the CENTER OF MASS  = ( 0.000000,  0.000000  0.000000)

-------------
DIPOLE MOMENT
-------------
                                X             Y             Z
Electronic contribution:     -0.00000       0.00000      -0.00000
Nuclear contribution   :      0.00000       0.00000       0.00000
                        -----------------------------------------
Total Dipole Moment    :     -0.00000       0.00000      -0.00000
                        -----------------------------------------
Magnitude (a.u.)       :      0.00000
Magnitude (Debye)      :      0.00000



--------------------
Rotational spectrum 
--------------------
 
Rotational constants in cm-1:     0.000000     0.000000     0.000000 
Rotational constants in MHz :     0.000000     0.000000     0.000000 

 Dipole components along the rotational axes: 
x,y,z [a.u.] :    -0.000000     0.000000    -0.000000 
x,y,z [Debye]:    -0.000000     0.000000    -0.000000 

 

Timings for individual modules:

Sum of individual times         ...        3.543 sec (=   0.059 min)
GTO integral calculation        ...        0.717 sec (=   0.012 min)  20.2 %
SCF iterations                  ...        2.826 sec (=   0.047 min)  79.8 %
                             ****ORCA TERMINATED NORMALLY****
TOTAL RUN TIME: 0 days 0 hours 0 minutes 4 seconds 2 msec
