
                                 *****************
                                 * O   R   C   A *
                                 *****************

           --- An Ab Initio, DFT and Semiempirical electronic structure package ---

                  #######################################################
                  #                        -***-                        #
                  #          Department of theory and spectroscopy      #
                  #               Directorship: Frank Neese             #
                  #        Max Planck Institute fuer Kohlenforschung    #
                  #                Kaiser Wilhelm Platz 1               #
                  #                 D-45470 Muelheim/Ruhr               #
                  #                      Germany                        #
                  #                                                     #
                  #                  All rights reserved                #
                  #                        -***-                        #
                  #######################################################


                         Program Version 4.2.0 -  RELEASE  -


 With contributions from (in alphabetic order):
   Daniel Aravena         : Magnetic Suceptibility
   Michael Atanasov       : Ab Initio Ligand Field Theory (pilot matlab implementation)
   Alexander A. Auer      : GIAO ZORA, VPT2
   Ute Becker             : Parallelization
   Giovanni Bistoni       : ED, misc. LED, open-shell LED, HFLED
   Martin Brehm           : Molecular dynamics
   Dmytro Bykov           : SCF Hessian
   Vijay G. Chilkuri      : MRCI spin determinant printing, contributions to CSF-ICE
   Dipayan Datta          : RHF DLPNO-CCSD density
   Achintya Kumar Dutta   : EOM-CC, STEOM-CC
   Dmitry Ganyushin       : Spin-Orbit,Spin-Spin,Magnetic field MRCI
   Miquel Garcia          : C-PCM Hessian, Gaussian charge scheme
   Yang Guo               : DLPNO-NEVPT2, CIM, IAO-localization
   Andreas Hansen         : Spin unrestricted coupled pair/coupled cluster methods
   Benjamin Helmich-Paris : CASSCF linear response (MC-RPA)
   Lee Huntington         : MR-EOM, pCC
   Robert Izsak           : Overlap fitted RIJCOSX, COSX-SCS-MP3, EOM
   Christian Kollmar      : KDIIS, OOCD, Brueckner-CCSD(T), CCSD density
   Simone Kossmann        : Meta GGA functionals, TD-DFT gradient, OOMP2, MP2 Hessian
   Martin Krupicka        : AUTO-CI
   Lucas Lang             : DCDCAS
   Dagmar Lenk            : GEPOL surface, SMD
   Dimitrios Liakos       : Extrapolation schemes; Compound Job, initial MDCI parallelization
   Dimitrios Manganas     : Further ROCIS development; embedding schemes
   Dimitrios Pantazis     : SARC Basis sets
   Taras Petrenko         : DFT Hessian,TD-DFT gradient, ASA, ECA, R-Raman, ABS, FL, XAS/XES, NRVS
   Peter Pinski           : DLPNO-MP2, DLPNO-MP2 Gradient
   Christoph Reimann      : Effective Core Potentials
   Marius Retegan         : Local ZFS, SOC
   Christoph Riplinger    : Optimizer, TS searches, QM/MM, DLPNO-CCSD(T), (RO)-DLPNO pert. Triples
   Tobias Risthaus        : Range-separated hybrids, TD-DFT gradient, RPA, STAB
   Michael Roemelt        : Original ROCIS implementation
   Masaaki Saitow         : Open-shell DLPNO-CCSD energy and density
   Barbara Sandhoefer     : DKH picture change effects
   Avijit Sen             : IP-ROCIS
   Kantharuban Sivalingam : CASSCF convergence, NEVPT2, FIC-MRCI
   Bernardo de Souza      : ESD, SOC TD-DFT
   Georgi Stoychev        : AutoAux, RI-MP2 NMR
   Willem Van den Heuvel  : Paramagnetic NMR
   Boris Wezisla          : Elementary symmetry handling
   Frank Wennmohs         : Technical directorship


 We gratefully acknowledge several colleagues who have allowed us to
 interface, adapt or use parts of their codes:
   Stefan Grimme, W. Hujo, H. Kruse,             : VdW corrections, initial TS optimization,
                  C. Bannwarth                     DFT functionals, gCP, sTDA/sTD-DF
   Ed Valeev, F. Pavosevic, A. Kumar             : LibInt (2-el integral package), F12 methods
   Garnet Chan, S. Sharma, J. Yang, R. Olivares  : DMRG
   Ulf Ekstrom                                   : XCFun DFT Library
   Mihaly Kallay                                 : mrcc  (arbitrary order and MRCC methods)
   Andreas Klamt, Michael Diedenhofen            : otool_cosmo (COSMO solvation model)
   Jiri Pittner, Ondrej Demel                    : Mk-CCSD
   Frank Weinhold                                : gennbo (NPA and NBO analysis)
   Christopher J. Cramer and Donald G. Truhlar   : smd solvation model
   Lars Goerigk                                  : TD-DFT with DH, B97 family of functionals
   V. Asgeirsson, H. Jonsson                     : NEB implementation
   FAccTs GmbH                                   : IRC, NEB, NEB-TS, Multilevel, MM, QM/MM, CI optimization
   S Lehtola, MJT Oliveira, MAL Marques          : LibXC Library


 Your calculation uses the libint2 library for the computation of 2-el integrals
 For citations please refer to: http://libint.valeyev.net

 Your ORCA version has been built with support for libXC version: 4.2.3
 For citations please refer to: https://tddft.org/programs/libxc/

 This ORCA versions uses:
   CBLAS   interface :  Fast vector & matrix operations
   LAPACKE interface :  Fast linear algebra routines
   SCALAPACK package :  Parallel linear algebra routines


Your calculation utilizes the atom-pairwise dispersion correction
with the Becke-Johnson damping scheme (D3BJ)
Cite in your paper:
S.Grimme, S.Ehrlich, L.Goerigk, J Comput Chem, (2011), 32, 1456–1465 
S.Grimme, J.Antony, S.Ehrlich and H.Krieg, J.Chem.Phys., 132, (2010), 154104 
   

----- Orbital basis set information -----
Your calculation utilizes the basis: aug-cc-pVTZ 
    H, B-Ne : Obtained from the ccRepo (grant-hill.group.shef.ac.uk/ccrepo) Feb. 2017
              R. A. Kendall, T. H. Dunning, Jr., R. J. Harrison, J. Chem. Phys. 96, 6796 (1992)
         He : Obtained from the ccRepo (grant-hill.group.shef.ac.uk/ccrepo) Feb. 2017
              D. E. Woon, T. H. Dunning, Jr., J. Chem. Phys. 100, 2975 (1994)
  Li-Be, Na : Obtained from the ccRepo (grant-hill.group.shef.ac.uk/ccrepo) Feb. 2017
              B. P. Prascher, D. E. Woon, K. A. Peterson, T. H. Dunning, Jr., A. K. Wilson, Theor. Chem. Acc. 128, 69 (2011)
         Mg : Obtained from the Peterson Research Group Website (tyr0.chem.wsu.edu/~kipeters) Feb. 2017
              B. P. Prascher, D. E. Woon, K. A. Peterson, T. H. Dunning, Jr., A. K. Wilson, Theor. Chem. Acc. 128, 69 (2011)
      Al-Ar : Obtained from the ccRepo (grant-hill.group.shef.ac.uk/ccrepo) Feb. 2017
              D. E. Woon, T. H. Dunning, Jr., J. Chem. Phys. 98, 1358 (1993)
      Sc-Zn : Obtained from the ccRepo (grant-hill.group.shef.ac.uk/ccrepo) Feb. 2017
              N. B. Balabanov, K. A. Peterson, J. Chem. Phys. 123, 064107 (2005)
              N. B. Balabanov, K. A. Peterson, J. Chem. Phys. 125, 074110 (2006)
      Ga-Kr : Obtained from the ccRepo (grant-hill.group.shef.ac.uk/ccrepo) Feb. 2017
              A. K. Wilson, D. E. Woon, K. A. Peterson, T. H. Dunning, Jr., J. Chem. Phys. 110, 7667 (1999)
     Ag, Au : Obtained from the Peterson Research Group Website (tyr0.chem.wsu.edu/~kipeters) Feb. 2017
              K. A. Peterson, C. Puzzarini, Theor. Chem. Acc. 114, 283 (2005)

----- AuxJK basis set information -----
Your calculation utilizes the auxiliary basis: def2/JK
   H-Ba, Hf-Rn: F. Weigend, J. Comput. Chem. 29, 167 (2008).

================================================================================
                                        WARNINGS
                       Please study these warnings very carefully!
================================================================================


INFO   : the flag for use of LIBINT has been found!

================================================================================
                                       INPUT FILE
================================================================================
NAME = 04_ScBr.in
|  1> #
|  2> # 04_ScBr tpssh/aug-cc-pvtz
|  3> #
|  4> ! tpssh d3bj aug-cc-pvtz def2/jk grid4 nofinalgrid
|  5> 
|  6> *xyz 0 1
|  7>   Sc  0.00000000000000      0.00000000000000     -0.19342129509946
|  8>   Br  0.00000000000000      0.00000000000000      2.19342129509946
|  9> *
| 10> 
| 11> %pal
| 12> nprocs 24
| 13> end
| 14> 
| 15> 
| 16>                          ****END OF INPUT****
================================================================================

                       ****************************
                       * Single Point Calculation *
                       ****************************

---------------------------------
CARTESIAN COORDINATES (ANGSTROEM)
---------------------------------
  Sc     0.000000    0.000000   -0.193421
  Br     0.000000    0.000000    2.193421

----------------------------
CARTESIAN COORDINATES (A.U.)
----------------------------
  NO LB      ZA    FRAG     MASS         X           Y           Z
   0 Sc   21.0000    0    44.960    0.000000    0.000000   -0.365513
   1 Br   35.0000    0    79.900    0.000000    0.000000    4.144966

--------------------------------
INTERNAL COORDINATES (ANGSTROEM)
--------------------------------
 Sc     0   0   0     0.000000000000     0.00000000     0.00000000
 Br     1   0   0     2.386842590199     0.00000000     0.00000000

---------------------------
INTERNAL COORDINATES (A.U.)
---------------------------
 Sc     0   0   0     0.000000000000     0.00000000     0.00000000
 Br     1   0   0     4.510478820255     0.00000000     0.00000000

---------------------
BASIS SET INFORMATION
---------------------
There are 2 groups of distinct atoms

 Group   1 Type Sc  : 116s77p23d3f2g contracted to 8s7p5d3f2g pattern {19191919191911/151515151511/77711/111/11}
 Group   2 Type Br  : 75s36p10d2f contracted to 7s6p4d2f pattern {18181818111/111111111/7111/11}

Atom   0Sc   basis set group =>   1
Atom   1Br   basis set group =>   2
----------------------------------
AUXILIARY/JK BASIS SET INFORMATION
----------------------------------
There are 2 groups of distinct atoms

 Group   1 Type Sc  : 19s14p12d10f7g3h1i contracted to 16s13p11d9f5g3h1i pattern {4111111111111111/2111111111111/21111111111/211111111/31111/111/1}
 Group   2 Type Br  : 20s14p13d10f7g3h contracted to 17s13p12d9f6g3h pattern {41111111111111111/2111111111111/211111111111/211111111/211111/111}

Atom   0Sc   basis set group =>   1
Atom   1Br   basis set group =>   2


           ************************************************************
           *        Program running with 24 parallel MPI-processes    *
           *              working on a common directory               *
           ************************************************************
------------------------------------------------------------------------------
                           ORCA GTO INTEGRAL CALCULATION
------------------------------------------------------------------------------

                         BASIS SET STATISTICS AND STARTUP INFO

 # of primitive gaussian shells          ...  344
 # of primitive gaussian functions       ...  748
 # of contracted shells                  ...   44
 # of contracted basis functions         ...  152
 Highest angular momentum                ...    4
 Maximum contraction depth               ...   19
 Integral package used                   ... LIBINT
 Integral threshhold            Thresh   ...  1.000e-10
 Primitive cut-off              TCut     ...  1.000e-11


------------------------------ INTEGRAL EVALUATION ----------------------------


 * One electron integrals 
 Pre-screening matrix                    ... done
 Shell pair data                         ... done (   0.002 sec)



           ************************************************************
           *        Program running with 24 parallel MPI-processes    *
           *              working on a common directory               *
           ************************************************************
-------------------------------------------------------------------------------
                                 ORCA SCF
-------------------------------------------------------------------------------

------------
SCF SETTINGS
------------
Hamiltonian:
 Density Functional     Method          .... DFT(GTOs)
 Exchange Functional    Exchange        .... TPSS
 Correlation Functional Correlation     .... TPSS
 LDA part of GGA corr.  LDAOpt          .... PW91-LDA
 Gradients option       PostSCFGGA      .... off
 Hybrid DFT is turned on
   Fraction HF Exchange ScalHFX         ....  0.100000
   Scaling of DF-GGA-X  ScalDFX         ....  0.900000
   Scaling of DF-GGA-C  ScalDFC         ....  1.000000
   Scaling of DF-LDA-C  ScalLDAC        ....  1.000000
   Perturbative correction              ....  0.000000
   Density functional embedding theory  .... OFF
   NL short-range parameter             ....  5.200000


General Settings:
 Integral files         IntName         .... 04_ScBr
 Hartree-Fock type      HFTyp           .... RHF
 Total Charge           Charge          ....    0
 Multiplicity           Mult            ....    1
 Number of Electrons    NEL             ....   56
 Basis Dimension        Dim             ....  152
 Nuclear Repulsion      ENuc            ....    162.9538745863 Eh

Convergence Acceleration:
 DIIS                   CNVDIIS         .... on
   Start iteration      DIISMaxIt       ....    12
   Startup error        DIISStart       ....  0.200000
   # of expansion vecs  DIISMaxEq       ....     5
   Bias factor          DIISBfac        ....   1.050
   Max. coefficient     DIISMaxC        ....  10.000
 Newton-Raphson         CNVNR           .... off
 SOSCF                  CNVSOSCF        .... off
 Level Shifting         CNVShift        .... on
   Level shift para.    LevelShift      ....    0.2500
   Turn off err/grad.   ShiftErr        ....    0.0010
 Zerner damping         CNVZerner       .... off
 Static damping         CNVDamp         .... on
   Fraction old density DampFac         ....    0.7000
   Max. Damping (<1)    DampMax         ....    0.9800
   Min. Damping (>=0)   DampMin         ....    0.0000
   Turn off err/grad.   DampErr         ....    0.1000
 Fernandez-Rico         CNVRico         .... off

SCF Procedure:
 Maximum # iterations   MaxIter         ....   125
 SCF integral mode      SCFMode         .... Direct
   Integral package                     .... LIBINT
 Reset frequency        DirectResetFreq ....    20
 Integral Threshold     Thresh          ....  1.000e-10 Eh
 Primitive CutOff       TCut            ....  1.000e-11 Eh

Convergence Tolerance:
 Convergence Check Mode ConvCheckMode   .... Total+1el-Energy
 Convergence forced     ConvForced      .... 0
 Energy Change          TolE            ....  1.000e-06 Eh
 1-El. energy change                    ....  1.000e-03 Eh
 DIIS Error             TolErr          ....  1.000e-06


Diagonalization of the overlap matrix:
Smallest eigenvalue                        ... 6.382e-05
Time for diagonalization                   ...    0.005 sec
Threshold for overlap eigenvalues          ... 1.000e-08
Number of eigenvalues below threshold      ... 0
Time for construction of square roots      ...    0.003 sec
Total time needed                          ...    0.009 sec

-------------------
DFT GRID GENERATION
-------------------

General Integration Accuracy     IntAcc      ...  4.670
Radial Grid Type                 RadialGrid  ... Gauss-Chebyshev
Angular Grid (max. acc.)         AngularGrid ... Lebedev-302
Angular grid pruning method      GridPruning ... 3 (G Style)
Weight generation scheme         WeightScheme... Becke
Basis function cutoff            BFCut       ...    1.0000e-10
Integration weight cutoff        WCut        ...    1.0000e-14
Grids for H and He will be reduced by one unit

# of grid points (after initial pruning)     ...  19280 (   0.0 sec)
# of grid points (after weights+screening)   ...  19253 (   0.0 sec)
nearest neighbour list constructed           ...    0.0 sec
Grid point re-assignment to atoms done       ...    0.0 sec
Grid point division into batches done        ...    0.1 sec
Reduced shell lists constructed in    0.1 sec

Total number of grid points                  ...    19253
Total number of batches                      ...      302
Average number of points per batch           ...       63
Average number of grid points per atom       ...     9626
Average number of shells per batch           ...    22.50 (51.14%)
Average number of basis functions per batch  ...    72.21 (47.51%)
Average number of large shells per batch     ...    15.36 (68.25%)
Average number of large basis fcns per batch ...    50.93 (70.52%)
Maximum spatial batch extension              ...  27.54, 34.02, 17.92 au
Average spatial batch extension              ...   0.92,  0.97,  0.67 au

Time for grid setup =    0.215 sec

------------------------------
INITIAL GUESS: MODEL POTENTIAL
------------------------------
Loading Hartree-Fock densities                     ... done
Calculating cut-offs                               ... done
Setting up the integral package                    ... done
Initializing the effective Hamiltonian             ... done
Starting the Coulomb interaction                   ... done (   0.0 sec)
Reading the grid                                   ... done
Mapping shells                                     ... done
Starting the XC term evaluation                    ... done (   0.0 sec)
  promolecular density results
     # of electrons  =     56.000017367
     EX              =   -127.155021165
     EC              =     -2.550111914
     EX+EC           =   -129.705133078
Transforming the Hamiltonian                       ... done (   0.0 sec)
Diagonalizing the Hamiltonian                      ... done (   0.0 sec)
Back transforming the eigenvectors                 ... done (   0.0 sec)
Now organizing SCF variables                       ... done
                      ------------------
                      INITIAL GUESS DONE (   0.3 sec)
                      ------------------
--------------
SCF ITERATIONS
--------------
ITER       Energy         Delta-E        Max-DP      RMS-DP      [F,P]     Damp
               ***  Starting incremental Fock matrix formation  ***
  0  -3334.8266949723   0.000000000000 0.10680637  0.00197398  0.0634155 0.7000
  1  -3334.8367178452  -0.010022872940 0.08030977  0.00142268  0.0369997 0.7000
                               ***Turning on DIIS***
  2  -3334.8419559263  -0.005238081048 0.19890941  0.00308858  0.0188029 0.0000
  3  -3334.8494172438  -0.007461317552 0.07848706  0.00117867  0.0198786 0.0000
  4  -3334.8514277353  -0.002010491446 0.06900972  0.00101915  0.0065696 0.0000
  5  -3334.8516478844  -0.000220149137 0.03383370  0.00055166  0.0029671 0.0000
  6  -3334.8517250930  -0.000077208585 0.04044288  0.00048843  0.0019129 0.0000
  7  -3334.8517617684  -0.000036675405 0.02535362  0.00030124  0.0014708 0.0000
  8  -3334.8517822139  -0.000020445468 0.01955078  0.00023068  0.0010509 0.0000
  9  -3334.8517938386  -0.000011624697 0.03055046  0.00035934  0.0009231 0.0000
 10  -3334.8518034172  -0.000009578625 0.00585263  0.00010298  0.0015117 0.0000
 11  -3334.8518077355  -0.000004318355 0.00210235  0.00002577  0.0005327 0.0000
 12  -3334.8518089566  -0.000001221050 0.00071275  0.00001242  0.0001390 0.0000
 13  -3334.8518090036  -0.000000047036 0.00024501  0.00000480  0.0000636 0.0000
 14  -3334.8518090141  -0.000000010447 0.00006995  0.00000109  0.0000176 0.0000
                 **** Energy Check signals convergence ****

               *****************************************************
               *                     SUCCESS                       *
               *           SCF CONVERGED AFTER  15 CYCLES          *
               *****************************************************


----------------
TOTAL SCF ENERGY
----------------

Total Energy       :        -3334.85180902 Eh          -90745.93116 eV

Components:
Nuclear Repulsion  :          162.95387459 Eh            4434.20036 eV
Electronic Energy  :        -3497.80568360 Eh          -95180.13152 eV
One Electron Energy:        -4948.12494434 Eh         -134645.32497 eV
Two Electron Energy:         1450.31926074 Eh           39465.19346 eV

Virial components:
Potential Energy   :        -6664.80911475 Eh         -181358.67611 eV
Kinetic Energy     :         3329.95730573 Eh           90612.74495 eV
Virial Ratio       :            2.00146984


DFT components:
N(Alpha)           :       28.000010732741 electrons
N(Beta)            :       28.000010732741 electrons
N(Total)           :       56.000021465481 electrons
E(X)               :     -114.868716657076 Eh       
E(C)               :       -2.563314345632 Eh       
E(XC)              :     -117.432031002708 Eh       
DFET-embed. en.    :        0.000000000000 Eh       

---------------
SCF CONVERGENCE
---------------

  Last Energy change         ...   -2.4647e-09  Tolerance :   1.0000e-06
  Last MAX-Density change    ...    1.3699e-04  Tolerance :   1.0000e-05
  Last RMS-Density change    ...    1.8120e-06  Tolerance :   1.0000e-06
  Last DIIS Error            ...    1.6004e-05  Tolerance :   1.0000e-06

             **** THE GBW FILE WAS UPDATED (04_ScBr.gbw) ****
             **** DENSITY FILE WAS UPDATED (04_ScBr.scfp) ****
             **** ENERGY FILE WAS UPDATED (04_ScBr.en.tmp) ****
             **** THE GBW FILE WAS UPDATED (04_ScBr.gbw) ****
             **** DENSITY FILE WAS UPDATED (04_ScBr.scfp) ****
----------------
ORBITAL ENERGIES
----------------

  NO   OCC          E(Eh)            E(eV) 
   0   2.0000    -482.551081    -13130.8825 
   1   2.0000    -161.575728     -4396.6991 
   2   2.0000     -62.264804     -1694.3115 
   3   2.0000     -56.048747     -1525.1639 
   4   2.0000     -56.048468     -1525.1563 
   5   2.0000     -56.048468     -1525.1563 
   6   2.0000     -17.561532      -477.8736 
   7   2.0000     -14.470295      -393.7568 
   8   2.0000     -14.470295      -393.7568 
   9   2.0000     -14.454800      -393.3351 
  10   2.0000      -8.607223      -234.2145 
  11   2.0000      -6.421133      -174.7279 
  12   2.0000      -6.420007      -174.6973 
  13   2.0000      -6.420007      -174.6973 
  14   2.0000      -2.546935       -69.3056 
  15   2.0000      -2.546404       -69.2912 
  16   2.0000      -2.546404       -69.2912 
  17   2.0000      -2.545447       -69.2651 
  18   2.0000      -2.545390       -69.2636 
  19   2.0000      -2.117632       -57.6237 
  20   2.0000      -1.318631       -35.8818 
  21   2.0000      -1.318631       -35.8818 
  22   2.0000      -1.303570       -35.4719 
  23   2.0000      -0.727181       -19.7876 
  24   2.0000      -0.321684        -8.7535 
  25   2.0000      -0.292471        -7.9585 
  26   2.0000      -0.292471        -7.9585 
  27   2.0000      -0.164696        -4.4816 
  28   0.0000      -0.122069        -3.3217 
  29   0.0000      -0.122068        -3.3216 
  30   0.0000      -0.101434        -2.7601 
  31   0.0000      -0.101434        -2.7601 
  32   0.0000      -0.093091        -2.5331 
  33   0.0000      -0.039729        -1.0811 
  34   0.0000      -0.039729        -1.0811 
  35   0.0000      -0.000718        -0.0195 
  36   0.0000       0.002429         0.0661 
  37   0.0000       0.017689         0.4813 
  38   0.0000       0.017689         0.4813 
  39   0.0000       0.022938         0.6242 
  40   0.0000       0.022955         0.6246 
  41   0.0000       0.024257         0.6601 
  42   0.0000       0.024937         0.6786 
  43   0.0000       0.024938         0.6786 
  44   0.0000       0.041285         1.1234 
  45   0.0000       0.074070         2.0156 
  46   0.0000       0.084460         2.2983 
  47   0.0000       0.084469         2.2985 
  48   0.0000       0.090816         2.4712 
  49   0.0000       0.090816         2.4712 
  50   0.0000       0.091052         2.4777 
  51   0.0000       0.092636         2.5207 
  52   0.0000       0.092636         2.5207 
  53   0.0000       0.094084         2.5602 
  54   0.0000       0.106685         2.9031 
  55   0.0000       0.106687         2.9031 
  56   0.0000       0.107716         2.9311 
  57   0.0000       0.107716         2.9311 
  58   0.0000       0.118837         3.2337 
  59   0.0000       0.118837         3.2337 
  60   0.0000       0.129711         3.5296 
  61   0.0000       0.162126         4.4117 
  62   0.0000       0.162126         4.4117 
  63   0.0000       0.178013         4.8440 
  64   0.0000       0.225519         6.1367 
  65   0.0000       0.235481         6.4078 
  66   0.0000       0.235483         6.4078 
  67   0.0000       0.267264         7.2726 
  68   0.0000       0.267264         7.2726 
  69   0.0000       0.307970         8.3803 
  70   0.0000       0.329792         8.9741 
  71   0.0000       0.329793         8.9741 
  72   0.0000       0.350385         9.5345 
  73   0.0000       0.368877        10.0376 
  74   0.0000       0.368877        10.0376 
  75   0.0000       0.390369        10.6225 
  76   0.0000       0.390369        10.6225 
  77   0.0000       0.399129        10.8608 
  78   0.0000       0.399129        10.8608 
  79   0.0000       0.399593        10.8735 
  80   0.0000       0.415498        11.3063 
  81   0.0000       0.415498        11.3063 
  82   0.0000       0.420185        11.4338 
  83   0.0000       0.420186        11.4338 
  84   0.0000       0.433373        11.7927 
  85   0.0000       0.444860        12.1053 
  86   0.0000       0.444861        12.1053 
  87   0.0000       0.494614        13.4591 
  88   0.0000       0.494614        13.4591 
  89   0.0000       0.499102        13.5812 
  90   0.0000       0.499102        13.5812 
  91   0.0000       0.522818        14.2266 
  92   0.0000       0.522822        14.2267 
  93   0.0000       0.550378        14.9766 
  94   0.0000       0.601725        16.3738 
  95   0.0000       0.601725        16.3738 
  96   0.0000       0.630569        17.1587 
  97   0.0000       0.660656        17.9774 
  98   0.0000       0.660664        17.9776 
  99   0.0000       0.750994        20.4356 
 100   0.0000       0.838751        22.8236 
 101   0.0000       0.838751        22.8236 
 102   0.0000       0.844387        22.9769 
 103   0.0000       0.844387        22.9769 
 104   0.0000       0.890647        24.2357 
 105   0.0000       0.994966        27.0744 
 106   0.0000       0.994979        27.0747 
 107   0.0000       1.035341        28.1731 
 108   0.0000       1.131642        30.7936 
 109   0.0000       1.131642        30.7936 
 110   0.0000       1.301329        35.4110 
 111   0.0000       1.301339        35.4112 
 112   0.0000       1.336019        36.3549 
 113   0.0000       1.388860        37.7928 
 114   0.0000       1.388860        37.7928 
 115   0.0000       1.602045        43.5939 
 116   0.0000       1.602046        43.5939 
 117   0.0000       1.608521        43.7701 
 118   0.0000       1.661173        45.2028 
 119   0.0000       1.797287        48.9067 
 120   0.0000       1.797315        48.9074 
 121   0.0000       1.799576        48.9689 
 122   0.0000       1.799576        48.9689 
 123   0.0000       1.820630        49.5419 
 124   0.0000       1.837617        50.0041 
 125   0.0000       1.837652        50.0050 
 126   0.0000       1.838446        50.0267 
 127   0.0000       1.838446        50.0267 
 128   0.0000       1.969150        53.5833 
 129   0.0000       1.969150        53.5833 
 130   0.0000       1.985738        54.0347 
 131   0.0000       1.999669        54.4138 
 132   0.0000       1.999669        54.4138 
 133   0.0000       2.019609        54.9563 
 134   0.0000       2.019640        54.9572 
 135   0.0000       2.039905        55.5086 
 136   0.0000       2.045744        55.6675 
 137   0.0000       2.045828        55.6698 
 138   0.0000       2.059868        56.0519 
 139   0.0000       2.059868        56.0519 
 140   0.0000       2.144591        58.3573 
 141   0.0000       2.144591        58.3573 
 142   0.0000       2.152465        58.5716 
 143   0.0000       2.152527        58.5732 
 144   0.0000       2.231277        60.7161 
 145   0.0000       2.231277        60.7161 
 146   0.0000       2.233872        60.7867 
 147   0.0000       2.352408        64.0123 
 148   0.0000       2.352408        64.0123 
 149   0.0000       2.503306        68.1184 
 150   0.0000       2.994131        81.4745 
 151   0.0000       4.532474       123.3349 

                    ********************************
                    * MULLIKEN POPULATION ANALYSIS *
                    ********************************

-----------------------
MULLIKEN ATOMIC CHARGES
-----------------------
   0 Sc:    0.307584
   1 Br:   -0.307584
Sum of atomic charges:    0.0000000

--------------------------------
MULLIKEN REDUCED ORBITAL CHARGES
--------------------------------
  0 Scs       :     7.299729  s :     7.299729
      pz      :     4.131199  p :    12.212637
      px      :     4.040719
      py      :     4.040719
      dz2     :     0.850795  d :     1.127617
      dxz     :     0.138412
      dyz     :     0.138412
      dx2y2   :    -0.000001
      dxy     :    -0.000001
      f0      :     0.005531  f :     0.039266
      f+1     :     0.016867
      f-1     :     0.016867
      f+2     :     0.000001
      f-2     :     0.000001
      f+3     :     0.000000
      f-3     :     0.000000
      g0      :     0.000793  g :     0.013167
      g+1     :     0.006185
      g-1     :     0.006185
      g+2     :     0.000002
      g-2     :     0.000002
      g+3     :     0.000000
      g-3     :     0.000000
      g+4     :     0.000000
      g-4     :     0.000000
  1 Brs       :     8.086889  s :     8.086889
      pz      :     5.617186  p :    17.205588
      px      :     5.794201
      py      :     5.794201
      dz2     :     2.005059  d :    10.010746
      dxz     :     2.002846
      dyz     :     2.002846
      dx2y2   :     1.999998
      dxy     :     1.999997
      f0      :     0.002819  f :     0.004361
      f+1     :     0.000771
      f-1     :     0.000771
      f+2     :     0.000000
      f-2     :     0.000000
      f+3     :     0.000000
      f-3     :     0.000000


                     *******************************
                     * LOEWDIN POPULATION ANALYSIS *
                     *******************************

----------------------
LOEWDIN ATOMIC CHARGES
----------------------
   0 Sc:   -0.290466
   1 Br:    0.290466

-------------------------------
LOEWDIN REDUCED ORBITAL CHARGES
-------------------------------
  0 Scs       :     7.132330  s :     7.132330
      pz      :     4.198593  p :    12.242559
      px      :     4.021983
      py      :     4.021983
      dz2     :     0.982200  d :     1.376567
      dxz     :     0.197181
      dyz     :     0.197181
      dx2y2   :     0.000002
      dxy     :     0.000002
      f0      :     0.124847  f :     0.307416
      f+1     :     0.091266
      f-1     :     0.091266
      f+2     :     0.000018
      f-2     :     0.000018
      f+3     :     0.000000
      f-3     :     0.000000
      g0      :     0.075848  g :     0.231595
      g+1     :     0.077797
      g-1     :     0.077797
      g+2     :     0.000077
      g-2     :     0.000077
      g+3     :     0.000000
      g-3     :     0.000000
      g+4     :     0.000000
      g-4     :     0.000000
  1 Brs       :     7.554520  s :     7.554520
      pz      :     5.736236  p :    16.881977
      px      :     5.572870
      py      :     5.572870
      dz2     :     2.138288  d :    10.190972
      dxz     :     2.026439
      dyz     :     2.026439
      dx2y2   :     1.999903
      dxy     :     1.999903
      f0      :     0.057138  f :     0.082065
      f+1     :     0.012463
      f-1     :     0.012463
      f+2     :     0.000000
      f-2     :     0.000000
      f+3     :     0.000000
      f-3     :     0.000000


                      *****************************
                      * MAYER POPULATION ANALYSIS *
                      *****************************

  NA   - Mulliken gross atomic population
  ZA   - Total nuclear charge
  QA   - Mulliken gross atomic charge
  VA   - Mayer's total valence
  BVA  - Mayer's bonded valence
  FA   - Mayer's free valence

  ATOM       NA         ZA         QA         VA         BVA        FA
  0 Sc    20.6924    21.0000     0.3076     1.6253     1.6253     0.0000
  1 Br    35.3076    35.0000    -0.3076     1.6253     1.6253    -0.0000

  Mayer bond orders larger than 0.100000
B(  0-Sc,  1-Br) :   1.6253 

-------
TIMINGS
-------

Total SCF time: 0 days 0 hours 3 min 8 sec 

Total time                  ....     188.956 sec
Sum of individual times     ....     188.602 sec  ( 99.8%)

Fock matrix formation       ....     188.191 sec  ( 99.6%)
  XC integration            ....       0.509 sec  (  0.3% of F)
    Basis function eval.    ....       0.113 sec  ( 22.1% of XC)
    Density eval.           ....       0.083 sec  ( 16.4% of XC)
    XC-Functional eval.     ....       0.025 sec  (  4.9% of XC)
    XC-Potential eval.      ....       0.179 sec  ( 35.1% of XC)
Diagonalization             ....       0.047 sec  (  0.0%)
Density matrix formation    ....       0.006 sec  (  0.0%)
Population analysis         ....       0.007 sec  (  0.0%)
Initial guess               ....       0.112 sec  (  0.1%)
Orbital Transformation      ....       0.000 sec  (  0.0%)
Orbital Orthonormalization  ....       0.000 sec  (  0.0%)
DIIS solution               ....       0.024 sec  (  0.0%)
Grid generation             ....       0.215 sec  (  0.1%)


-------------------------------------------------------------------------------
                          DFT DISPERSION CORRECTION                            
                                                                               
                              DFTD3 V3.1  Rev 1                                
                          USING Becke-Johnson damping                          
-------------------------------------------------------------------------------
The TPSSH functional is recognized
Active option DFTDOPT                   ...         4   

molecular C6(AA) [au] = 1270.010580 


            DFT-D V3
 parameters
 s6 scaling factor         :     1.0000 
 a1 scaling factor         :     0.4529 
 s8 scaling factor         :     2.2382 
 a2 scaling factor         :     4.6550 
 ad hoc parameters k1-k3   :    16.0000     1.3333    -4.0000 

 Edisp/kcal,au: -1.167121204748  -0.001859925831 
 E6   /kcal   :  -0.327947006 
 E8   /kcal   :  -0.839174199 
 % E8         :  71.901204064 

-------------------------   ----------------
Dispersion correction           -0.001859926
-------------------------   ----------------


-------------------------   --------------------
FINAL SINGLE POINT ENERGY     -3334.853668942374
-------------------------   --------------------


                            ***************************************
                            *     ORCA property calculations      *
                            ***************************************

                                    ---------------------
                                    Active property flags
                                    ---------------------
   (+) Dipole Moment


------------------------------------------------------------------------------
                       ORCA ELECTRIC PROPERTIES CALCULATION
------------------------------------------------------------------------------

Dipole Moment Calculation                       ... on
Quadrupole Moment Calculation                   ... off
Polarizability Calculation                      ... off
GBWName                                         ... 04_ScBr.gbw
Electron density file                           ... 04_ScBr.scfp
The origin for moment calculation is the CENTER OF MASS  = ( 0.000000,  0.000000  2.520817)

-------------
DIPOLE MOMENT
-------------
                                X             Y             Z
Electronic contribution:     -0.00000      -0.00000       2.59956
Nuclear contribution   :      0.00000       0.00000      -3.76776
                        -----------------------------------------
Total Dipole Moment    :     -0.00000      -0.00000      -1.16821
                        -----------------------------------------
Magnitude (a.u.)       :      1.16821
Magnitude (Debye)      :      2.96934



--------------------
Rotational spectrum 
--------------------
 
Rotational constants in cm-1:     0.000000     0.102849     0.102849 
Rotational constants in MHz :     0.000000  3083.332036  3083.332036 

 Dipole components along the rotational axes: 
x,y,z [a.u.] :    -1.168206    -0.000000    -0.000000 
x,y,z [Debye]:    -2.969343    -0.000000    -0.000000 

 

Timings for individual modules:

Sum of individual times         ...      194.407 sec (=   3.240 min)
GTO integral calculation        ...        5.067 sec (=   0.084 min)   2.6 %
SCF iterations                  ...      189.340 sec (=   3.156 min)  97.4 %
                             ****ORCA TERMINATED NORMALLY****
TOTAL RUN TIME: 0 days 0 hours 3 minutes 15 seconds 75 msec
