
                                 *****************
                                 * O   R   C   A *
                                 *****************

           --- An Ab Initio, DFT and Semiempirical electronic structure package ---

                  #######################################################
                  #                        -***-                        #
                  #          Department of theory and spectroscopy      #
                  #               Directorship: Frank Neese             #
                  #        Max Planck Institute fuer Kohlenforschung    #
                  #                Kaiser Wilhelm Platz 1               #
                  #                 D-45470 Muelheim/Ruhr               #
                  #                      Germany                        #
                  #                                                     #
                  #                  All rights reserved                #
                  #                        -***-                        #
                  #######################################################


                         Program Version 4.2.0 -  RELEASE  -


 With contributions from (in alphabetic order):
   Daniel Aravena         : Magnetic Suceptibility
   Michael Atanasov       : Ab Initio Ligand Field Theory (pilot matlab implementation)
   Alexander A. Auer      : GIAO ZORA, VPT2
   Ute Becker             : Parallelization
   Giovanni Bistoni       : ED, misc. LED, open-shell LED, HFLED
   Martin Brehm           : Molecular dynamics
   Dmytro Bykov           : SCF Hessian
   Vijay G. Chilkuri      : MRCI spin determinant printing, contributions to CSF-ICE
   Dipayan Datta          : RHF DLPNO-CCSD density
   Achintya Kumar Dutta   : EOM-CC, STEOM-CC
   Dmitry Ganyushin       : Spin-Orbit,Spin-Spin,Magnetic field MRCI
   Miquel Garcia          : C-PCM Hessian, Gaussian charge scheme
   Yang Guo               : DLPNO-NEVPT2, CIM, IAO-localization
   Andreas Hansen         : Spin unrestricted coupled pair/coupled cluster methods
   Benjamin Helmich-Paris : CASSCF linear response (MC-RPA)
   Lee Huntington         : MR-EOM, pCC
   Robert Izsak           : Overlap fitted RIJCOSX, COSX-SCS-MP3, EOM
   Christian Kollmar      : KDIIS, OOCD, Brueckner-CCSD(T), CCSD density
   Simone Kossmann        : Meta GGA functionals, TD-DFT gradient, OOMP2, MP2 Hessian
   Martin Krupicka        : AUTO-CI
   Lucas Lang             : DCDCAS
   Dagmar Lenk            : GEPOL surface, SMD
   Dimitrios Liakos       : Extrapolation schemes; Compound Job, initial MDCI parallelization
   Dimitrios Manganas     : Further ROCIS development; embedding schemes
   Dimitrios Pantazis     : SARC Basis sets
   Taras Petrenko         : DFT Hessian,TD-DFT gradient, ASA, ECA, R-Raman, ABS, FL, XAS/XES, NRVS
   Peter Pinski           : DLPNO-MP2, DLPNO-MP2 Gradient
   Christoph Reimann      : Effective Core Potentials
   Marius Retegan         : Local ZFS, SOC
   Christoph Riplinger    : Optimizer, TS searches, QM/MM, DLPNO-CCSD(T), (RO)-DLPNO pert. Triples
   Tobias Risthaus        : Range-separated hybrids, TD-DFT gradient, RPA, STAB
   Michael Roemelt        : Original ROCIS implementation
   Masaaki Saitow         : Open-shell DLPNO-CCSD energy and density
   Barbara Sandhoefer     : DKH picture change effects
   Avijit Sen             : IP-ROCIS
   Kantharuban Sivalingam : CASSCF convergence, NEVPT2, FIC-MRCI
   Bernardo de Souza      : ESD, SOC TD-DFT
   Georgi Stoychev        : AutoAux, RI-MP2 NMR
   Willem Van den Heuvel  : Paramagnetic NMR
   Boris Wezisla          : Elementary symmetry handling
   Frank Wennmohs         : Technical directorship


 We gratefully acknowledge several colleagues who have allowed us to
 interface, adapt or use parts of their codes:
   Stefan Grimme, W. Hujo, H. Kruse,             : VdW corrections, initial TS optimization,
                  C. Bannwarth                     DFT functionals, gCP, sTDA/sTD-DF
   Ed Valeev, F. Pavosevic, A. Kumar             : LibInt (2-el integral package), F12 methods
   Garnet Chan, S. Sharma, J. Yang, R. Olivares  : DMRG
   Ulf Ekstrom                                   : XCFun DFT Library
   Mihaly Kallay                                 : mrcc  (arbitrary order and MRCC methods)
   Andreas Klamt, Michael Diedenhofen            : otool_cosmo (COSMO solvation model)
   Jiri Pittner, Ondrej Demel                    : Mk-CCSD
   Frank Weinhold                                : gennbo (NPA and NBO analysis)
   Christopher J. Cramer and Donald G. Truhlar   : smd solvation model
   Lars Goerigk                                  : TD-DFT with DH, B97 family of functionals
   V. Asgeirsson, H. Jonsson                     : NEB implementation
   FAccTs GmbH                                   : IRC, NEB, NEB-TS, Multilevel, MM, QM/MM, CI optimization
   S Lehtola, MJT Oliveira, MAL Marques          : LibXC Library


 Your calculation uses the libint2 library for the computation of 2-el integrals
 For citations please refer to: http://libint.valeyev.net

 Your ORCA version has been built with support for libXC version: 4.2.3
 For citations please refer to: https://tddft.org/programs/libxc/

 This ORCA versions uses:
   CBLAS   interface :  Fast vector & matrix operations
   LAPACKE interface :  Fast linear algebra routines
   SCALAPACK package :  Parallel linear algebra routines


Your calculation utilizes the atom-pairwise dispersion correction
with the Becke-Johnson damping scheme (D3BJ)
Cite in your paper:
S.Grimme, S.Ehrlich, L.Goerigk, J Comput Chem, (2011), 32, 1456–1465 
S.Grimme, J.Antony, S.Ehrlich and H.Krieg, J.Chem.Phys., 132, (2010), 154104 
   

----- Orbital basis set information -----
Your calculation utilizes the basis: aug-cc-pVTZ 
    H, B-Ne : Obtained from the ccRepo (grant-hill.group.shef.ac.uk/ccrepo) Feb. 2017
              R. A. Kendall, T. H. Dunning, Jr., R. J. Harrison, J. Chem. Phys. 96, 6796 (1992)
         He : Obtained from the ccRepo (grant-hill.group.shef.ac.uk/ccrepo) Feb. 2017
              D. E. Woon, T. H. Dunning, Jr., J. Chem. Phys. 100, 2975 (1994)
  Li-Be, Na : Obtained from the ccRepo (grant-hill.group.shef.ac.uk/ccrepo) Feb. 2017
              B. P. Prascher, D. E. Woon, K. A. Peterson, T. H. Dunning, Jr., A. K. Wilson, Theor. Chem. Acc. 128, 69 (2011)
         Mg : Obtained from the Peterson Research Group Website (tyr0.chem.wsu.edu/~kipeters) Feb. 2017
              B. P. Prascher, D. E. Woon, K. A. Peterson, T. H. Dunning, Jr., A. K. Wilson, Theor. Chem. Acc. 128, 69 (2011)
      Al-Ar : Obtained from the ccRepo (grant-hill.group.shef.ac.uk/ccrepo) Feb. 2017
              D. E. Woon, T. H. Dunning, Jr., J. Chem. Phys. 98, 1358 (1993)
      Sc-Zn : Obtained from the ccRepo (grant-hill.group.shef.ac.uk/ccrepo) Feb. 2017
              N. B. Balabanov, K. A. Peterson, J. Chem. Phys. 123, 064107 (2005)
              N. B. Balabanov, K. A. Peterson, J. Chem. Phys. 125, 074110 (2006)
      Ga-Kr : Obtained from the ccRepo (grant-hill.group.shef.ac.uk/ccrepo) Feb. 2017
              A. K. Wilson, D. E. Woon, K. A. Peterson, T. H. Dunning, Jr., J. Chem. Phys. 110, 7667 (1999)
     Ag, Au : Obtained from the Peterson Research Group Website (tyr0.chem.wsu.edu/~kipeters) Feb. 2017
              K. A. Peterson, C. Puzzarini, Theor. Chem. Acc. 114, 283 (2005)

----- AuxJK basis set information -----
Your calculation utilizes the auxiliary basis: def2/JK
   H-Ba, Hf-Rn: F. Weigend, J. Comput. Chem. 29, 167 (2008).

================================================================================
                                        WARNINGS
                       Please study these warnings very carefully!
================================================================================


WARNING: your system is open-shell and RHF/RKS was chosen
  ===> : WILL SWITCH to UHF/UKS


INFO   : the flag for use of LIBINT has been found!

================================================================================
                                       INPUT FILE
================================================================================
NAME = 10_TiBr.in
|  1> #
|  2> # 10_TiBr tpssh/aug-cc-pvtz
|  3> #
|  4> ! tpssh d3bj aug-cc-pvtz def2/jk grid4 nofinalgrid
|  5> 
|  6> *xyz 0 4
|  7>   Ti  0.00000000000000      0.00000000000000     -0.20373332414567
|  8>   Br  0.00000000000000      0.00000000000000      2.20373332414567
|  9> *
| 10> 
| 11> %pal
| 12> nprocs 24
| 13> end
| 14> 
| 15> 
| 16>                          ****END OF INPUT****
================================================================================

                       ****************************
                       * Single Point Calculation *
                       ****************************

---------------------------------
CARTESIAN COORDINATES (ANGSTROEM)
---------------------------------
  Ti     0.000000    0.000000   -0.203733
  Br     0.000000    0.000000    2.203733

----------------------------
CARTESIAN COORDINATES (A.U.)
----------------------------
  NO LB      ZA    FRAG     MASS         X           Y           Z
   0 Ti   22.0000    0    47.900    0.000000    0.000000   -0.385000
   1 Br   35.0000    0    79.900    0.000000    0.000000    4.164452

--------------------------------
INTERNAL COORDINATES (ANGSTROEM)
--------------------------------
 Ti     0   0   0     0.000000000000     0.00000000     0.00000000
 Br     1   0   0     2.407466648291     0.00000000     0.00000000

---------------------------
INTERNAL COORDINATES (A.U.)
---------------------------
 Ti     0   0   0     0.000000000000     0.00000000     0.00000000
 Br     1   0   0     4.549452641820     0.00000000     0.00000000

---------------------
BASIS SET INFORMATION
---------------------
There are 2 groups of distinct atoms

 Group   1 Type Ti  : 116s77p23d3f2g contracted to 8s7p5d3f2g pattern {19191919191911/151515151511/77711/111/11}
 Group   2 Type Br  : 75s36p10d2f contracted to 7s6p4d2f pattern {18181818111/111111111/7111/11}

Atom   0Ti   basis set group =>   1
Atom   1Br   basis set group =>   2
----------------------------------
AUXILIARY/JK BASIS SET INFORMATION
----------------------------------
There are 2 groups of distinct atoms

 Group   1 Type Ti  : 19s14p12d10f7g3h1i contracted to 16s13p11d9f5g3h1i pattern {4111111111111111/2111111111111/21111111111/211111111/31111/111/1}
 Group   2 Type Br  : 20s14p13d10f7g3h contracted to 17s13p12d9f6g3h pattern {41111111111111111/2111111111111/211111111111/211111111/211111/111}

Atom   0Ti   basis set group =>   1
Atom   1Br   basis set group =>   2


           ************************************************************
           *        Program running with 24 parallel MPI-processes    *
           *              working on a common directory               *
           ************************************************************
------------------------------------------------------------------------------
                           ORCA GTO INTEGRAL CALCULATION
------------------------------------------------------------------------------

                         BASIS SET STATISTICS AND STARTUP INFO

 # of primitive gaussian shells          ...  344
 # of primitive gaussian functions       ...  748
 # of contracted shells                  ...   44
 # of contracted basis functions         ...  152
 Highest angular momentum                ...    4
 Maximum contraction depth               ...   19
 Integral package used                   ... LIBINT
 Integral threshhold            Thresh   ...  1.000e-10
 Primitive cut-off              TCut     ...  1.000e-11


------------------------------ INTEGRAL EVALUATION ----------------------------


 * One electron integrals 
 Pre-screening matrix                    ... done
 Shell pair data                         ... done (   0.002 sec)



           ************************************************************
           *        Program running with 24 parallel MPI-processes    *
           *              working on a common directory               *
           ************************************************************
-------------------------------------------------------------------------------
                                 ORCA SCF
-------------------------------------------------------------------------------

------------
SCF SETTINGS
------------
Hamiltonian:
 Density Functional     Method          .... DFT(GTOs)
 Exchange Functional    Exchange        .... TPSS
 Correlation Functional Correlation     .... TPSS
 LDA part of GGA corr.  LDAOpt          .... PW91-LDA
 Gradients option       PostSCFGGA      .... off
 Hybrid DFT is turned on
   Fraction HF Exchange ScalHFX         ....  0.100000
   Scaling of DF-GGA-X  ScalDFX         ....  0.900000
   Scaling of DF-GGA-C  ScalDFC         ....  1.000000
   Scaling of DF-LDA-C  ScalLDAC        ....  1.000000
   Perturbative correction              ....  0.000000
   Density functional embedding theory  .... OFF
   NL short-range parameter             ....  5.200000


General Settings:
 Integral files         IntName         .... 10_TiBr
 Hartree-Fock type      HFTyp           .... UHF
 Total Charge           Charge          ....    0
 Multiplicity           Mult            ....    4
 Number of Electrons    NEL             ....   57
 Basis Dimension        Dim             ....  152
 Nuclear Repulsion      ENuc            ....    169.2511298880 Eh

Convergence Acceleration:
 DIIS                   CNVDIIS         .... on
   Start iteration      DIISMaxIt       ....    12
   Startup error        DIISStart       ....  0.200000
   # of expansion vecs  DIISMaxEq       ....     5
   Bias factor          DIISBfac        ....   1.050
   Max. coefficient     DIISMaxC        ....  10.000
 Newton-Raphson         CNVNR           .... off
 SOSCF                  CNVSOSCF        .... off
 Level Shifting         CNVShift        .... on
   Level shift para.    LevelShift      ....    0.2500
   Turn off err/grad.   ShiftErr        ....    0.0010
 Zerner damping         CNVZerner       .... off
 Static damping         CNVDamp         .... on
   Fraction old density DampFac         ....    0.7000
   Max. Damping (<1)    DampMax         ....    0.9800
   Min. Damping (>=0)   DampMin         ....    0.0000
   Turn off err/grad.   DampErr         ....    0.1000
 Fernandez-Rico         CNVRico         .... off

SCF Procedure:
 Maximum # iterations   MaxIter         ....   125
 SCF integral mode      SCFMode         .... Direct
   Integral package                     .... LIBINT
 Reset frequency        DirectResetFreq ....    20
 Integral Threshold     Thresh          ....  1.000e-10 Eh
 Primitive CutOff       TCut            ....  1.000e-11 Eh

Convergence Tolerance:
 Convergence Check Mode ConvCheckMode   .... Total+1el-Energy
 Convergence forced     ConvForced      .... 0
 Energy Change          TolE            ....  1.000e-06 Eh
 1-El. energy change                    ....  1.000e-03 Eh
 DIIS Error             TolErr          ....  1.000e-06


Diagonalization of the overlap matrix:
Smallest eigenvalue                        ... 4.839e-05
Time for diagonalization                   ...    0.006 sec
Threshold for overlap eigenvalues          ... 1.000e-08
Number of eigenvalues below threshold      ... 0
Time for construction of square roots      ...    0.003 sec
Total time needed                          ...    0.009 sec

-------------------
DFT GRID GENERATION
-------------------

General Integration Accuracy     IntAcc      ...  4.670
Radial Grid Type                 RadialGrid  ... Gauss-Chebyshev
Angular Grid (max. acc.)         AngularGrid ... Lebedev-302
Angular grid pruning method      GridPruning ... 3 (G Style)
Weight generation scheme         WeightScheme... Becke
Basis function cutoff            BFCut       ...    1.0000e-10
Integration weight cutoff        WCut        ...    1.0000e-14
Grids for H and He will be reduced by one unit

# of grid points (after initial pruning)     ...  19280 (   0.0 sec)
# of grid points (after weights+screening)   ...  19254 (   0.0 sec)
nearest neighbour list constructed           ...    0.0 sec
Grid point re-assignment to atoms done       ...    0.0 sec
Grid point division into batches done        ...    0.2 sec
Reduced shell lists constructed in    0.2 sec

Total number of grid points                  ...    19254
Total number of batches                      ...      302
Average number of points per batch           ...       63
Average number of grid points per atom       ...     9627
Average number of shells per batch           ...    20.07 (45.62%)
Average number of basis functions per batch  ...    56.93 (37.45%)
Average number of large shells per batch     ...    13.36 (66.55%)
Average number of large basis fcns per batch ...    38.07 (66.88%)
Maximum spatial batch extension              ...  24.49, 24.19, 17.83 au
Average spatial batch extension              ...   0.84,  0.83,  0.67 au

Time for grid setup =    0.202 sec

------------------------------
INITIAL GUESS: MODEL POTENTIAL
------------------------------
Loading Hartree-Fock densities                     ... done
Calculating cut-offs                               ... done
Setting up the integral package                    ... done
Initializing the effective Hamiltonian             ... done
Starting the Coulomb interaction                   ... done (   0.0 sec)
Reading the grid                                   ... done
Mapping shells                                     ... done
Starting the XC term evaluation                    ... done (   0.0 sec)
  promolecular density results
     # of electrons  =     56.999997824
     EX              =   -130.119769711
     EC              =     -2.607148094
     EX+EC           =   -132.726917805
Transforming the Hamiltonian                       ... done (   0.0 sec)
Diagonalizing the Hamiltonian                      ... done (   0.0 sec)
Back transforming the eigenvectors                 ... done (   0.0 sec)
Now organizing SCF variables                       ... done
                      ------------------
                      INITIAL GUESS DONE (   0.3 sec)
                      ------------------
--------------
SCF ITERATIONS
--------------
ITER       Energy         Delta-E        Max-DP      RMS-DP      [F,P]     Damp
               ***  Starting incremental Fock matrix formation  ***
  0  -3423.5458740548   0.000000000000 0.16209409  0.00260235  0.1062016 0.7000
  1  -3423.5677279564  -0.021853901528 0.06394929  0.00118716  0.0391488 0.7000
                               ***Turning on DIIS***
  2  -3423.5761545570  -0.008426600615 0.07250992  0.00146222  0.0274765 0.0000
  3  -3423.5888062446  -0.012651687630 0.05292284  0.00099204  0.0319347 0.0000
  4  -3423.5928538913  -0.004047646638 0.03918329  0.00067785  0.0095892 0.0000
  5  -3423.5933096272  -0.000455735952 0.00830631  0.00016858  0.0025737 0.0000
  6  -3423.5933913155  -0.000081688294 0.00361485  0.00005143  0.0012868 0.0000
  7  -3423.5934255986  -0.000034283094 0.01334743  0.00010486  0.0009103 0.0000
  8  -3423.5934653193  -0.000039720684 0.00144260  0.00002717  0.0015513 0.0000
  9  -3423.5934700033  -0.000004683986 0.00334941  0.00003738  0.0007928 0.0000
 10  -3423.5934747561  -0.000004752875 0.00194885  0.00002103  0.0002656 0.0000
 11  -3423.5934754277  -0.000000671561 0.00062866  0.00000680  0.0001844 0.0000
 12  -3423.5934756578  -0.000000230088 0.00024861  0.00000418  0.0000896 0.0000
 13  -3423.5934756803  -0.000000022469 0.00007149  0.00000089  0.0000236 0.0000
                 **** Energy Check signals convergence ****

               *****************************************************
               *                     SUCCESS                       *
               *           SCF CONVERGED AFTER  14 CYCLES          *
               *****************************************************


----------------
TOTAL SCF ENERGY
----------------

Total Energy       :        -3423.59347568 Eh          -93160.71467 eV

Components:
Nuclear Repulsion  :          169.25112989 Eh            4605.55739 eV
Electronic Energy  :        -3592.84460557 Eh          -97766.27206 eV
One Electron Energy:        -5086.50654809 Eh         -138410.87985 eV
Two Electron Energy:         1493.66194252 Eh           40644.60779 eV

Virial components:
Potential Energy   :        -6842.12431553 Eh         -186183.66802 eV
Kinetic Energy     :         3418.53083985 Eh           93022.95335 eV
Virial Ratio       :            2.00148094


DFT components:
N(Alpha)           :       30.000002681991 electrons
N(Beta)            :       27.000001962625 electrons
N(Total)           :       57.000004644616 electrons
E(X)               :     -117.731838152762 Eh       
E(C)               :       -2.612439130693 Eh       
E(XC)              :     -120.344277283455 Eh       
DFET-embed. en.    :        0.000000000000 Eh       

---------------
SCF CONVERGENCE
---------------

  Last Energy change         ...   -2.3565e-09  Tolerance :   1.0000e-06
  Last MAX-Density change    ...    1.9950e-05  Tolerance :   1.0000e-05
  Last RMS-Density change    ...    2.3065e-07  Tolerance :   1.0000e-06
  Last DIIS Error            ...    7.7516e-06  Tolerance :   1.0000e-06

             **** THE GBW FILE WAS UPDATED (10_TiBr.gbw) ****
             **** DENSITY FILE WAS UPDATED (10_TiBr.scfp) ****
             **** ENERGY FILE WAS UPDATED (10_TiBr.en.tmp) ****
----------------------
UHF SPIN CONTAMINATION
----------------------

Warning: in a DFT calculation there is little theoretical justification to 
         calculate <S**2> as in Hartree-Fock theory. We will do it anyways
         but you should keep in mind that the values have only limited relevance

Expectation value of <S**2>     :     3.759349
Ideal value S*(S+1) for S=1.5   :     3.750000
Deviation                       :     0.009349

             **** THE GBW FILE WAS UPDATED (10_TiBr.gbw) ****
             **** DENSITY FILE WAS UPDATED (10_TiBr.scfp) ****
----------------
ORBITAL ENERGIES
----------------
                 SPIN UP ORBITALS
  NO   OCC          E(Eh)            E(eV) 
   0   1.0000    -482.522932    -13130.1165 
   1   1.0000    -178.619792     -4860.4917 
   2   1.0000     -62.236671     -1693.5459 
   3   1.0000     -56.020674     -1524.4000 
   4   1.0000     -56.020228     -1524.3879 
   5   1.0000     -56.020228     -1524.3879 
   6   1.0000     -19.699937      -536.0625 
   7   1.0000     -16.399991      -446.2664 
   8   1.0000     -16.389199      -445.9728 
   9   1.0000     -16.389199      -445.9728 
  10   1.0000      -8.578941      -233.4449 
  11   1.0000      -6.393203      -173.9679 
  12   1.0000      -6.391506      -173.9217 
  13   1.0000      -6.391506      -173.9217 
  14   1.0000      -2.518877       -68.5421 
  15   1.0000      -2.518201       -68.5237 
  16   1.0000      -2.518201       -68.5237 
  17   1.0000      -2.516815       -68.4860 
  18   1.0000      -2.516776       -68.4849 
  19   1.0000      -2.307886       -62.8008 
  20   1.0000      -1.440083       -39.1867 
  21   1.0000      -1.425057       -38.7778 
  22   1.0000      -1.425057       -38.7778 
  23   1.0000      -0.699069       -19.0226 
  24   1.0000      -0.297763        -8.1026 
  25   1.0000      -0.264369        -7.1939 
  26   1.0000      -0.264369        -7.1939 
  27   1.0000      -0.171222        -4.6592 
  28   1.0000      -0.143042        -3.8924 
  29   1.0000      -0.143040        -3.8923 
  30   0.0000      -0.092749        -2.5238 
  31   0.0000      -0.081755        -2.2247 
  32   0.0000      -0.081755        -2.2247 
  33   0.0000      -0.031627        -0.8606 
  34   0.0000      -0.031627        -0.8606 
  35   0.0000      -0.001134        -0.0309 
  36   0.0000       0.004304         0.1171 
  37   0.0000       0.020739         0.5643 
  38   0.0000       0.020739         0.5643 
  39   0.0000       0.029503         0.8028 
  40   0.0000       0.029508         0.8029 
  41   0.0000       0.032463         0.8834 
  42   0.0000       0.032553         0.8858 
  43   0.0000       0.032554         0.8858 
  44   0.0000       0.050247         1.3673 
  45   0.0000       0.079638         2.1671 
  46   0.0000       0.102164         2.7800 
  47   0.0000       0.104519         2.8441 
  48   0.0000       0.104519         2.8441 
  49   0.0000       0.123671         3.3653 
  50   0.0000       0.123671         3.3653 
  51   0.0000       0.126962         3.4548 
  52   0.0000       0.126966         3.4549 
  53   0.0000       0.131141         3.5685 
  54   0.0000       0.139528         3.7968 
  55   0.0000       0.139528         3.7968 
  56   0.0000       0.168733         4.5914 
  57   0.0000       0.189624         5.1599 
  58   0.0000       0.189626         5.1600 
  59   0.0000       0.227999         6.2042 
  60   0.0000       0.237282         6.4568 
  61   0.0000       0.237282         6.4568 
  62   0.0000       0.270128         7.3506 
  63   0.0000       0.270128         7.3506 
  64   0.0000       0.292591         7.9618 
  65   0.0000       0.309132         8.4119 
  66   0.0000       0.309135         8.4120 
  67   0.0000       0.318984         8.6800 
  68   0.0000       0.318985         8.6800 
  69   0.0000       0.354814         9.6550 
  70   0.0000       0.409224        11.1355 
  71   0.0000       0.479383        13.0447 
  72   0.0000       0.479383        13.0447 
  73   0.0000       0.503569        13.7028 
  74   0.0000       0.503569        13.7028 
  75   0.0000       0.505367        13.7517 
  76   0.0000       0.505367        13.7517 
  77   0.0000       0.569433        15.4951 
  78   0.0000       0.612195        16.6587 
  79   0.0000       0.625595        17.0233 
  80   0.0000       0.628456        17.1012 
  81   0.0000       0.628456        17.1012 
  82   0.0000       0.629833        17.1386 
  83   0.0000       0.629839        17.1388 
  84   0.0000       0.667497        18.1635 
  85   0.0000       0.667497        18.1635 
  86   0.0000       0.765633        20.8339 
  87   0.0000       0.765633        20.8339 
  88   0.0000       0.773767        21.0553 
  89   0.0000       0.818704        22.2781 
  90   0.0000       0.818709        22.2782 
  91   0.0000       0.880900        23.9705 
  92   0.0000       0.880900        23.9705 
  93   0.0000       0.887495        24.1500 
  94   0.0000       0.887495        24.1500 
  95   0.0000       0.895029        24.3550 
  96   0.0000       0.895029        24.3550 
  97   0.0000       0.930451        25.3188 
  98   0.0000       0.930451        25.3189 
  99   0.0000       0.951144        25.8819 
 100   0.0000       0.960361        26.1328 
 101   0.0000       0.960361        26.1328 
 102   0.0000       1.051960        28.6253 
 103   0.0000       1.078776        29.3550 
 104   0.0000       1.078776        29.3550 
 105   0.0000       1.179914        32.1071 
 106   0.0000       1.179918        32.1072 
 107   0.0000       1.261917        34.3385 
 108   0.0000       1.400198        38.1013 
 109   0.0000       1.400198        38.1013 
 110   0.0000       1.627095        44.2755 
 111   0.0000       1.858032        50.5596 
 112   0.0000       1.858032        50.5596 
 113   0.0000       1.865557        50.7644 
 114   0.0000       1.951354        53.0991 
 115   0.0000       1.951354        53.0991 
 116   0.0000       1.971000        53.6336 
 117   0.0000       2.026163        55.1347 
 118   0.0000       2.026208        55.1359 
 119   0.0000       2.065818        56.2138 
 120   0.0000       2.065818        56.2138 
 121   0.0000       2.089803        56.8664 
 122   0.0000       2.089826        56.8671 
 123   0.0000       2.144093        58.3437 
 124   0.0000       2.144136        58.3449 
 125   0.0000       2.160064        58.7783 
 126   0.0000       2.160064        58.7783 
 127   0.0000       2.171768        59.0968 
 128   0.0000       2.215411        60.2844 
 129   0.0000       2.215411        60.2844 
 130   0.0000       2.235441        60.8295 
 131   0.0000       2.276227        61.9393 
 132   0.0000       2.276227        61.9393 
 133   0.0000       2.524455        68.6939 
 134   0.0000       2.811212        76.4970 
 135   0.0000       3.231704        87.9391 
 136   0.0000       3.231814        87.9421 
 137   0.0000       3.241867        88.2157 
 138   0.0000       3.241867        88.2157 
 139   0.0000       3.269723        88.9737 
 140   0.0000       3.269769        88.9749 
 141   0.0000       3.289558        89.5134 
 142   0.0000       3.289558        89.5134 
 143   0.0000       3.426075        93.2282 
 144   0.0000       3.426075        93.2282 
 145   0.0000       3.431372        93.3724 
 146   0.0000       3.451275        93.9140 
 147   0.0000       3.451286        93.9143 
 148   0.0000       3.606498        98.1378 
 149   0.0000       3.606498        98.1378 
 150   0.0000       4.019988       109.3894 
 151   0.0000       4.504040       122.5612 

                 SPIN DOWN ORBITALS
  NO   OCC          E(Eh)            E(eV) 
   0   1.0000    -482.523162    -13130.1228 
   1   1.0000    -178.619258     -4860.4771 
   2   1.0000     -62.236745     -1693.5479 
   3   1.0000     -56.020935     -1524.4071 
   4   1.0000     -56.020391     -1524.3923 
   5   1.0000     -56.020391     -1524.3923 
   6   1.0000     -19.677140      -535.4422 
   7   1.0000     -16.389567      -445.9828 
   8   1.0000     -16.365909      -445.3390 
   9   1.0000     -16.365909      -445.3390 
  10   1.0000      -8.579256      -233.4534 
  11   1.0000      -6.393689      -173.9811 
  12   1.0000      -6.391829      -173.9305 
  13   1.0000      -6.391829      -173.9305 
  14   1.0000      -2.519324       -68.5543 
  15   1.0000      -2.518635       -68.5356 
  16   1.0000      -2.518635       -68.5356 
  17   1.0000      -2.517143       -68.4949 
  18   1.0000      -2.517103       -68.4939 
  19   1.0000      -2.230872       -60.7051 
  20   1.0000      -1.391961       -37.8772 
  21   1.0000      -1.325567       -36.0705 
  22   1.0000      -1.325567       -36.0705 
  23   1.0000      -0.701473       -19.0881 
  24   1.0000      -0.294213        -8.0059 
  25   1.0000      -0.264372        -7.1939 
  26   1.0000      -0.264372        -7.1939 
  27   0.0000      -0.088824        -2.4170 
  28   0.0000      -0.043934        -1.1955 
  29   0.0000      -0.043934        -1.1955 
  30   0.0000      -0.041941        -1.1413 
  31   0.0000      -0.005636        -0.1534 
  32   0.0000      -0.005636        -0.1534 
  33   0.0000       0.000495         0.0135 
  34   0.0000       0.000495         0.0135 
  35   0.0000       0.012778         0.3477 
  36   0.0000       0.013784         0.3751 
  37   0.0000       0.033929         0.9233 
  38   0.0000       0.033929         0.9233 
  39   0.0000       0.042672         1.1612 
  40   0.0000       0.042672         1.1612 
  41   0.0000       0.043002         1.1702 
  42   0.0000       0.047372         1.2891 
  43   0.0000       0.047383         1.2894 
  44   0.0000       0.061238         1.6664 
  45   0.0000       0.101659         2.7663 
  46   0.0000       0.107582         2.9275 
  47   0.0000       0.108614         2.9555 
  48   0.0000       0.108614         2.9555 
  49   0.0000       0.151066         4.1107 
  50   0.0000       0.151067         4.1107 
  51   0.0000       0.151458         4.1214 
  52   0.0000       0.156975         4.2715 
  53   0.0000       0.156980         4.2717 
  54   0.0000       0.157906         4.2968 
  55   0.0000       0.157906         4.2968 
  56   0.0000       0.179626         4.8879 
  57   0.0000       0.200029         5.4431 
  58   0.0000       0.200031         5.4431 
  59   0.0000       0.245382         6.6772 
  60   0.0000       0.263444         7.1687 
  61   0.0000       0.263444         7.1687 
  62   0.0000       0.279725         7.6117 
  63   0.0000       0.279725         7.6117 
  64   0.0000       0.299651         8.1539 
  65   0.0000       0.324251         8.8233 
  66   0.0000       0.324253         8.8234 
  67   0.0000       0.332257         9.0412 
  68   0.0000       0.332257         9.0412 
  69   0.0000       0.373888        10.1740 
  70   0.0000       0.433823        11.8049 
  71   0.0000       0.488854        13.3024 
  72   0.0000       0.488854        13.3024 
  73   0.0000       0.537628        14.6296 
  74   0.0000       0.537628        14.6296 
  75   0.0000       0.556476        15.1425 
  76   0.0000       0.556479        15.1426 
  77   0.0000       0.582555        15.8521 
  78   0.0000       0.612341        16.6626 
  79   0.0000       0.633400        17.2357 
  80   0.0000       0.633404        17.2358 
  81   0.0000       0.642080        17.4719 
  82   0.0000       0.645557        17.5665 
  83   0.0000       0.645557        17.5665 
  84   0.0000       0.684926        18.6378 
  85   0.0000       0.684926        18.6378 
  86   0.0000       0.771796        21.0016 
  87   0.0000       0.771796        21.0016 
  88   0.0000       0.791734        21.5442 
  89   0.0000       0.827714        22.5232 
  90   0.0000       0.827716        22.5233 
  91   0.0000       0.895621        24.3711 
  92   0.0000       0.895621        24.3711 
  93   0.0000       0.907976        24.7073 
  94   0.0000       0.907988        24.7076 
  95   0.0000       0.952077        25.9073 
  96   0.0000       0.952077        25.9073 
  97   0.0000       0.957113        26.0444 
  98   0.0000       0.957115        26.0444 
  99   0.0000       0.969735        26.3878 
 100   0.0000       0.988799        26.9066 
 101   0.0000       0.988799        26.9066 
 102   0.0000       1.060086        28.8464 
 103   0.0000       1.087488        29.5921 
 104   0.0000       1.087488        29.5921 
 105   0.0000       1.194290        32.4983 
 106   0.0000       1.194293        32.4984 
 107   0.0000       1.282353        34.8946 
 108   0.0000       1.413715        38.4691 
 109   0.0000       1.413715        38.4691 
 110   0.0000       1.636086        44.5202 
 111   0.0000       1.899723        51.6941 
 112   0.0000       1.901114        51.7319 
 113   0.0000       1.901114        51.7319 
 114   0.0000       1.965001        53.4704 
 115   0.0000       1.965001        53.4704 
 116   0.0000       1.987243        54.0756 
 117   0.0000       2.026949        55.1561 
 118   0.0000       2.027005        55.1576 
 119   0.0000       2.063995        56.1642 
 120   0.0000       2.063995        56.1642 
 121   0.0000       2.120070        57.6900 
 122   0.0000       2.120096        57.6908 
 123   0.0000       2.165208        58.9183 
 124   0.0000       2.165208        58.9183 
 125   0.0000       2.190616        59.6097 
 126   0.0000       2.190620        59.6098 
 127   0.0000       2.206083        60.0306 
 128   0.0000       2.222839        60.4865 
 129   0.0000       2.222839        60.4865 
 130   0.0000       2.240199        60.9589 
 131   0.0000       2.308893        62.8282 
 132   0.0000       2.308893        62.8282 
 133   0.0000       2.562814        69.7377 
 134   0.0000       2.842841        77.3576 
 135   0.0000       3.285930        89.4147 
 136   0.0000       3.285930        89.4147 
 137   0.0000       3.301532        89.8393 
 138   0.0000       3.301552        89.8398 
 139   0.0000       3.304405        89.9174 
 140   0.0000       3.304475        89.9193 
 141   0.0000       3.326125        90.5085 
 142   0.0000       3.326125        90.5085 
 143   0.0000       3.474663        94.5504 
 144   0.0000       3.504016        95.3491 
 145   0.0000       3.504059        95.3503 
 146   0.0000       3.528072        96.0037 
 147   0.0000       3.528072        96.0037 
 148   0.0000       3.660291        99.6016 
 149   0.0000       3.660291        99.6016 
 150   0.0000       4.067512       110.6826 
 151   0.0000       4.505368       122.5973 

                    ********************************
                    * MULLIKEN POPULATION ANALYSIS *
                    ********************************

--------------------------------------------
MULLIKEN ATOMIC CHARGES AND SPIN POPULATIONS
--------------------------------------------
   0 Ti:    0.345638    3.031848
   1 Br:   -0.345638   -0.031848
Sum of atomic charges         :   -0.0000000
Sum of atomic spin populations:    3.0000000

-----------------------------------------------------
MULLIKEN REDUCED ORBITAL CHARGES AND SPIN POPULATIONS
-----------------------------------------------------
CHARGE
  0 Tis       :     6.671916  s :     6.671916
      pz      :     4.095272  p :    12.154370
      px      :     4.029549
      py      :     4.029549
      dz2     :     0.618050  d :     2.798907
      dxz     :     0.093276
      dyz     :     0.093276
      dx2y2   :     0.997152
      dxy     :     0.997152
      f0      :     0.004674  f :     0.020255
      f+1     :     0.007580
      f-1     :     0.007580
      f+2     :     0.000211
      f-2     :     0.000211
      f+3     :     0.000000
      f-3     :     0.000000
      g0      :     0.002361  g :     0.008914
      g+1     :     0.003279
      g-1     :     0.003279
      g+2     :    -0.000003
      g-2     :    -0.000003
      g+3     :     0.000000
      g-3     :     0.000000
      g+4     :     0.000000
      g-4     :     0.000000
  1 Brs       :     8.019911  s :     8.019911
      pz      :     5.585475  p :    17.310509
      px      :     5.862517
      py      :     5.862517
      dz2     :     2.001953  d :    10.012889
      dxz     :     2.003413
      dyz     :     2.003413
      dx2y2   :     2.002055
      dxy     :     2.002055
      f0      :     0.000387  f :     0.002329
      f+1     :     0.000386
      f-1     :     0.000386
      f+2     :     0.000585
      f-2     :     0.000585
      f+3     :     0.000000
      f-3     :     0.000000

SPIN
  0 Tis       :     0.508824  s :     0.508824
      pz      :     0.016954  p :     0.030184
      px      :     0.006615
      py      :     0.006615
      dz2     :     0.467643  d :     2.496984
      dxz     :     0.017518
      dyz     :     0.017518
      dx2y2   :     0.997153
      dxy     :     0.997153
      f0      :    -0.000746  f :    -0.002378
      f+1     :    -0.001027
      f-1     :    -0.001027
      f+2     :     0.000211
      f-2     :     0.000211
      f+3     :    -0.000000
      f-3     :    -0.000000
      g0      :    -0.000191  g :    -0.001766
      g+1     :    -0.000778
      g-1     :    -0.000778
      g+2     :    -0.000009
      g-2     :    -0.000009
      g+3     :    -0.000000
      g-3     :    -0.000000
      g+4     :     0.000000
      g-4     :     0.000000
  1 Brs       :     0.030018  s :     0.030018
      pz      :    -0.024816  p :    -0.071314
      px      :    -0.023249
      py      :    -0.023249
      dz2     :     0.001823  d :     0.007419
      dxz     :     0.000737
      dyz     :     0.000737
      dx2y2   :     0.002061
      dxy     :     0.002061
      f0      :     0.000490  f :     0.002029
      f+1     :     0.000185
      f-1     :     0.000185
      f+2     :     0.000585
      f-2     :     0.000585
      f+3     :     0.000000
      f-3     :     0.000000


                     *******************************
                     * LOEWDIN POPULATION ANALYSIS *
                     *******************************

-------------------------------------------
LOEWDIN ATOMIC CHARGES AND SPIN POPULATIONS
-------------------------------------------
   0 Ti:   -0.279994    2.952826
   1 Br:    0.279994    0.047174

----------------------------------------------------
LOEWDIN REDUCED ORBITAL CHARGES AND SPIN POPULATIONS
----------------------------------------------------
CHARGE
  0 Tis       :     6.508567  s :     6.508567
      pz      :     4.174772  p :    12.244257
      px      :     4.034742
      py      :     4.034742
      dz2     :     0.755838  d :     3.078855
      dxz     :     0.173999
      dyz     :     0.173999
      dx2y2   :     0.987510
      dxy     :     0.987509
      f0      :     0.126020  f :     0.323763
      f+1     :     0.098004
      f-1     :     0.098004
      f+2     :     0.000868
      f-2     :     0.000868
      f+3     :     0.000000
      f-3     :     0.000000
      g0      :     0.039100  g :     0.124552
      g+1     :     0.042527
      g-1     :     0.042527
      g+2     :     0.000199
      g-2     :     0.000199
      g+3     :     0.000000
      g-3     :     0.000000
      g+4     :     0.000000
      g-4     :     0.000000
  1 Brs       :     7.541590  s :     7.541590
      pz      :     5.690406  p :    16.938969
      px      :     5.624282
      py      :     5.624282
      dz2     :     2.115842  d :    10.164685
      dxz     :     2.017503
      dyz     :     2.017503
      dx2y2   :     2.006919
      dxy     :     2.006919
      f0      :     0.047865  f :     0.074763
      f+1     :     0.008944
      f-1     :     0.008944
      f+2     :     0.004505
      f-2     :     0.004505
      f+3     :     0.000000
      f-3     :     0.000000

SPIN
  0 Tis       :     0.488939  s :     0.488939
      pz      :     0.013667  p :     0.023974
      px      :     0.005153
      py      :     0.005153
      dz2     :     0.445850  d :     2.448640
      dxz     :     0.013887
      dyz     :     0.013887
      dx2y2   :     0.987508
      dxy     :     0.987508
      f0      :    -0.000891  f :    -0.005648
      f+1     :    -0.003228
      f-1     :    -0.003228
      f+2     :     0.000850
      f-2     :     0.000850
      f+3     :    -0.000000
      f-3     :    -0.000000
      g0      :    -0.000324  g :    -0.003078
      g+1     :    -0.001520
      g-1     :    -0.001520
      g+2     :     0.000143
      g-2     :     0.000143
      g+3     :    -0.000000
      g-3     :    -0.000000
      g+4     :     0.000000
      g-4     :     0.000000
  1 Brs       :     0.022960  s :     0.022960
      pz      :     0.019981  p :    -0.009811
      px      :    -0.014896
      py      :    -0.014896
      dz2     :     0.007802  d :     0.022724
      dxz     :     0.000466
      dyz     :     0.000466
      dx2y2   :     0.006995
      dxy     :     0.006995
      f0      :     0.002017  f :     0.011301
      f+1     :     0.000138
      f-1     :     0.000138
      f+2     :     0.004505
      f-2     :     0.004505
      f+3     :     0.000000
      f-3     :     0.000000


                      *****************************
                      * MAYER POPULATION ANALYSIS *
                      *****************************

  NA   - Mulliken gross atomic population
  ZA   - Total nuclear charge
  QA   - Mulliken gross atomic charge
  VA   - Mayer's total valence
  BVA  - Mayer's bonded valence
  FA   - Mayer's free valence

  ATOM       NA         ZA         QA         VA         BVA        FA
  0 Ti    21.6544    22.0000     0.3456     4.1562     1.2729     2.8833
  1 Br    35.3456    35.0000    -0.3456     1.2783     1.2729     0.0053

  Mayer bond orders larger than 0.100000
B(  0-Ti,  1-Br) :   1.2729 

-------
TIMINGS
-------

Total SCF time: 0 days 0 hours 2 min 58 sec 

Total time                  ....     178.282 sec
Sum of individual times     ....     177.921 sec  ( 99.8%)

Fock matrix formation       ....     177.478 sec  ( 99.5%)
  XC integration            ....       0.689 sec  (  0.4% of F)
    Basis function eval.    ....       0.117 sec  ( 16.9% of XC)
    Density eval.           ....       0.127 sec  ( 18.4% of XC)
    XC-Functional eval.     ....       0.026 sec  (  3.8% of XC)
    XC-Potential eval.      ....       0.262 sec  ( 38.0% of XC)
Diagonalization             ....       0.080 sec  (  0.0%)
Density matrix formation    ....       0.011 sec  (  0.0%)
Population analysis         ....       0.007 sec  (  0.0%)
Initial guess               ....       0.113 sec  (  0.1%)
Orbital Transformation      ....       0.000 sec  (  0.0%)
Orbital Orthonormalization  ....       0.000 sec  (  0.0%)
DIIS solution               ....       0.030 sec  (  0.0%)
Grid generation             ....       0.202 sec  (  0.1%)


-------------------------------------------------------------------------------
                          DFT DISPERSION CORRECTION                            
                                                                               
                              DFTD3 V3.1  Rev 1                                
                          USING Becke-Johnson damping                          
-------------------------------------------------------------------------------
The TPSSH functional is recognized
Active option DFTDOPT                   ...         4   

molecular C6(AA) [au] = 1175.723241 


            DFT-D V3
 parameters
 s6 scaling factor         :     1.0000 
 a1 scaling factor         :     0.4529 
 s8 scaling factor         :     2.2382 
 a2 scaling factor         :     4.6550 
 ad hoc parameters k1-k3   :    16.0000     1.3333    -4.0000 

 Edisp/kcal,au: -1.168644126342  -0.001862352761 
 E6   /kcal   :  -0.334211660 
 E8   /kcal   :  -0.834432466 
 % E8         :  71.401759285 

-------------------------   ----------------
Dispersion correction           -0.001862353
-------------------------   ----------------


-------------------------   --------------------
FINAL SINGLE POINT ENERGY     -3423.595338035373
-------------------------   --------------------


                            ***************************************
                            *     ORCA property calculations      *
                            ***************************************

                                    ---------------------
                                    Active property flags
                                    ---------------------
   (+) Dipole Moment


------------------------------------------------------------------------------
                       ORCA ELECTRIC PROPERTIES CALCULATION
------------------------------------------------------------------------------

Dipole Moment Calculation                       ... on
Quadrupole Moment Calculation                   ... off
Polarizability Calculation                      ... off
GBWName                                         ... 10_TiBr.gbw
Electron density file                           ... 10_TiBr.scfp
The origin for moment calculation is the CENTER OF MASS  = ( 0.000000,  0.000000  2.459298)

-------------
DIPOLE MOMENT
-------------
                                X             Y             Z
Electronic contribution:      0.00000       0.00000       0.85507
Nuclear contribution   :      0.00000       0.00000      -2.89414
                        -----------------------------------------
Total Dipole Moment    :      0.00000       0.00000      -2.03906
                        -----------------------------------------
Magnitude (a.u.)       :      2.03906
Magnitude (Debye)      :      5.18289



--------------------
Rotational spectrum 
--------------------
 
Rotational constants in cm-1:     0.000000     0.097124     0.097124 
Rotational constants in MHz :     0.000000  2911.693161  2911.693161 

 Dipole components along the rotational axes: 
x,y,z [a.u.] :    -2.039064     0.000000     0.000000 
x,y,z [Debye]:    -5.182890     0.000000     0.000000 

 

Timings for individual modules:

Sum of individual times         ...      183.811 sec (=   3.064 min)
GTO integral calculation        ...        5.067 sec (=   0.084 min)   2.8 %
SCF iterations                  ...      178.745 sec (=   2.979 min)  97.2 %
                             ****ORCA TERMINATED NORMALLY****
TOTAL RUN TIME: 0 days 0 hours 3 minutes 4 seconds 469 msec
