
                                 *****************
                                 * O   R   C   A *
                                 *****************

           --- An Ab Initio, DFT and Semiempirical electronic structure package ---

                  #######################################################
                  #                        -***-                        #
                  #          Department of theory and spectroscopy      #
                  #               Directorship: Frank Neese             #
                  #        Max Planck Institute fuer Kohlenforschung    #
                  #                Kaiser Wilhelm Platz 1               #
                  #                 D-45470 Muelheim/Ruhr               #
                  #                      Germany                        #
                  #                                                     #
                  #                  All rights reserved                #
                  #                        -***-                        #
                  #######################################################


                         Program Version 4.2.0 -  RELEASE  -


 With contributions from (in alphabetic order):
   Daniel Aravena         : Magnetic Suceptibility
   Michael Atanasov       : Ab Initio Ligand Field Theory (pilot matlab implementation)
   Alexander A. Auer      : GIAO ZORA, VPT2
   Ute Becker             : Parallelization
   Giovanni Bistoni       : ED, misc. LED, open-shell LED, HFLED
   Martin Brehm           : Molecular dynamics
   Dmytro Bykov           : SCF Hessian
   Vijay G. Chilkuri      : MRCI spin determinant printing, contributions to CSF-ICE
   Dipayan Datta          : RHF DLPNO-CCSD density
   Achintya Kumar Dutta   : EOM-CC, STEOM-CC
   Dmitry Ganyushin       : Spin-Orbit,Spin-Spin,Magnetic field MRCI
   Miquel Garcia          : C-PCM Hessian, Gaussian charge scheme
   Yang Guo               : DLPNO-NEVPT2, CIM, IAO-localization
   Andreas Hansen         : Spin unrestricted coupled pair/coupled cluster methods
   Benjamin Helmich-Paris : CASSCF linear response (MC-RPA)
   Lee Huntington         : MR-EOM, pCC
   Robert Izsak           : Overlap fitted RIJCOSX, COSX-SCS-MP3, EOM
   Christian Kollmar      : KDIIS, OOCD, Brueckner-CCSD(T), CCSD density
   Simone Kossmann        : Meta GGA functionals, TD-DFT gradient, OOMP2, MP2 Hessian
   Martin Krupicka        : AUTO-CI
   Lucas Lang             : DCDCAS
   Dagmar Lenk            : GEPOL surface, SMD
   Dimitrios Liakos       : Extrapolation schemes; Compound Job, initial MDCI parallelization
   Dimitrios Manganas     : Further ROCIS development; embedding schemes
   Dimitrios Pantazis     : SARC Basis sets
   Taras Petrenko         : DFT Hessian,TD-DFT gradient, ASA, ECA, R-Raman, ABS, FL, XAS/XES, NRVS
   Peter Pinski           : DLPNO-MP2, DLPNO-MP2 Gradient
   Christoph Reimann      : Effective Core Potentials
   Marius Retegan         : Local ZFS, SOC
   Christoph Riplinger    : Optimizer, TS searches, QM/MM, DLPNO-CCSD(T), (RO)-DLPNO pert. Triples
   Tobias Risthaus        : Range-separated hybrids, TD-DFT gradient, RPA, STAB
   Michael Roemelt        : Original ROCIS implementation
   Masaaki Saitow         : Open-shell DLPNO-CCSD energy and density
   Barbara Sandhoefer     : DKH picture change effects
   Avijit Sen             : IP-ROCIS
   Kantharuban Sivalingam : CASSCF convergence, NEVPT2, FIC-MRCI
   Bernardo de Souza      : ESD, SOC TD-DFT
   Georgi Stoychev        : AutoAux, RI-MP2 NMR
   Willem Van den Heuvel  : Paramagnetic NMR
   Boris Wezisla          : Elementary symmetry handling
   Frank Wennmohs         : Technical directorship


 We gratefully acknowledge several colleagues who have allowed us to
 interface, adapt or use parts of their codes:
   Stefan Grimme, W. Hujo, H. Kruse,             : VdW corrections, initial TS optimization,
                  C. Bannwarth                     DFT functionals, gCP, sTDA/sTD-DF
   Ed Valeev, F. Pavosevic, A. Kumar             : LibInt (2-el integral package), F12 methods
   Garnet Chan, S. Sharma, J. Yang, R. Olivares  : DMRG
   Ulf Ekstrom                                   : XCFun DFT Library
   Mihaly Kallay                                 : mrcc  (arbitrary order and MRCC methods)
   Andreas Klamt, Michael Diedenhofen            : otool_cosmo (COSMO solvation model)
   Jiri Pittner, Ondrej Demel                    : Mk-CCSD
   Frank Weinhold                                : gennbo (NPA and NBO analysis)
   Christopher J. Cramer and Donald G. Truhlar   : smd solvation model
   Lars Goerigk                                  : TD-DFT with DH, B97 family of functionals
   V. Asgeirsson, H. Jonsson                     : NEB implementation
   FAccTs GmbH                                   : IRC, NEB, NEB-TS, Multilevel, MM, QM/MM, CI optimization
   S Lehtola, MJT Oliveira, MAL Marques          : LibXC Library


 Your calculation uses the libint2 library for the computation of 2-el integrals
 For citations please refer to: http://libint.valeyev.net

 Your ORCA version has been built with support for libXC version: 4.2.3
 For citations please refer to: https://tddft.org/programs/libxc/

 This ORCA versions uses:
   CBLAS   interface :  Fast vector & matrix operations
   LAPACKE interface :  Fast linear algebra routines
   SCALAPACK package :  Parallel linear algebra routines


Your calculation utilizes the atom-pairwise dispersion correction
with the Becke-Johnson damping scheme (D3BJ)
Cite in your paper:
S.Grimme, S.Ehrlich, L.Goerigk, J Comput Chem, (2011), 32, 1456–1465 
S.Grimme, J.Antony, S.Ehrlich and H.Krieg, J.Chem.Phys., 132, (2010), 154104 
   

----- Orbital basis set information -----
Your calculation utilizes the basis: aug-cc-pVTZ 
    H, B-Ne : Obtained from the ccRepo (grant-hill.group.shef.ac.uk/ccrepo) Feb. 2017
              R. A. Kendall, T. H. Dunning, Jr., R. J. Harrison, J. Chem. Phys. 96, 6796 (1992)
         He : Obtained from the ccRepo (grant-hill.group.shef.ac.uk/ccrepo) Feb. 2017
              D. E. Woon, T. H. Dunning, Jr., J. Chem. Phys. 100, 2975 (1994)
  Li-Be, Na : Obtained from the ccRepo (grant-hill.group.shef.ac.uk/ccrepo) Feb. 2017
              B. P. Prascher, D. E. Woon, K. A. Peterson, T. H. Dunning, Jr., A. K. Wilson, Theor. Chem. Acc. 128, 69 (2011)
         Mg : Obtained from the Peterson Research Group Website (tyr0.chem.wsu.edu/~kipeters) Feb. 2017
              B. P. Prascher, D. E. Woon, K. A. Peterson, T. H. Dunning, Jr., A. K. Wilson, Theor. Chem. Acc. 128, 69 (2011)
      Al-Ar : Obtained from the ccRepo (grant-hill.group.shef.ac.uk/ccrepo) Feb. 2017
              D. E. Woon, T. H. Dunning, Jr., J. Chem. Phys. 98, 1358 (1993)
      Sc-Zn : Obtained from the ccRepo (grant-hill.group.shef.ac.uk/ccrepo) Feb. 2017
              N. B. Balabanov, K. A. Peterson, J. Chem. Phys. 123, 064107 (2005)
              N. B. Balabanov, K. A. Peterson, J. Chem. Phys. 125, 074110 (2006)
      Ga-Kr : Obtained from the ccRepo (grant-hill.group.shef.ac.uk/ccrepo) Feb. 2017
              A. K. Wilson, D. E. Woon, K. A. Peterson, T. H. Dunning, Jr., J. Chem. Phys. 110, 7667 (1999)
     Ag, Au : Obtained from the Peterson Research Group Website (tyr0.chem.wsu.edu/~kipeters) Feb. 2017
              K. A. Peterson, C. Puzzarini, Theor. Chem. Acc. 114, 283 (2005)

----- AuxJK basis set information -----
Your calculation utilizes the auxiliary basis: def2/JK
   H-Ba, Hf-Rn: F. Weigend, J. Comput. Chem. 29, 167 (2008).

================================================================================
                                        WARNINGS
                       Please study these warnings very carefully!
================================================================================


WARNING: your system is open-shell and RHF/RKS was chosen
  ===> : WILL SWITCH to UHF/UKS


INFO   : the flag for use of LIBINT has been found!

================================================================================
                                       INPUT FILE
================================================================================
NAME = 14_VF.in
|  1> #
|  2> # 14_VF tpssh/aug-cc-pvtz
|  3> #
|  4> ! tpssh d3bj aug-cc-pvtz def2/jk grid4 nofinalgrid
|  5> 
|  6> *xyz 0 5
|  7>   V   0.00000000000000      0.00000000000000      0.09137228252025
|  8>   F   0.00000000000000      0.00000000000000      1.90862771747975
|  9> *
| 10> 
| 11> %pal
| 12> nprocs 24
| 13> end
| 14> 
| 15> 
| 16>                          ****END OF INPUT****
================================================================================

                       ****************************
                       * Single Point Calculation *
                       ****************************

---------------------------------
CARTESIAN COORDINATES (ANGSTROEM)
---------------------------------
  V      0.000000    0.000000    0.091372
  F      0.000000    0.000000    1.908628

----------------------------
CARTESIAN COORDINATES (A.U.)
----------------------------
  NO LB      ZA    FRAG     MASS         X           Y           Z
   0 V    23.0000    0    50.940    0.000000    0.000000    0.172669
   1 F     9.0000    0    18.998    0.000000    0.000000    3.606784

--------------------------------
INTERNAL COORDINATES (ANGSTROEM)
--------------------------------
 V      0   0   0     0.000000000000     0.00000000     0.00000000
 F      1   0   0     1.817255434959     0.00000000     0.00000000

---------------------------
INTERNAL COORDINATES (A.U.)
---------------------------
 V      0   0   0     0.000000000000     0.00000000     0.00000000
 F      1   0   0     3.434115087453     0.00000000     0.00000000

---------------------
BASIS SET INFORMATION
---------------------
There are 2 groups of distinct atoms

 Group   1 Type V   : 116s77p23d3f2g contracted to 8s7p5d3f2g pattern {19191919191911/151515151511/77711/111/11}
 Group   2 Type F   : 19s6p3d2f contracted to 5s4p3d2f pattern {88111/3111/111/11}

Atom   0V    basis set group =>   1
Atom   1F    basis set group =>   2
----------------------------------
AUXILIARY/JK BASIS SET INFORMATION
----------------------------------
There are 2 groups of distinct atoms

 Group   1 Type V   : 19s14p12d10f7g3h1i contracted to 16s13p11d9f5g3h1i pattern {4111111111111111/2111111111111/21111111111/211111111/31111/111/1}
 Group   2 Type F   : 14s10p6d2f1g contracted to 10s8p4d2f1g pattern {5111111111/31111111/3111/11/1}

Atom   0V    basis set group =>   1
Atom   1F    basis set group =>   2


           ************************************************************
           *        Program running with 24 parallel MPI-processes    *
           *              working on a common directory               *
           ************************************************************
------------------------------------------------------------------------------
                           ORCA GTO INTEGRAL CALCULATION
------------------------------------------------------------------------------

                         BASIS SET STATISTICS AND STARTUP INFO

 # of primitive gaussian shells          ...  251
 # of primitive gaussian functions       ...  567
 # of contracted shells                  ...   39
 # of contracted basis functions         ...  139
 Highest angular momentum                ...    4
 Maximum contraction depth               ...   19
 Integral package used                   ... LIBINT
 Integral threshhold            Thresh   ...  1.000e-10
 Primitive cut-off              TCut     ...  1.000e-11


------------------------------ INTEGRAL EVALUATION ----------------------------


 * One electron integrals 
 Pre-screening matrix                    ... done
 Shell pair data                         ... done (   0.001 sec)



           ************************************************************
           *        Program running with 24 parallel MPI-processes    *
           *              working on a common directory               *
           ************************************************************
-------------------------------------------------------------------------------
                                 ORCA SCF
-------------------------------------------------------------------------------

------------
SCF SETTINGS
------------
Hamiltonian:
 Density Functional     Method          .... DFT(GTOs)
 Exchange Functional    Exchange        .... TPSS
 Correlation Functional Correlation     .... TPSS
 LDA part of GGA corr.  LDAOpt          .... PW91-LDA
 Gradients option       PostSCFGGA      .... off
 Hybrid DFT is turned on
   Fraction HF Exchange ScalHFX         ....  0.100000
   Scaling of DF-GGA-X  ScalDFX         ....  0.900000
   Scaling of DF-GGA-C  ScalDFC         ....  1.000000
   Scaling of DF-LDA-C  ScalLDAC        ....  1.000000
   Perturbative correction              ....  0.000000
   Density functional embedding theory  .... OFF
   NL short-range parameter             ....  5.200000


General Settings:
 Integral files         IntName         .... 14_VF
 Hartree-Fock type      HFTyp           .... UHF
 Total Charge           Charge          ....    0
 Multiplicity           Mult            ....    5
 Number of Electrons    NEL             ....   32
 Basis Dimension        Dim             ....  139
 Nuclear Repulsion      ENuc            ....     60.2775372195 Eh

Convergence Acceleration:
 DIIS                   CNVDIIS         .... on
   Start iteration      DIISMaxIt       ....    12
   Startup error        DIISStart       ....  0.200000
   # of expansion vecs  DIISMaxEq       ....     5
   Bias factor          DIISBfac        ....   1.050
   Max. coefficient     DIISMaxC        ....  10.000
 Newton-Raphson         CNVNR           .... off
 SOSCF                  CNVSOSCF        .... off
 Level Shifting         CNVShift        .... on
   Level shift para.    LevelShift      ....    0.2500
   Turn off err/grad.   ShiftErr        ....    0.0010
 Zerner damping         CNVZerner       .... off
 Static damping         CNVDamp         .... on
   Fraction old density DampFac         ....    0.7000
   Max. Damping (<1)    DampMax         ....    0.9800
   Min. Damping (>=0)   DampMin         ....    0.0000
   Turn off err/grad.   DampErr         ....    0.1000
 Fernandez-Rico         CNVRico         .... off

SCF Procedure:
 Maximum # iterations   MaxIter         ....   125
 SCF integral mode      SCFMode         .... Direct
   Integral package                     .... LIBINT
 Reset frequency        DirectResetFreq ....    20
 Integral Threshold     Thresh          ....  1.000e-10 Eh
 Primitive CutOff       TCut            ....  1.000e-11 Eh

Convergence Tolerance:
 Convergence Check Mode ConvCheckMode   .... Total+1el-Energy
 Convergence forced     ConvForced      .... 0
 Energy Change          TolE            ....  1.000e-06 Eh
 1-El. energy change                    ....  1.000e-03 Eh
 DIIS Error             TolErr          ....  1.000e-06


Diagonalization of the overlap matrix:
Smallest eigenvalue                        ... 5.885e-05
Time for diagonalization                   ...    0.005 sec
Threshold for overlap eigenvalues          ... 1.000e-08
Number of eigenvalues below threshold      ... 0
Time for construction of square roots      ...    0.003 sec
Total time needed                          ...    0.008 sec

-------------------
DFT GRID GENERATION
-------------------

General Integration Accuracy     IntAcc      ...  4.670
Radial Grid Type                 RadialGrid  ... Gauss-Chebyshev
Angular Grid (max. acc.)         AngularGrid ... Lebedev-302
Angular grid pruning method      GridPruning ... 3 (G Style)
Weight generation scheme         WeightScheme... Becke
Basis function cutoff            BFCut       ...    1.0000e-10
Integration weight cutoff        WCut        ...    1.0000e-14
Grids for H and He will be reduced by one unit

# of grid points (after initial pruning)     ...  15936 (   0.0 sec)
# of grid points (after weights+screening)   ...  15892 (   0.0 sec)
nearest neighbour list constructed           ...    0.0 sec
Grid point re-assignment to atoms done       ...    0.0 sec
Grid point division into batches done        ...    0.1 sec
Reduced shell lists constructed in    0.1 sec

Total number of grid points                  ...    15892
Total number of batches                      ...      250
Average number of points per batch           ...       63
Average number of grid points per atom       ...     7946
Average number of shells per batch           ...    16.92 (43.38%)
Average number of basis functions per batch  ...    44.08 (31.71%)
Average number of large shells per batch     ...    11.33 (67.00%)
Average number of large basis fcns per batch ...    30.00 (68.05%)
Maximum spatial batch extension              ...  28.57, 31.41, 18.56 au
Average spatial batch extension              ...   0.88,  0.94,  0.67 au

Time for grid setup =    0.180 sec

------------------------------
INITIAL GUESS: MODEL POTENTIAL
------------------------------
Loading Hartree-Fock densities                     ... done
Calculating cut-offs                               ... done
Setting up the integral package                    ... done
Initializing the effective Hamiltonian             ... done
Starting the Coulomb interaction                   ... done (   0.0 sec)
Reading the grid                                   ... done
Mapping shells                                     ... done
Starting the XC term evaluation                    ... done (   0.0 sec)
  promolecular density results
     # of electrons  =     32.000010430
     EX              =    -53.906199021
     EC              =     -1.258308765
     EX+EC           =    -55.164507787
Transforming the Hamiltonian                       ... done (   0.0 sec)
Diagonalizing the Hamiltonian                      ... done (   0.0 sec)
Back transforming the eigenvectors                 ... done (   0.0 sec)
Now organizing SCF variables                       ... done
                      ------------------
                      INITIAL GUESS DONE (   0.3 sec)
                      ------------------
--------------
SCF ITERATIONS
--------------
ITER       Energy         Delta-E        Max-DP      RMS-DP      [F,P]     Damp
               ***  Starting incremental Fock matrix formation  ***
  0  -1043.8189390206   0.000000000000 0.11051493  0.00203368  0.2819575 0.7000
  1  -1043.8597842019  -0.040845181258 0.04875566  0.00098655  0.0799296 0.7000
                               ***Turning on DIIS***
  2  -1043.8726251219  -0.012840919996 0.09588052  0.00124289  0.0290088 0.0000
  3  -1043.8993655401  -0.026740418218 0.03158441  0.00063594  0.0399540 0.0000
  4  -1043.9038511462  -0.004485606091 0.01747168  0.00035500  0.0213291 0.0000
  5  -1043.9056002360  -0.001749089838 0.01563668  0.00034353  0.0049803 0.0000
  6  -1043.9061555887  -0.000555352642 0.01328193  0.00016120  0.0038606 0.0000
  7  -1043.9064971142  -0.000341525478 0.01202556  0.00011699  0.0033192 0.0000
  8  -1043.9067273166  -0.000230202464 0.01166773  0.00013251  0.0028561 0.0000
  9  -1043.9069141475  -0.000186830899 0.01002464  0.00010666  0.0023649 0.0000
 10  -1043.9070427456  -0.000128598082 0.00841121  0.00009312  0.0019412 0.0000
 11  -1043.9071311206  -0.000088374951 0.01009975  0.00011243  0.0015727 0.0000
 12  -1043.9071992273  -0.000068106720 0.00530813  0.00004972  0.0012402 0.0000
 13  -1043.9072376350  -0.000038407694 0.02207813  0.00024206  0.0009888 0.0000
 14  -1043.9073104714  -0.000072836474 0.00167739  0.00002027  0.0002611 0.0000
 15  -1043.9073110301  -0.000000558664 0.00039547  0.00000615  0.0001041 0.0000
 16  -1043.9073110866  -0.000000056472 0.00052501  0.00000659  0.0000737 0.0000
 17  -1043.9073111184  -0.000000031863 0.00003086  0.00000066  0.0000291 0.0000
                 **** Energy Check signals convergence ****

               *****************************************************
               *                     SUCCESS                       *
               *           SCF CONVERGED AFTER  18 CYCLES          *
               *****************************************************


----------------
TOTAL SCF ENERGY
----------------

Total Energy       :        -1043.90731112 Eh          -28406.16208 eV

Components:
Nuclear Repulsion  :           60.27753722 Eh            1640.23518 eV
Electronic Energy  :        -1104.18484834 Eh          -30046.39725 eV
One Electron Energy:        -1556.78903174 Eh          -42362.38322 eV
Two Electron Energy:          452.60418340 Eh           12315.98596 eV

Virial components:
Potential Energy   :        -2085.96371222 Eh          -56761.95833 eV
Kinetic Energy     :         1042.05640110 Eh           28355.79625 eV
Virial Ratio       :            2.00177621


DFT components:
N(Alpha)           :       18.000009166947 electrons
N(Beta)            :       14.000009346548 electrons
N(Total)           :       32.000018513495 electrons
E(X)               :      -49.149514517192 Eh       
E(C)               :       -1.256617155939 Eh       
E(XC)              :      -50.406131673130 Eh       
DFET-embed. en.    :        0.000000000000 Eh       

---------------
SCF CONVERGENCE
---------------

  Last Energy change         ...   -3.3065e-09  Tolerance :   1.0000e-06
  Last MAX-Density change    ...    5.3990e-05  Tolerance :   1.0000e-05
  Last RMS-Density change    ...    6.4618e-07  Tolerance :   1.0000e-06
  Last DIIS Error            ...    1.2011e-05  Tolerance :   1.0000e-06

             **** THE GBW FILE WAS UPDATED (14_VF.gbw) ****
             **** DENSITY FILE WAS UPDATED (14_VF.scfp) ****
             **** ENERGY FILE WAS UPDATED (14_VF.en.tmp) ****
----------------------
UHF SPIN CONTAMINATION
----------------------

Warning: in a DFT calculation there is little theoretical justification to 
         calculate <S**2> as in Hartree-Fock theory. We will do it anyways
         but you should keep in mind that the values have only limited relevance

Expectation value of <S**2>     :     6.007689
Ideal value S*(S+1) for S=2.0   :     6.000000
Deviation                       :     0.007689

             **** THE GBW FILE WAS UPDATED (14_VF.gbw) ****
             **** DENSITY FILE WAS UPDATED (14_VF.scfp) ****
----------------
ORBITAL ENERGIES
----------------
                 SPIN UP ORBITALS
  NO   OCC          E(Eh)            E(eV) 
   0   1.0000    -196.633082     -5350.6582 
   1   1.0000     -24.536000      -667.6585 
   2   1.0000     -22.080959      -600.8534 
   3   1.0000     -18.565259      -505.1864 
   4   1.0000     -18.560292      -505.0512 
   5   1.0000     -18.555187      -504.9123 
   6   1.0000      -2.601509       -70.7907 
   7   1.0000      -1.647299       -44.8253 
   8   1.0000      -1.640312       -44.6351 
   9   1.0000      -1.634797       -44.4851 
  10   1.0000      -1.066771       -29.0283 
  11   1.0000      -0.374713       -10.1965 
  12   1.0000      -0.353272        -9.6130 
  13   1.0000      -0.347220        -9.4483 
  14   1.0000      -0.198953        -5.4138 
  15   1.0000      -0.191192        -5.2026 
  16   1.0000      -0.190894        -5.1945 
  17   1.0000      -0.174433        -4.7466 
  18   0.0000      -0.103473        -2.8156 
  19   0.0000      -0.089360        -2.4316 
  20   0.0000      -0.033257        -0.9050 
  21   0.0000      -0.029586        -0.8051 
  22   0.0000       0.002370         0.0645 
  23   0.0000       0.006233         0.1696 
  24   0.0000       0.026059         0.7091 
  25   0.0000       0.026592         0.7236 
  26   0.0000       0.039395         1.0720 
  27   0.0000       0.039543         1.0760 
  28   0.0000       0.044343         1.2066 
  29   0.0000       0.044862         1.2208 
  30   0.0000       0.045982         1.2512 
  31   0.0000       0.061007         1.6601 
  32   0.0000       0.091472         2.4891 
  33   0.0000       0.135685         3.6922 
  34   0.0000       0.136806         3.7227 
  35   0.0000       0.166336         4.5262 
  36   0.0000       0.171818         4.6754 
  37   0.0000       0.174483         4.7479 
  38   0.0000       0.186647         5.0789 
  39   0.0000       0.191870         5.2210 
  40   0.0000       0.225239         6.1291 
  41   0.0000       0.228960         6.2303 
  42   0.0000       0.228968         6.2305 
  43   0.0000       0.231098         6.2885 
  44   0.0000       0.378115        10.2890 
  45   0.0000       0.378802        10.3077 
  46   0.0000       0.378931        10.3112 
  47   0.0000       0.380169        10.3449 
  48   0.0000       0.395811        10.7706 
  49   0.0000       0.480984        13.0882 
  50   0.0000       0.489870        13.3300 
  51   0.0000       0.494191        13.4476 
  52   0.0000       0.533362        14.5135 
  53   0.0000       0.572506        15.5787 
  54   0.0000       0.573418        15.6035 
  55   0.0000       0.669973        18.2309 
  56   0.0000       0.672865        18.3096 
  57   0.0000       0.685123        18.6432 
  58   0.0000       0.702241        19.1090 
  59   0.0000       0.721432        19.6312 
  60   0.0000       0.866438        23.5770 
  61   0.0000       0.876792        23.8587 
  62   0.0000       0.877278        23.8719 
  63   0.0000       0.961006        26.1503 
  64   0.0000       0.961890        26.1744 
  65   0.0000       1.120966        30.5030 
  66   0.0000       1.185065        32.2473 
  67   0.0000       1.189339        32.3636 
  68   0.0000       1.329950        36.1898 
  69   0.0000       1.332445        36.2577 
  70   0.0000       1.332737        36.2656 
  71   0.0000       1.335254        36.3341 
  72   0.0000       1.368531        37.2396 
  73   0.0000       1.470348        40.0102 
  74   0.0000       1.519987        41.3609 
  75   0.0000       1.536388        41.8072 
  76   0.0000       1.597303        43.4648 
  77   0.0000       1.598438        43.4957 
  78   0.0000       1.599895        43.5353 
  79   0.0000       1.599933        43.5364 
  80   0.0000       1.718250        46.7560 
  81   0.0000       1.724576        46.9281 
  82   0.0000       1.933783        52.6209 
  83   0.0000       1.943163        52.8762 
  84   0.0000       1.947862        53.0040 
  85   0.0000       2.115779        57.5733 
  86   0.0000       2.167478        58.9801 
  87   0.0000       2.174544        59.1723 
  88   0.0000       2.294529        62.4373 
  89   0.0000       2.576515        70.1105 
  90   0.0000       2.640259        71.8451 
  91   0.0000       2.640513        71.8520 
  92   0.0000       2.715458        73.8914 
  93   0.0000       2.715478        73.8919 
  94   0.0000       2.743277        74.6484 
  95   0.0000       2.744507        74.6818 
  96   0.0000       2.750476        74.8443 
  97   0.0000       2.767344        75.3033 
  98   0.0000       2.816081        76.6295 
  99   0.0000       2.847032        77.4717 
 100   0.0000       2.849070        77.5271 
 101   0.0000       3.038491        82.6816 
 102   0.0000       3.039490        82.7087 
 103   0.0000       3.264114        88.8211 
 104   0.0000       3.520699        95.8031 
 105   0.0000       3.522850        95.8616 
 106   0.0000       4.030668       109.6800 
 107   0.0000       4.808733       130.8523 
 108   0.0000       4.808943       130.8580 
 109   0.0000       4.828161       131.3809 
 110   0.0000       4.831073       131.4602 
 111   0.0000       4.905723       133.4915 
 112   0.0000       4.905873       133.4956 
 113   0.0000       4.907747       133.5466 
 114   0.0000       5.080988       138.2607 
 115   0.0000       5.089745       138.4990 
 116   0.0000       5.152551       140.2080 
 117   0.0000       5.152568       140.2085 
 118   0.0000       5.156814       140.3240 
 119   0.0000       5.157287       140.3369 
 120   0.0000       5.213730       141.8728 
 121   0.0000       5.218532       142.0035 
 122   0.0000       5.313305       144.5824 
 123   0.0000       5.317446       144.6951 
 124   0.0000       5.412312       147.2765 
 125   0.0000       5.775603       157.1621 
 126   0.0000       8.421936       229.1725 
 127   0.0000       8.421962       229.1732 
 128   0.0000       8.557288       232.8557 
 129   0.0000       8.558137       232.8787 
 130   0.0000       8.806730       239.6433 
 131   0.0000       8.807045       239.6519 
 132   0.0000       8.814124       239.8445 
 133   0.0000       8.876122       241.5316 
 134   0.0000       8.878321       241.5914 
 135   0.0000       8.921500       242.7663 
 136   0.0000       8.922106       242.7829 
 137   0.0000       9.116916       248.0839 
 138   0.0000      13.660406       371.7186 

                 SPIN DOWN ORBITALS
  NO   OCC          E(Eh)            E(eV) 
   0   1.0000    -196.632062     -5350.6304 
   1   1.0000     -24.536955      -667.6845 
   2   1.0000     -22.043252      -599.8274 
   3   1.0000     -18.541431      -504.5380 
   4   1.0000     -18.527338      -504.1545 
   5   1.0000     -18.517354      -503.8828 
   6   1.0000      -2.485852       -67.6435 
   7   1.0000      -1.553817       -42.2815 
   8   1.0000      -1.514362       -41.2079 
   9   1.0000      -1.489063       -40.5195 
  10   1.0000      -1.067247       -29.0413 
  11   1.0000      -0.371023       -10.0960 
  12   1.0000      -0.348589        -9.4856 
  13   1.0000      -0.341925        -9.3043 
  14   0.0000      -0.082446        -2.2435 
  15   0.0000      -0.046453        -1.2640 
  16   0.0000      -0.029520        -0.8033 
  17   0.0000      -0.017898        -0.4870 
  18   0.0000      -0.016094        -0.4379 
  19   0.0000      -0.015736        -0.4282 
  20   0.0000       0.009809         0.2669 
  21   0.0000       0.015090         0.4106 
  22   0.0000       0.019868         0.5406 
  23   0.0000       0.021136         0.5751 
  24   0.0000       0.047201         1.2844 
  25   0.0000       0.050795         1.3822 
  26   0.0000       0.061730         1.6797 
  27   0.0000       0.063166         1.7188 
  28   0.0000       0.063455         1.7267 
  29   0.0000       0.065494         1.7822 
  30   0.0000       0.065508         1.7826 
  31   0.0000       0.077520         2.1094 
  32   0.0000       0.124813         3.3963 
  33   0.0000       0.175028         4.7628 
  34   0.0000       0.178215         4.8495 
  35   0.0000       0.200330         5.4513 
  36   0.0000       0.219942         5.9849 
  37   0.0000       0.221388         6.0243 
  38   0.0000       0.221433         6.0255 
  39   0.0000       0.224793         6.1169 
  40   0.0000       0.235312         6.4032 
  41   0.0000       0.239108         6.5065 
  42   0.0000       0.241468         6.5707 
  43   0.0000       0.256679         6.9846 
  44   0.0000       0.413636        11.2556 
  45   0.0000       0.413730        11.2582 
  46   0.0000       0.425371        11.5749 
  47   0.0000       0.425506        11.5786 
  48   0.0000       0.443392        12.0653 
  49   0.0000       0.513887        13.9836 
  50   0.0000       0.514069        13.9885 
  51   0.0000       0.519747        14.1430 
  52   0.0000       0.567389        15.4394 
  53   0.0000       0.624911        17.0047 
  54   0.0000       0.632756        17.2182 
  55   0.0000       0.738952        20.1079 
  56   0.0000       0.739112        20.1122 
  57   0.0000       0.739889        20.1334 
  58   0.0000       0.752660        20.4809 
  59   0.0000       0.755652        20.5623 
  60   0.0000       0.874006        23.7829 
  61   0.0000       0.887654        24.1543 
  62   0.0000       0.887744        24.1568 
  63   0.0000       0.964097        26.2344 
  64   0.0000       0.966466        26.2989 
  65   0.0000       1.152134        31.3512 
  66   0.0000       1.209483        32.9117 
  67   0.0000       1.216552        33.1041 
  68   0.0000       1.374533        37.4029 
  69   0.0000       1.398430        38.0532 
  70   0.0000       1.399053        38.0702 
  71   0.0000       1.417241        38.5651 
  72   0.0000       1.417329        38.5675 
  73   0.0000       1.506845        41.0033 
  74   0.0000       1.557728        42.3879 
  75   0.0000       1.567389        42.6508 
  76   0.0000       1.642934        44.7065 
  77   0.0000       1.643094        44.7109 
  78   0.0000       1.649876        44.8954 
  79   0.0000       1.649895        44.8959 
  80   0.0000       1.747384        47.5487 
  81   0.0000       1.748716        47.5850 
  82   0.0000       1.957261        53.2598 
  83   0.0000       1.966318        53.5062 
  84   0.0000       1.974450        53.7275 
  85   0.0000       2.188210        59.5442 
  86   0.0000       2.245164        61.0940 
  87   0.0000       2.258001        61.4433 
  88   0.0000       2.328352        63.3577 
  89   0.0000       2.591196        70.5100 
  90   0.0000       2.641827        71.8878 
  91   0.0000       2.641921        71.8903 
  92   0.0000       2.717158        73.9376 
  93   0.0000       2.717165        73.9378 
  94   0.0000       2.814972        76.5993 
  95   0.0000       2.831986        77.0622 
  96   0.0000       2.846819        77.4659 
  97   0.0000       2.848538        77.5126 
  98   0.0000       2.858035        77.7711 
  99   0.0000       2.869503        78.0831 
 100   0.0000       2.871890        78.1481 
 101   0.0000       3.046743        82.9061 
 102   0.0000       3.046966        82.9122 
 103   0.0000       3.284875        89.3860 
 104   0.0000       3.539049        96.3024 
 105   0.0000       3.548709        96.5653 
 106   0.0000       4.064669       110.6053 
 107   0.0000       4.904572       133.4602 
 108   0.0000       4.910370       133.6180 
 109   0.0000       4.939505       134.4108 
 110   0.0000       4.944272       134.5405 
 111   0.0000       4.944324       134.5419 
 112   0.0000       4.946574       134.6031 
 113   0.0000       4.963523       135.0643 
 114   0.0000       5.162208       140.4708 
 115   0.0000       5.194581       141.3517 
 116   0.0000       5.235026       142.4523 
 117   0.0000       5.235064       142.4533 
 118   0.0000       5.242239       142.6486 
 119   0.0000       5.242253       142.6489 
 120   0.0000       5.281708       143.7226 
 121   0.0000       5.283535       143.7723 
 122   0.0000       5.366439       146.0282 
 123   0.0000       5.392426       146.7354 
 124   0.0000       5.467307       148.7730 
 125   0.0000       5.818308       158.3242 
 126   0.0000       8.421171       229.1517 
 127   0.0000       8.421180       229.1520 
 128   0.0000       8.556370       232.8307 
 129   0.0000       8.557130       232.8513 
 130   0.0000       8.806148       239.6275 
 131   0.0000       8.806419       239.6348 
 132   0.0000       8.815429       239.8800 
 133   0.0000       8.875022       241.5016 
 134   0.0000       8.879562       241.6252 
 135   0.0000       8.916891       242.6409 
 136   0.0000       8.922340       242.7892 
 137   0.0000       9.115043       248.0329 
 138   0.0000      13.661992       371.7617 

                    ********************************
                    * MULLIKEN POPULATION ANALYSIS *
                    ********************************

--------------------------------------------
MULLIKEN ATOMIC CHARGES AND SPIN POPULATIONS
--------------------------------------------
   0 V :    0.568627    4.023567
   1 F :   -0.568627   -0.023567
Sum of atomic charges         :   -0.0000000
Sum of atomic spin populations:    4.0000000

-----------------------------------------------------
MULLIKEN REDUCED ORBITAL CHARGES AND SPIN POPULATIONS
-----------------------------------------------------
CHARGE
  0 V s       :     6.746935  s :     6.746935
      pz      :     4.061630  p :    12.125135
      px      :     4.030923
      py      :     4.032582
      dz2     :     0.503960  d :     3.532235
      dxz     :     0.532979
      dyz     :     0.577429
      dx2y2   :     0.998944
      dxy     :     0.918924
      f0      :     0.008663  f :     0.019191
      f+1     :     0.004778
      f-1     :     0.004897
      f+2     :     0.000296
      f-2     :     0.000535
      f+3     :     0.000011
      f-3     :     0.000010
      g0      :     0.003675  g :     0.007878
      g+1     :     0.002065
      g-1     :     0.002081
      g+2     :    -0.000000
      g-2     :     0.000040
      g+3     :     0.000003
      g-3     :     0.000003
      g+4     :     0.000005
      g-4     :     0.000005
  1 F s       :     3.988552  s :     3.988552
      pz      :     1.762756  p :     5.566805
      px      :     1.900526
      py      :     1.903523
      dz2     :     0.003214  d :     0.011416
      dxz     :     0.003651
      dyz     :     0.003630
      dx2y2   :     0.000472
      dxy     :     0.000449
      f0      :     0.000778  f :     0.001853
      f+1     :     0.000451
      f-1     :     0.000458
      f+2     :     0.000089
      f-2     :     0.000078
      f+3     :     0.000000
      f-3     :     0.000000

SPIN
  0 V s       :     0.707864  s :     0.707864
      pz      :     0.045553  p :     0.086295
      px      :     0.019523
      py      :     0.021220
      dz2     :     0.348009  d :     3.227812
      dxz     :     0.458477
      dyz     :     0.503539
      dx2y2   :     0.998944
      dxy     :     0.918842
      f0      :    -0.000402  f :     0.002518
      f+1     :     0.001003
      f-1     :     0.001145
      f+2     :     0.000296
      f-2     :     0.000472
      f+3     :     0.000003
      f-3     :     0.000001
      g0      :    -0.000359  g :    -0.000921
      g+1     :    -0.000313
      g-1     :    -0.000293
      g+2     :    -0.000000
      g-2     :     0.000030
      g+3     :     0.000002
      g-3     :     0.000002
      g+4     :     0.000005
      g-4     :     0.000005
  1 F s       :     0.003746  s :     0.003746
      pz      :    -0.025223  p :    -0.030942
      px      :    -0.004017
      py      :    -0.001702
      dz2     :     0.000918  d :     0.002964
      dxz     :     0.000571
      dyz     :     0.000556
      dx2y2   :     0.000472
      dxy     :     0.000447
      f0      :     0.000215  f :     0.000665
      f+1     :     0.000139
      f-1     :     0.000146
      f+2     :     0.000089
      f-2     :     0.000077
      f+3     :    -0.000000
      f-3     :    -0.000000


                     *******************************
                     * LOEWDIN POPULATION ANALYSIS *
                     *******************************

-------------------------------------------
LOEWDIN ATOMIC CHARGES AND SPIN POPULATIONS
-------------------------------------------
   0 V :    0.330924    3.908507
   1 F :   -0.330924    0.091493

----------------------------------------------------
LOEWDIN REDUCED ORBITAL CHARGES AND SPIN POPULATIONS
----------------------------------------------------
CHARGE
  0 V s       :     6.545197  s :     6.545197
      pz      :     4.080149  p :    12.133058
      px      :     4.025167
      py      :     4.027742
      dz2     :     0.608552  d :     3.656841
      dxz     :     0.549203
      dyz     :     0.590958
      dx2y2   :     0.993866
      dxy     :     0.914262
      f0      :     0.110143  f :     0.240645
      f+1     :     0.064148
      f-1     :     0.064780
      f+2     :     0.000656
      f-2     :     0.000897
      f+3     :     0.000011
      f-3     :     0.000010
      g0      :     0.038048  g :     0.093335
      g+1     :     0.027454
      g-1     :     0.027637
      g+2     :     0.000082
      g-2     :     0.000098
      g+3     :     0.000003
      g-3     :     0.000003
      g+4     :     0.000005
      g-4     :     0.000005
  1 F s       :     3.702331  s :     3.702331
      pz      :     1.868761  p :     5.413631
      px      :     1.771200
      py      :     1.773671
      dz2     :     0.108511  d :     0.182668
      dxz     :     0.032462
      dyz     :     0.033777
      dx2y2   :     0.004129
      dxy     :     0.003790
      f0      :     0.018471  f :     0.032293
      f+1     :     0.005739
      f-1     :     0.006036
      f+2     :     0.001068
      f-2     :     0.000979
      f+3     :     0.000000
      f-3     :     0.000000

SPIN
  0 V s       :     0.648126  s :     0.648126
      pz      :     0.052169  p :     0.109506
      px      :     0.027390
      py      :     0.029948
      dz2     :     0.334177  d :     3.141315
      dxz     :     0.428414
      dyz     :     0.470678
      dx2y2   :     0.993866
      dxy     :     0.914180
      f0      :    -0.000267  f :     0.009124
      f+1     :     0.003657
      f-1     :     0.004240
      f+2     :     0.000656
      f-2     :     0.000835
      f+3     :     0.000003
      f-3     :     0.000001
      g0      :    -0.000516  g :     0.000436
      g+1     :     0.000301
      g-1     :     0.000466
      g+2     :     0.000082
      g-2     :     0.000088
      g+3     :     0.000002
      g-3     :     0.000002
      g+4     :     0.000005
      g-4     :     0.000005
  1 F s       :     0.022945  s :     0.022945
      pz      :     0.021698  p :     0.022843
      px      :    -0.000444
      py      :     0.001589
      dz2     :     0.000761  d :     0.036422
      dxz     :     0.013210
      dyz     :     0.014536
      dx2y2   :     0.004129
      dxy     :     0.003787
      f0      :     0.001230  f :     0.009283
      f+1     :     0.002855
      f-1     :     0.003153
      f+2     :     0.001068
      f-2     :     0.000978
      f+3     :    -0.000000
      f-3     :    -0.000000


                      *****************************
                      * MAYER POPULATION ANALYSIS *
                      *****************************

  NA   - Mulliken gross atomic population
  ZA   - Total nuclear charge
  QA   - Mulliken gross atomic charge
  VA   - Mayer's total valence
  BVA  - Mayer's bonded valence
  FA   - Mayer's free valence

  ATOM       NA         ZA         QA         VA         BVA        FA
  0 V     22.4314    23.0000     0.5686     4.7645     0.8489     3.9156
  1 F      9.5686     9.0000    -0.5686     0.8518     0.8489     0.0029

  Mayer bond orders larger than 0.100000
B(  0-V ,  1-F ) :   0.8489 

-------
TIMINGS
-------

Total SCF time: 0 days 0 hours 2 min 2 sec 

Total time                  ....     122.389 sec
Sum of individual times     ....     122.022 sec  ( 99.7%)

Fock matrix formation       ....     121.596 sec  ( 99.4%)
  XC integration            ....       0.733 sec  (  0.6% of F)
    Basis function eval.    ....       0.090 sec  ( 12.3% of XC)
    Density eval.           ....       0.107 sec  ( 14.5% of XC)
    XC-Functional eval.     ....       0.026 sec  (  3.5% of XC)
    XC-Potential eval.      ....       0.294 sec  ( 40.1% of XC)
Diagonalization             ....       0.096 sec  (  0.1%)
Density matrix formation    ....       0.012 sec  (  0.0%)
Population analysis         ....       0.006 sec  (  0.0%)
Initial guess               ....       0.098 sec  (  0.1%)
Orbital Transformation      ....       0.000 sec  (  0.0%)
Orbital Orthonormalization  ....       0.000 sec  (  0.0%)
DIIS solution               ....       0.034 sec  (  0.0%)
Grid generation             ....       0.180 sec  (  0.1%)


-------------------------------------------------------------------------------
                          DFT DISPERSION CORRECTION                            
                                                                               
                              DFTD3 V3.1  Rev 1                                
                          USING Becke-Johnson damping                          
-------------------------------------------------------------------------------
The TPSSH functional is recognized
Active option DFTDOPT                   ...         4   

molecular C6(AA) [au] = 607.509610 


            DFT-D V3
 parameters
 s6 scaling factor         :     1.0000 
 a1 scaling factor         :     0.4529 
 s8 scaling factor         :     2.2382 
 a2 scaling factor         :     4.6550 
 ad hoc parameters k1-k3   :    16.0000     1.3333    -4.0000 

 Edisp/kcal,au: -0.376057907095  -0.000599286357 
 E6   /kcal   :  -0.140370835 
 E8   /kcal   :  -0.235687072 
 % E8         :  62.673079708 

-------------------------   ----------------
Dispersion correction           -0.000599286
-------------------------   ----------------


-------------------------   --------------------
FINAL SINGLE POINT ENERGY     -1043.907910408112
-------------------------   --------------------


                            ***************************************
                            *     ORCA property calculations      *
                            ***************************************

                                    ---------------------
                                    Active property flags
                                    ---------------------
   (+) Dipole Moment


------------------------------------------------------------------------------
                       ORCA ELECTRIC PROPERTIES CALCULATION
------------------------------------------------------------------------------

Dipole Moment Calculation                       ... on
Quadrupole Moment Calculation                   ... off
Polarizability Calculation                      ... off
GBWName                                         ... 14_VF.gbw
Electron density file                           ... 14_VF.scfp
The origin for moment calculation is the CENTER OF MASS  = ( 0.000000,  0.000000  1.105514)

-------------
DIPOLE MOMENT
-------------
                                X             Y             Z
Electronic contribution:      0.00000       0.00000      -2.40927
Nuclear contribution   :      0.00000       0.00000       1.05599
                        -----------------------------------------
Total Dipole Moment    :      0.00000       0.00000      -1.35328
                        -----------------------------------------
Magnitude (a.u.)       :      1.35328
Magnitude (Debye)      :      3.43977



--------------------
Rotational spectrum 
--------------------
 
Rotational constants in cm-1:     0.000000     0.368902     0.368902 
Rotational constants in MHz :     0.000000 11059.411965 11059.411965 

 Dipole components along the rotational axes: 
x,y,z [a.u.] :    -1.353281     0.000000     0.000000 
x,y,z [Debye]:    -3.439767     0.000000     0.000000 

 

Timings for individual modules:

Sum of individual times         ...      126.006 sec (=   2.100 min)
GTO integral calculation        ...        3.155 sec (=   0.053 min)   2.5 %
SCF iterations                  ...      122.850 sec (=   2.048 min)  97.5 %
                             ****ORCA TERMINATED NORMALLY****
TOTAL RUN TIME: 0 days 0 hours 2 minutes 6 seconds 653 msec
