
                                 *****************
                                 * O   R   C   A *
                                 *****************

           --- An Ab Initio, DFT and Semiempirical electronic structure package ---

                  #######################################################
                  #                        -***-                        #
                  #          Department of theory and spectroscopy      #
                  #               Directorship: Frank Neese             #
                  #        Max Planck Institute fuer Kohlenforschung    #
                  #                Kaiser Wilhelm Platz 1               #
                  #                 D-45470 Muelheim/Ruhr               #
                  #                      Germany                        #
                  #                                                     #
                  #                  All rights reserved                #
                  #                        -***-                        #
                  #######################################################


                         Program Version 4.2.0 -  RELEASE  -


 With contributions from (in alphabetic order):
   Daniel Aravena         : Magnetic Suceptibility
   Michael Atanasov       : Ab Initio Ligand Field Theory (pilot matlab implementation)
   Alexander A. Auer      : GIAO ZORA, VPT2
   Ute Becker             : Parallelization
   Giovanni Bistoni       : ED, misc. LED, open-shell LED, HFLED
   Martin Brehm           : Molecular dynamics
   Dmytro Bykov           : SCF Hessian
   Vijay G. Chilkuri      : MRCI spin determinant printing, contributions to CSF-ICE
   Dipayan Datta          : RHF DLPNO-CCSD density
   Achintya Kumar Dutta   : EOM-CC, STEOM-CC
   Dmitry Ganyushin       : Spin-Orbit,Spin-Spin,Magnetic field MRCI
   Miquel Garcia          : C-PCM Hessian, Gaussian charge scheme
   Yang Guo               : DLPNO-NEVPT2, CIM, IAO-localization
   Andreas Hansen         : Spin unrestricted coupled pair/coupled cluster methods
   Benjamin Helmich-Paris : CASSCF linear response (MC-RPA)
   Lee Huntington         : MR-EOM, pCC
   Robert Izsak           : Overlap fitted RIJCOSX, COSX-SCS-MP3, EOM
   Christian Kollmar      : KDIIS, OOCD, Brueckner-CCSD(T), CCSD density
   Simone Kossmann        : Meta GGA functionals, TD-DFT gradient, OOMP2, MP2 Hessian
   Martin Krupicka        : AUTO-CI
   Lucas Lang             : DCDCAS
   Dagmar Lenk            : GEPOL surface, SMD
   Dimitrios Liakos       : Extrapolation schemes; Compound Job, initial MDCI parallelization
   Dimitrios Manganas     : Further ROCIS development; embedding schemes
   Dimitrios Pantazis     : SARC Basis sets
   Taras Petrenko         : DFT Hessian,TD-DFT gradient, ASA, ECA, R-Raman, ABS, FL, XAS/XES, NRVS
   Peter Pinski           : DLPNO-MP2, DLPNO-MP2 Gradient
   Christoph Reimann      : Effective Core Potentials
   Marius Retegan         : Local ZFS, SOC
   Christoph Riplinger    : Optimizer, TS searches, QM/MM, DLPNO-CCSD(T), (RO)-DLPNO pert. Triples
   Tobias Risthaus        : Range-separated hybrids, TD-DFT gradient, RPA, STAB
   Michael Roemelt        : Original ROCIS implementation
   Masaaki Saitow         : Open-shell DLPNO-CCSD energy and density
   Barbara Sandhoefer     : DKH picture change effects
   Avijit Sen             : IP-ROCIS
   Kantharuban Sivalingam : CASSCF convergence, NEVPT2, FIC-MRCI
   Bernardo de Souza      : ESD, SOC TD-DFT
   Georgi Stoychev        : AutoAux, RI-MP2 NMR
   Willem Van den Heuvel  : Paramagnetic NMR
   Boris Wezisla          : Elementary symmetry handling
   Frank Wennmohs         : Technical directorship


 We gratefully acknowledge several colleagues who have allowed us to
 interface, adapt or use parts of their codes:
   Stefan Grimme, W. Hujo, H. Kruse,             : VdW corrections, initial TS optimization,
                  C. Bannwarth                     DFT functionals, gCP, sTDA/sTD-DF
   Ed Valeev, F. Pavosevic, A. Kumar             : LibInt (2-el integral package), F12 methods
   Garnet Chan, S. Sharma, J. Yang, R. Olivares  : DMRG
   Ulf Ekstrom                                   : XCFun DFT Library
   Mihaly Kallay                                 : mrcc  (arbitrary order and MRCC methods)
   Andreas Klamt, Michael Diedenhofen            : otool_cosmo (COSMO solvation model)
   Jiri Pittner, Ondrej Demel                    : Mk-CCSD
   Frank Weinhold                                : gennbo (NPA and NBO analysis)
   Christopher J. Cramer and Donald G. Truhlar   : smd solvation model
   Lars Goerigk                                  : TD-DFT with DH, B97 family of functionals
   V. Asgeirsson, H. Jonsson                     : NEB implementation
   FAccTs GmbH                                   : IRC, NEB, NEB-TS, Multilevel, MM, QM/MM, CI optimization
   S Lehtola, MJT Oliveira, MAL Marques          : LibXC Library


 Your calculation uses the libint2 library for the computation of 2-el integrals
 For citations please refer to: http://libint.valeyev.net

 Your ORCA version has been built with support for libXC version: 4.2.3
 For citations please refer to: https://tddft.org/programs/libxc/

 This ORCA versions uses:
   CBLAS   interface :  Fast vector & matrix operations
   LAPACKE interface :  Fast linear algebra routines
   SCALAPACK package :  Parallel linear algebra routines


Your calculation utilizes the atom-pairwise dispersion correction
with the Becke-Johnson damping scheme (D3BJ)
Cite in your paper:
S.Grimme, S.Ehrlich, L.Goerigk, J Comput Chem, (2011), 32, 1456–1465 
S.Grimme, J.Antony, S.Ehrlich and H.Krieg, J.Chem.Phys., 132, (2010), 154104 
   

----- Orbital basis set information -----
Your calculation utilizes the basis: aug-cc-pVTZ 
    H, B-Ne : Obtained from the ccRepo (grant-hill.group.shef.ac.uk/ccrepo) Feb. 2017
              R. A. Kendall, T. H. Dunning, Jr., R. J. Harrison, J. Chem. Phys. 96, 6796 (1992)
         He : Obtained from the ccRepo (grant-hill.group.shef.ac.uk/ccrepo) Feb. 2017
              D. E. Woon, T. H. Dunning, Jr., J. Chem. Phys. 100, 2975 (1994)
  Li-Be, Na : Obtained from the ccRepo (grant-hill.group.shef.ac.uk/ccrepo) Feb. 2017
              B. P. Prascher, D. E. Woon, K. A. Peterson, T. H. Dunning, Jr., A. K. Wilson, Theor. Chem. Acc. 128, 69 (2011)
         Mg : Obtained from the Peterson Research Group Website (tyr0.chem.wsu.edu/~kipeters) Feb. 2017
              B. P. Prascher, D. E. Woon, K. A. Peterson, T. H. Dunning, Jr., A. K. Wilson, Theor. Chem. Acc. 128, 69 (2011)
      Al-Ar : Obtained from the ccRepo (grant-hill.group.shef.ac.uk/ccrepo) Feb. 2017
              D. E. Woon, T. H. Dunning, Jr., J. Chem. Phys. 98, 1358 (1993)
      Sc-Zn : Obtained from the ccRepo (grant-hill.group.shef.ac.uk/ccrepo) Feb. 2017
              N. B. Balabanov, K. A. Peterson, J. Chem. Phys. 123, 064107 (2005)
              N. B. Balabanov, K. A. Peterson, J. Chem. Phys. 125, 074110 (2006)
      Ga-Kr : Obtained from the ccRepo (grant-hill.group.shef.ac.uk/ccrepo) Feb. 2017
              A. K. Wilson, D. E. Woon, K. A. Peterson, T. H. Dunning, Jr., J. Chem. Phys. 110, 7667 (1999)
     Ag, Au : Obtained from the Peterson Research Group Website (tyr0.chem.wsu.edu/~kipeters) Feb. 2017
              K. A. Peterson, C. Puzzarini, Theor. Chem. Acc. 114, 283 (2005)

----- AuxJK basis set information -----
Your calculation utilizes the auxiliary basis: def2/JK
   H-Ba, Hf-Rn: F. Weigend, J. Comput. Chem. 29, 167 (2008).

================================================================================
                                        WARNINGS
                       Please study these warnings very carefully!
================================================================================


WARNING: your system is open-shell and RHF/RKS was chosen
  ===> : WILL SWITCH to UHF/UKS


INFO   : the flag for use of LIBINT has been found!

================================================================================
                                       INPUT FILE
================================================================================
NAME = 16_VBr.in
|  1> #
|  2> # 16_VBr tpssh/aug-cc-pvtz
|  3> #
|  4> ! tpssh d3bj aug-cc-pvtz def2/jk grid4 nofinalgrid
|  5> 
|  6> *xyz 0 5
|  7>   V   0.00000000000000      0.00000000000000     -0.18045152200616
|  8>   Br  0.00000000000000      0.00000000000000      2.18045152200616
|  9> *
| 10> 
| 11> %pal
| 12> nprocs 24
| 13> end
| 14> 
| 15> 
| 16>                          ****END OF INPUT****
================================================================================

                       ****************************
                       * Single Point Calculation *
                       ****************************

---------------------------------
CARTESIAN COORDINATES (ANGSTROEM)
---------------------------------
  V      0.000000    0.000000   -0.180452
  Br     0.000000    0.000000    2.180452

----------------------------
CARTESIAN COORDINATES (A.U.)
----------------------------
  NO LB      ZA    FRAG     MASS         X           Y           Z
   0 V    23.0000    0    50.940    0.000000    0.000000   -0.341004
   1 Br   35.0000    0    79.900    0.000000    0.000000    4.120456

--------------------------------
INTERNAL COORDINATES (ANGSTROEM)
--------------------------------
 V      0   0   0     0.000000000000     0.00000000     0.00000000
 Br     1   0   0     2.360903044012     0.00000000     0.00000000

---------------------------
INTERNAL COORDINATES (A.U.)
---------------------------
 V      0   0   0     0.000000000000     0.00000000     0.00000000
 Br     1   0   0     4.461460181924     0.00000000     0.00000000

---------------------
BASIS SET INFORMATION
---------------------
There are 2 groups of distinct atoms

 Group   1 Type V   : 116s77p23d3f2g contracted to 8s7p5d3f2g pattern {19191919191911/151515151511/77711/111/11}
 Group   2 Type Br  : 75s36p10d2f contracted to 7s6p4d2f pattern {18181818111/111111111/7111/11}

Atom   0V    basis set group =>   1
Atom   1Br   basis set group =>   2
----------------------------------
AUXILIARY/JK BASIS SET INFORMATION
----------------------------------
There are 2 groups of distinct atoms

 Group   1 Type V   : 19s14p12d10f7g3h1i contracted to 16s13p11d9f5g3h1i pattern {4111111111111111/2111111111111/21111111111/211111111/31111/111/1}
 Group   2 Type Br  : 20s14p13d10f7g3h contracted to 17s13p12d9f6g3h pattern {41111111111111111/2111111111111/211111111111/211111111/211111/111}

Atom   0V    basis set group =>   1
Atom   1Br   basis set group =>   2


           ************************************************************
           *        Program running with 24 parallel MPI-processes    *
           *              working on a common directory               *
           ************************************************************
------------------------------------------------------------------------------
                           ORCA GTO INTEGRAL CALCULATION
------------------------------------------------------------------------------

                         BASIS SET STATISTICS AND STARTUP INFO

 # of primitive gaussian shells          ...  344
 # of primitive gaussian functions       ...  748
 # of contracted shells                  ...   44
 # of contracted basis functions         ...  152
 Highest angular momentum                ...    4
 Maximum contraction depth               ...   19
 Integral package used                   ... LIBINT
 Integral threshhold            Thresh   ...  1.000e-10
 Primitive cut-off              TCut     ...  1.000e-11


------------------------------ INTEGRAL EVALUATION ----------------------------


 * One electron integrals 
 Pre-screening matrix                    ... done
 Shell pair data                         ... done (   0.002 sec)



           ************************************************************
           *        Program running with 24 parallel MPI-processes    *
           *              working on a common directory               *
           ************************************************************
-------------------------------------------------------------------------------
                                 ORCA SCF
-------------------------------------------------------------------------------

------------
SCF SETTINGS
------------
Hamiltonian:
 Density Functional     Method          .... DFT(GTOs)
 Exchange Functional    Exchange        .... TPSS
 Correlation Functional Correlation     .... TPSS
 LDA part of GGA corr.  LDAOpt          .... PW91-LDA
 Gradients option       PostSCFGGA      .... off
 Hybrid DFT is turned on
   Fraction HF Exchange ScalHFX         ....  0.100000
   Scaling of DF-GGA-X  ScalDFX         ....  0.900000
   Scaling of DF-GGA-C  ScalDFC         ....  1.000000
   Scaling of DF-LDA-C  ScalLDAC        ....  1.000000
   Perturbative correction              ....  0.000000
   Density functional embedding theory  .... OFF
   NL short-range parameter             ....  5.200000


General Settings:
 Integral files         IntName         .... 16_VBr
 Hartree-Fock type      HFTyp           .... UHF
 Total Charge           Charge          ....    0
 Multiplicity           Mult            ....    5
 Number of Electrons    NEL             ....   58
 Basis Dimension        Dim             ....  152
 Nuclear Repulsion      ENuc            ....    180.4342002785 Eh

Convergence Acceleration:
 DIIS                   CNVDIIS         .... on
   Start iteration      DIISMaxIt       ....    12
   Startup error        DIISStart       ....  0.200000
   # of expansion vecs  DIISMaxEq       ....     5
   Bias factor          DIISBfac        ....   1.050
   Max. coefficient     DIISMaxC        ....  10.000
 Newton-Raphson         CNVNR           .... off
 SOSCF                  CNVSOSCF        .... off
 Level Shifting         CNVShift        .... on
   Level shift para.    LevelShift      ....    0.2500
   Turn off err/grad.   ShiftErr        ....    0.0010
 Zerner damping         CNVZerner       .... off
 Static damping         CNVDamp         .... on
   Fraction old density DampFac         ....    0.7000
   Max. Damping (<1)    DampMax         ....    0.9800
   Min. Damping (>=0)   DampMin         ....    0.0000
   Turn off err/grad.   DampErr         ....    0.1000
 Fernandez-Rico         CNVRico         .... off

SCF Procedure:
 Maximum # iterations   MaxIter         ....   125
 SCF integral mode      SCFMode         .... Direct
   Integral package                     .... LIBINT
 Reset frequency        DirectResetFreq ....    20
 Integral Threshold     Thresh          ....  1.000e-10 Eh
 Primitive CutOff       TCut            ....  1.000e-11 Eh

Convergence Tolerance:
 Convergence Check Mode ConvCheckMode   .... Total+1el-Energy
 Convergence forced     ConvForced      .... 0
 Energy Change          TolE            ....  1.000e-06 Eh
 1-El. energy change                    ....  1.000e-03 Eh
 DIIS Error             TolErr          ....  1.000e-06


Diagonalization of the overlap matrix:
Smallest eigenvalue                        ... 6.612e-05
Time for diagonalization                   ...    0.004 sec
Threshold for overlap eigenvalues          ... 1.000e-08
Number of eigenvalues below threshold      ... 0
Time for construction of square roots      ...    0.003 sec
Total time needed                          ...    0.007 sec

-------------------
DFT GRID GENERATION
-------------------

General Integration Accuracy     IntAcc      ...  4.670
Radial Grid Type                 RadialGrid  ... Gauss-Chebyshev
Angular Grid (max. acc.)         AngularGrid ... Lebedev-302
Angular grid pruning method      GridPruning ... 3 (G Style)
Weight generation scheme         WeightScheme... Becke
Basis function cutoff            BFCut       ...    1.0000e-10
Integration weight cutoff        WCut        ...    1.0000e-14
Grids for H and He will be reduced by one unit

# of grid points (after initial pruning)     ...  19280 (   0.0 sec)
# of grid points (after weights+screening)   ...  19253 (   0.0 sec)
nearest neighbour list constructed           ...    0.0 sec
Grid point re-assignment to atoms done       ...    0.0 sec
Grid point division into batches done        ...    0.2 sec
Reduced shell lists constructed in    0.2 sec

Total number of grid points                  ...    19253
Total number of batches                      ...      301
Average number of points per batch           ...       63
Average number of grid points per atom       ...     9626
Average number of shells per batch           ...    19.07 (43.34%)
Average number of basis functions per batch  ...    51.93 (34.16%)
Average number of large shells per batch     ...    11.86 (62.17%)
Average number of large basis fcns per batch ...    31.00 (59.70%)
Maximum spatial batch extension              ...  24.49, 24.19, 17.83 au
Average spatial batch extension              ...   0.84,  0.83,  0.67 au

Time for grid setup =    0.190 sec

------------------------------
INITIAL GUESS: MODEL POTENTIAL
------------------------------
Loading Hartree-Fock densities                     ... done
Calculating cut-offs                               ... done
Setting up the integral package                    ... done
Initializing the effective Hamiltonian             ... done
Starting the Coulomb interaction                   ... done (   0.0 sec)
Reading the grid                                   ... done
Mapping shells                                     ... done
Starting the XC term evaluation                    ... done (   0.0 sec)
  promolecular density results
     # of electrons  =     57.999978244
     EX              =   -133.234787564
     EC              =     -2.668426164
     EX+EC           =   -135.903213729
Transforming the Hamiltonian                       ... done (   0.0 sec)
Diagonalizing the Hamiltonian                      ... done (   0.0 sec)
Back transforming the eigenvectors                 ... done (   0.0 sec)
Now organizing SCF variables                       ... done
                      ------------------
                      INITIAL GUESS DONE (   0.3 sec)
                      ------------------
--------------
SCF ITERATIONS
--------------
ITER       Energy         Delta-E        Max-DP      RMS-DP      [F,P]     Damp
               ***  Starting incremental Fock matrix formation  ***
  0  -3518.0874144845   0.000000000000 0.14409181  0.00228015  0.1268808 0.7000
  1  -3518.1162408586  -0.028826374129 0.04305029  0.00086908  0.0380128 0.7000
                               ***Turning on DIIS***
  2  -3518.1263560956  -0.010115236966 0.07646126  0.00127592  0.0244342 0.0000
  3  -3518.1468469332  -0.020490837647 0.02826514  0.00061121  0.0254958 0.0000
  4  -3518.1507712100  -0.003924276842 0.04762702  0.00083583  0.0174586 0.0000
  5  -3518.1519510440  -0.001179833946 0.01117434  0.00022823  0.0038897 0.0000
  6  -3518.1523842165  -0.000433172556 0.01131860  0.00011326  0.0035075 0.0000
  7  -3518.1527153395  -0.000331122954 0.01088901  0.00010518  0.0030827 0.0000
  8  -3518.1529785299  -0.000263190427 0.01028828  0.00009116  0.0027241 0.0000
  9  -3518.1531831878  -0.000204657886 0.00942485  0.00008633  0.0024109 0.0000
 10  -3518.1533420519  -0.000158864087 0.00906683  0.00008493  0.0021197 0.0000
 11  -3518.1534705605  -0.000128508625 0.00650997  0.00006149  0.0019524 0.0000
 12  -3518.1535524668  -0.000081906272 0.00823263  0.00010852  0.0015714 0.0000
 13  -3518.1536210309  -0.000068564148 0.00565097  0.00005597  0.0026399 0.0000
 14  -3518.1536776331  -0.000056602159 0.00450029  0.00004468  0.0015781 0.0000
 15  -3518.1537138604  -0.000036227285 0.00439436  0.00004726  0.0010459 0.0000
 16  -3518.1537359525  -0.000022092061 0.00281737  0.00002958  0.0013739 0.0000
 17  -3518.1537539112  -0.000017958746 0.01119480  0.00010509  0.0007017 0.0000
 18  -3518.1537818768  -0.000027965600 0.00040381  0.00000681  0.0008238 0.0000
 19  -3518.1537830284  -0.000001151615 0.00086404  0.00000959  0.0003980 0.0000
               *** Restarting incremental Fock matrix formation ***
                                   *** Resetting DIIS ***
 20  -3518.1537838625  -0.000000834123 0.00124093  0.00001926  0.0003124 0.0000
 21  -3518.1537829259   0.000000936609 0.00097872  0.00001647  0.0007576 0.0000
 22  -3518.1537847199  -0.000001793930 0.00066272  0.00000744  0.0001686 0.0000
 23  -3518.1537849828  -0.000000262968 0.00034022  0.00000392  0.0000555 0.0000
 24  -3518.1537850390  -0.000000056152 0.00016182  0.00000204  0.0000232 0.0000
                 **** Energy Check signals convergence ****

               *****************************************************
               *                     SUCCESS                       *
               *           SCF CONVERGED AFTER  25 CYCLES          *
               *****************************************************


----------------
TOTAL SCF ENERGY
----------------

Total Energy       :        -3518.15378505 Eh          -95733.83151 eV

Components:
Nuclear Repulsion  :          180.43420028 Eh            4909.86420 eV
Electronic Energy  :        -3698.58798533 Eh         -100643.69571 eV
One Electron Energy:        -5240.40791852 Eh         -142598.74904 eV
Two Electron Energy:         1541.81993319 Eh           41955.05334 eV

Virial components:
Potential Energy   :        -7031.17609373 Eh         -191328.02844 eV
Kinetic Energy     :         3513.02230868 Eh           95594.19693 eV
Virial Ratio       :            2.00146070


DFT components:
N(Alpha)           :       30.999995890149 electrons
N(Beta)            :       26.999997330722 electrons
N(Total)           :       57.999993220871 electrons
E(X)               :     -120.584564252138 Eh       
E(C)               :       -2.667530560610 Eh       
E(XC)              :     -123.252094812749 Eh       
DFET-embed. en.    :        0.000000000000 Eh       

---------------
SCF CONVERGENCE
---------------

  Last Energy change         ...   -1.4459e-08  Tolerance :   1.0000e-06
  Last MAX-Density change    ...    1.3479e-04  Tolerance :   1.0000e-05
  Last RMS-Density change    ...    1.1559e-06  Tolerance :   1.0000e-06
  Last DIIS Error            ...    1.1487e-05  Tolerance :   1.0000e-06

             **** THE GBW FILE WAS UPDATED (16_VBr.gbw) ****
             **** DENSITY FILE WAS UPDATED (16_VBr.scfp) ****
             **** ENERGY FILE WAS UPDATED (16_VBr.en.tmp) ****
----------------------
UHF SPIN CONTAMINATION
----------------------

Warning: in a DFT calculation there is little theoretical justification to 
         calculate <S**2> as in Hartree-Fock theory. We will do it anyways
         but you should keep in mind that the values have only limited relevance

Expectation value of <S**2>     :     6.015205
Ideal value S*(S+1) for S=2.0   :     6.000000
Deviation                       :     0.015205

             **** THE GBW FILE WAS UPDATED (16_VBr.gbw) ****
             **** DENSITY FILE WAS UPDATED (16_VBr.scfp) ****
----------------
ORBITAL ENERGIES
----------------
                 SPIN UP ORBITALS
  NO   OCC          E(Eh)            E(eV) 
   0   1.0000    -482.524943    -13130.1712 
   1   1.0000    -196.624367     -5350.4210 
   2   1.0000     -62.238682     -1693.6006 
   3   1.0000     -56.022759     -1524.4568 
   4   1.0000     -56.022375     -1524.4463 
   5   1.0000     -56.022041     -1524.4372 
   6   1.0000     -22.067810      -600.4956 
   7   1.0000     -18.550849      -504.7943 
   8   1.0000     -18.548061      -504.7184 
   9   1.0000     -18.543600      -504.5970 
  10   1.0000      -8.581024      -233.5015 
  11   1.0000      -6.395553      -174.0318 
  12   1.0000      -6.394047      -173.9909 
  13   1.0000      -6.392869      -173.9588 
  14   1.0000      -2.593923       -70.5842 
  15   1.0000      -2.521252       -68.6068 
  16   1.0000      -2.520846       -68.5957 
  17   1.0000      -2.519950       -68.5713 
  18   1.0000      -2.518658       -68.5362 
  19   1.0000      -2.518579       -68.5340 
  20   1.0000      -1.639496       -44.6130 
  21   1.0000      -1.634212       -44.4692 
  22   1.0000      -1.627197       -44.2783 
  23   1.0000      -0.702185       -19.1074 
  24   1.0000      -0.306478        -8.3397 
  25   1.0000      -0.273674        -7.4471 
  26   1.0000      -0.269113        -7.3229 
  27   1.0000      -0.202900        -5.5212 
  28   1.0000      -0.189194        -5.1482 
  29   1.0000      -0.188859        -5.1391 
  30   1.0000      -0.172835        -4.7031 
  31   0.0000      -0.107044        -2.9128 
  32   0.0000      -0.102898        -2.8000 
  33   0.0000      -0.036697        -0.9986 
  34   0.0000      -0.032862        -0.8942 
  35   0.0000      -0.000239        -0.0065 
  36   0.0000       0.004067         0.1107 
  37   0.0000       0.022390         0.6093 
  38   0.0000       0.023217         0.6318 
  39   0.0000       0.037246         1.0135 
  40   0.0000       0.037447         1.0190 
  41   0.0000       0.039878         1.0851 
  42   0.0000       0.041572         1.1312 
  43   0.0000       0.042054         1.1444 
  44   0.0000       0.054234         1.4758 
  45   0.0000       0.084632         2.3030 
  46   0.0000       0.101647         2.7659 
  47   0.0000       0.104047         2.8313 
  48   0.0000       0.104546         2.8448 
  49   0.0000       0.134228         3.6525 
  50   0.0000       0.135440         3.6855 
  51   0.0000       0.156114         4.2481 
  52   0.0000       0.163566         4.4509 
  53   0.0000       0.165656         4.5077 
  54   0.0000       0.173798         4.7293 
  55   0.0000       0.181018         4.9257 
  56   0.0000       0.182518         4.9666 
  57   0.0000       0.209051         5.6886 
  58   0.0000       0.209779         5.7084 
  59   0.0000       0.253468         6.8972 
  60   0.0000       0.285262         7.7624 
  61   0.0000       0.285471         7.7681 
  62   0.0000       0.321968         8.7612 
  63   0.0000       0.374032        10.1779 
  64   0.0000       0.374266        10.1843 
  65   0.0000       0.403224        10.9723 
  66   0.0000       0.427640        11.6367 
  67   0.0000       0.430776        11.7220 
  68   0.0000       0.459922        12.5151 
  69   0.0000       0.463064        12.6006 
  70   0.0000       0.514836        14.0094 
  71   0.0000       0.527521        14.3546 
  72   0.0000       0.533995        14.5308 
  73   0.0000       0.572914        15.5898 
  74   0.0000       0.576360        15.6836 
  75   0.0000       0.593867        16.1599 
  76   0.0000       0.610450        16.6112 
  77   0.0000       0.621380        16.9086 
  78   0.0000       0.621892        16.9225 
  79   0.0000       0.629424        17.1275 
  80   0.0000       0.632711        17.2169 
  81   0.0000       0.674086        18.3428 
  82   0.0000       0.676802        18.4167 
  83   0.0000       0.744242        20.2519 
  84   0.0000       0.774215        21.0675 
  85   0.0000       0.779574        21.2133 
  86   0.0000       0.805208        21.9108 
  87   0.0000       0.805234        21.9115 
  88   0.0000       0.839179        22.8352 
  89   0.0000       0.910926        24.7875 
  90   0.0000       0.911507        24.8034 
  91   0.0000       1.084804        29.5190 
  92   0.0000       1.120734        30.4967 
  93   0.0000       1.125474        30.6257 
  94   0.0000       1.331926        36.2435 
  95   0.0000       1.332341        36.2548 
  96   0.0000       1.355490        36.8848 
  97   0.0000       1.361036        37.0357 
  98   0.0000       1.388406        37.7804 
  99   0.0000       1.466316        39.9005 
 100   0.0000       1.482059        40.3289 
 101   0.0000       1.597046        43.4578 
 102   0.0000       1.597094        43.4591 
 103   0.0000       1.612568        43.8802 
 104   0.0000       1.613746        43.9123 
 105   0.0000       1.635856        44.5139 
 106   0.0000       1.736185        47.2440 
 107   0.0000       1.742352        47.4118 
 108   0.0000       1.774749        48.2934 
 109   0.0000       1.787412        48.6379 
 110   0.0000       1.796161        48.8760 
 111   0.0000       1.939855        52.7861 
 112   0.0000       1.940753        52.8106 
 113   0.0000       2.002844        54.5002 
 114   0.0000       2.023367        55.0586 
 115   0.0000       2.023687        55.0673 
 116   0.0000       2.057591        55.9899 
 117   0.0000       2.057602        55.9902 
 118   0.0000       2.112442        57.4825 
 119   0.0000       2.112916        57.4954 
 120   0.0000       2.114237        57.5313 
 121   0.0000       2.116177        57.5841 
 122   0.0000       2.116279        57.5869 
 123   0.0000       2.183202        59.4079 
 124   0.0000       2.187564        59.5267 
 125   0.0000       2.308605        62.8203 
 126   0.0000       2.330476        63.4155 
 127   0.0000       2.331445        63.4418 
 128   0.0000       2.376524        64.6685 
 129   0.0000       2.752319        74.8944 
 130   0.0000       2.755457        74.9798 
 131   0.0000       2.926830        79.6431 
 132   0.0000       2.936725        79.9123 
 133   0.0000       2.943483        80.0963 
 134   0.0000       3.484811        94.8265 
 135   0.0000       4.338166       118.0475 
 136   0.0000       4.811791       130.9355 
 137   0.0000       4.812487       130.9544 
 138   0.0000       4.820532       131.1733 
 139   0.0000       4.823909       131.2652 
 140   0.0000       4.887589       132.9980 
 141   0.0000       4.896423       133.2384 
 142   0.0000       5.153888       140.2444 
 143   0.0000       5.154075       140.2495 
 144   0.0000       5.157169       140.3337 
 145   0.0000       5.157854       140.3524 
 146   0.0000       5.187530       141.1599 
 147   0.0000       5.205653       141.6530 
 148   0.0000       5.210638       141.7887 
 149   0.0000       5.311244       144.5263 
 150   0.0000       5.313242       144.5807 
 151   0.0000       5.421854       147.5361 

                 SPIN DOWN ORBITALS
  NO   OCC          E(Eh)            E(eV) 
   0   1.0000    -482.525141    -13130.1766 
   1   1.0000    -196.623630     -5350.4010 
   2   1.0000     -62.238735     -1693.6021 
   3   1.0000     -56.023034     -1524.4643 
   4   1.0000     -56.022592     -1524.4522 
   5   1.0000     -56.022032     -1524.4370 
   6   1.0000     -22.028877      -599.4362 
   7   1.0000     -18.524279      -504.0713 
   8   1.0000     -18.515121      -503.8221 
   9   1.0000     -18.505458      -503.5591 
  10   1.0000      -8.581284      -233.5086 
  11   1.0000      -6.396089      -174.0464 
  12   1.0000      -6.394460      -174.0021 
  13   1.0000      -6.392862      -173.9586 
  14   1.0000      -2.521816       -68.6221 
  15   1.0000      -2.521385       -68.6104 
  16   1.0000      -2.520195       -68.5780 
  17   1.0000      -2.518835       -68.5410 
  18   1.0000      -2.518705       -68.5375 
  19   1.0000      -2.473013       -67.2941 
  20   1.0000      -1.531145       -41.6646 
  21   1.0000      -1.506459       -40.9928 
  22   1.0000      -1.480256       -40.2798 
  23   1.0000      -0.703948       -19.1554 
  24   1.0000      -0.298219        -8.1149 
  25   1.0000      -0.268560        -7.3079 
  26   1.0000      -0.263960        -7.1827 
  27   0.0000      -0.089251        -2.4286 
  28   0.0000      -0.053436        -1.4541 
  29   0.0000      -0.039106        -1.0641 
  30   0.0000      -0.026166        -0.7120 
  31   0.0000      -0.018360        -0.4996 
  32   0.0000      -0.016184        -0.4404 
  33   0.0000      -0.000760        -0.0207 
  34   0.0000       0.005399         0.1469 
  35   0.0000       0.013274         0.3612 
  36   0.0000       0.016179         0.4403 
  37   0.0000       0.035531         0.9668 
  38   0.0000       0.036767         1.0005 
  39   0.0000       0.052468         1.4277 
  40   0.0000       0.055062         1.4983 
  41   0.0000       0.056692         1.5427 
  42   0.0000       0.057414         1.5623 
  43   0.0000       0.057610         1.5676 
  44   0.0000       0.067931         1.8485 
  45   0.0000       0.105289         2.8651 
  46   0.0000       0.108816         2.9610 
  47   0.0000       0.110366         3.0032 
  48   0.0000       0.114182         3.1071 
  49   0.0000       0.163180         4.4403 
  50   0.0000       0.165421         4.5013 
  51   0.0000       0.181351         4.9348 
  52   0.0000       0.186514         5.0753 
  53   0.0000       0.187012         5.0889 
  54   0.0000       0.193250         5.2586 
  55   0.0000       0.200530         5.4567 
  56   0.0000       0.205286         5.5861 
  57   0.0000       0.225638         6.1399 
  58   0.0000       0.225866         6.1461 
  59   0.0000       0.273419         7.4401 
  60   0.0000       0.293459         7.9854 
  61   0.0000       0.296079         8.0567 
  62   0.0000       0.333294         9.0694 
  63   0.0000       0.404197        10.9988 
  64   0.0000       0.404296        11.0015 
  65   0.0000       0.439257        11.9528 
  66   0.0000       0.450027        12.2459 
  67   0.0000       0.450399        12.2560 
  68   0.0000       0.467712        12.7271 
  69   0.0000       0.469015        12.7625 
  70   0.0000       0.542077        14.7507 
  71   0.0000       0.542440        14.7605 
  72   0.0000       0.556360        15.1393 
  73   0.0000       0.604009        16.4359 
  74   0.0000       0.609716        16.5912 
  75   0.0000       0.610499        16.6125 
  76   0.0000       0.617559        16.8046 
  77   0.0000       0.624020        16.9805 
  78   0.0000       0.624064        16.9816 
  79   0.0000       0.659680        17.9508 
  80   0.0000       0.666039        18.1238 
  81   0.0000       0.737299        20.0629 
  82   0.0000       0.738127        20.0855 
  83   0.0000       0.765948        20.8425 
  84   0.0000       0.797795        21.7091 
  85   0.0000       0.805878        21.9290 
  86   0.0000       0.805892        21.9294 
  87   0.0000       0.806250        21.9392 
  88   0.0000       0.859775        23.3957 
  89   0.0000       0.920598        25.0508 
  90   0.0000       0.920698        25.0535 
  91   0.0000       1.106032        30.0967 
  92   0.0000       1.145875        31.1808 
  93   0.0000       1.151651        31.3380 
  94   0.0000       1.417069        38.5604 
  95   0.0000       1.417130        38.5621 
  96   0.0000       1.420391        38.6508 
  97   0.0000       1.425005        38.7764 
  98   0.0000       1.432217        38.9726 
  99   0.0000       1.511577        41.1321 
 100   0.0000       1.525623        41.5143 
 101   0.0000       1.649295        44.8796 
 102   0.0000       1.649363        44.8815 
 103   0.0000       1.657167        45.0938 
 104   0.0000       1.661081        45.2003 
 105   0.0000       1.661395        45.2088 
 106   0.0000       1.766881        48.0793 
 107   0.0000       1.768317        48.1183 
 108   0.0000       1.798171        48.9307 
 109   0.0000       1.809172        49.2301 
 110   0.0000       1.814821        49.3838 
 111   0.0000       1.944529        52.9133 
 112   0.0000       1.949219        53.0409 
 113   0.0000       2.010746        54.7152 
 114   0.0000       2.024600        55.0922 
 115   0.0000       2.024665        55.0939 
 116   0.0000       2.057119        55.9771 
 117   0.0000       2.057124        55.9772 
 118   0.0000       2.115707        57.5713 
 119   0.0000       2.115730        57.5719 
 120   0.0000       2.130469        57.9730 
 121   0.0000       2.135499        58.1099 
 122   0.0000       2.187057        59.5129 
 123   0.0000       2.232520        60.7499 
 124   0.0000       2.244747        61.0827 
 125   0.0000       2.330808        63.4245 
 126   0.0000       2.352950        64.0270 
 127   0.0000       2.360125        64.2223 
 128   0.0000       2.413865        65.6846 
 129   0.0000       2.856862        77.7392 
 130   0.0000       2.859004        77.7974 
 131   0.0000       2.994416        81.4822 
 132   0.0000       3.000060        81.6358 
 133   0.0000       3.027448        82.3810 
 134   0.0000       3.548231        96.5523 
 135   0.0000       4.345476       118.2464 
 136   0.0000       4.937601       134.3590 
 137   0.0000       4.940395       134.4350 
 138   0.0000       4.951302       134.7318 
 139   0.0000       4.951325       134.7324 
 140   0.0000       4.986515       135.6900 
 141   0.0000       5.021750       136.6488 
 142   0.0000       5.235186       142.4567 
 143   0.0000       5.235245       142.4583 
 144   0.0000       5.246126       142.7544 
 145   0.0000       5.246330       142.7599 
 146   0.0000       5.268401       143.3605 
 147   0.0000       5.277936       143.6200 
 148   0.0000       5.288947       143.9196 
 149   0.0000       5.368747       146.0910 
 150   0.0000       5.395411       146.8166 
 151   0.0000       5.502022       149.7176 

                    ********************************
                    * MULLIKEN POPULATION ANALYSIS *
                    ********************************

--------------------------------------------
MULLIKEN ATOMIC CHARGES AND SPIN POPULATIONS
--------------------------------------------
   0 V :    0.330850    4.051533
   1 Br:   -0.330850   -0.051533
Sum of atomic charges         :   -0.0000000
Sum of atomic spin populations:    4.0000000

-----------------------------------------------------
MULLIKEN REDUCED ORBITAL CHARGES AND SPIN POPULATIONS
-----------------------------------------------------
CHARGE
  0 V s       :     6.688647  s :     6.688647
      pz      :     4.116543  p :    12.207127
      px      :     4.042935
      py      :     4.047649
      dz2     :     0.717041  d :     3.745582
      dxz     :     0.463338
      dyz     :     0.668886
      dx2y2   :     0.993085
      dxy     :     0.903231
      f0      :     0.005947  f :     0.024261
      f+1     :     0.008883
      f-1     :     0.008943
      f+2     :     0.000109
      f-2     :     0.000351
      f+3     :     0.000017
      f-3     :     0.000012
      g0      :     0.001297  g :     0.003533
      g+1     :     0.001087
      g-1     :     0.001093
      g+2     :     0.000003
      g-2     :     0.000038
      g+3     :     0.000005
      g-3     :     0.000002
      g+4     :     0.000005
      g-4     :     0.000005
  1 Brs       :     8.002539  s :     8.002539
      pz      :     5.566466  p :    17.308904
      px      :     5.862376
      py      :     5.880061
      dz2     :     2.001591  d :    10.017154
      dxz     :     2.006308
      dyz     :     2.007036
      dx2y2   :     2.001088
      dxy     :     2.001131
      f0      :    -0.000050  f :     0.002253
      f+1     :     0.000675
      f-1     :     0.000690
      f+2     :     0.000466
      f-2     :     0.000467
      f+3     :     0.000003
      f-3     :     0.000003

SPIN
  0 V s       :     0.512787  s :     0.512787
      pz      :     0.041377  p :     0.081578
      px      :     0.017529
      py      :     0.022671
      dz2     :     0.577646  d :     3.457238
      dxz     :     0.386955
      dyz     :     0.596427
      dx2y2   :     0.993080
      dxy     :     0.903131
      f0      :    -0.000817  f :     0.000377
      f+1     :     0.000251
      f-1     :     0.000557
      f+2     :     0.000103
      f-2     :     0.000278
      f+3     :     0.000007
      f-3     :    -0.000002
      g0      :    -0.000055  g :    -0.000447
      g+1     :    -0.000227
      g-1     :    -0.000205
      g+2     :    -0.000000
      g-2     :     0.000025
      g+3     :     0.000004
      g-3     :     0.000001
      g+4     :     0.000005
      g-4     :     0.000005
  1 Brs       :     0.020888  s :     0.020888
      pz      :    -0.053515  p :    -0.082365
      px      :    -0.020927
      py      :    -0.007923
      dz2     :     0.001580  d :     0.008408
      dxz     :     0.001910
      dyz     :     0.002699
      dx2y2   :     0.001091
      dxy     :     0.001127
      f0      :     0.000337  f :     0.001536
      f+1     :     0.000129
      f-1     :     0.000146
      f+2     :     0.000466
      f-2     :     0.000462
      f+3     :    -0.000002
      f-3     :    -0.000002


                     *******************************
                     * LOEWDIN POPULATION ANALYSIS *
                     *******************************

-------------------------------------------
LOEWDIN ATOMIC CHARGES AND SPIN POPULATIONS
-------------------------------------------
   0 V :   -0.144386    3.917333
   1 Br:    0.144386    0.082667

----------------------------------------------------
LOEWDIN REDUCED ORBITAL CHARGES AND SPIN POPULATIONS
----------------------------------------------------
CHARGE
  0 V s       :     6.504864  s :     6.504864
      pz      :     4.216514  p :    12.345799
      px      :     4.059925
      py      :     4.069360
      dz2     :     0.853874  d :     3.989973
      dxz     :     0.528130
      dyz     :     0.723602
      dx2y2   :     0.986826
      dxy     :     0.897541
      f0      :     0.097756  f :     0.272805
      f+1     :     0.085833
      f-1     :     0.088031
      f+2     :     0.000440
      f-2     :     0.000717
      f+3     :     0.000017
      f-3     :     0.000012
      g0      :     0.012358  g :     0.030944
      g+1     :     0.009144
      g-1     :     0.009358
      g+2     :     0.000026
      g-2     :     0.000042
      g+3     :     0.000005
      g-3     :     0.000002
      g+4     :     0.000005
      g-4     :     0.000005
  1 Brs       :     7.572380  s :     7.572380
      pz      :     5.681316  p :    17.019394
      px      :     5.662755
      py      :     5.675323
      dz2     :     2.112669  d :    10.176739
      dxz     :     2.025410
      dyz     :     2.030961
      dx2y2   :     2.003972
      dxy     :     2.003727
      f0      :     0.048291  f :     0.087102
      f+1     :     0.014406
      f-1     :     0.017723
      f+2     :     0.003486
      f-2     :     0.003191
      f+3     :     0.000003
      f-3     :     0.000003

SPIN
  0 V s       :     0.464115  s :     0.464115
      pz      :     0.037811  p :     0.089819
      px      :     0.021290
      py      :     0.030718
      dz2     :     0.553725  d :     3.362819
      dxz     :     0.363058
      dyz     :     0.561779
      dx2y2   :     0.986818
      dxy     :     0.897439
      f0      :    -0.001019  f :     0.001286
      f+1     :    -0.000351
      f-1     :     0.001615
      f+2     :     0.000413
      f-2     :     0.000623
      f+3     :     0.000007
      f-3     :    -0.000002
      g0      :    -0.000300  g :    -0.000705
      g+1     :    -0.000322
      g-1     :    -0.000148
      g+2     :     0.000022
      g-2     :     0.000028
      g+3     :     0.000004
      g-3     :     0.000001
      g+4     :     0.000005
      g-4     :     0.000005
  1 Brs       :     0.022468  s :     0.022468
      pz      :     0.009951  p :    -0.008786
      px      :    -0.014136
      py      :    -0.004601
      dz2     :     0.011013  d :     0.044535
      dxz     :     0.010098
      dyz     :     0.015676
      dx2y2   :     0.004001
      dxy     :     0.003748
      f0      :     0.002464  f :     0.024449
      f+1     :     0.005985
      f-1     :     0.009334
      f+2     :     0.003485
      f-2     :     0.003185
      f+3     :    -0.000002
      f-3     :    -0.000002


                      *****************************
                      * MAYER POPULATION ANALYSIS *
                      *****************************

  NA   - Mulliken gross atomic population
  ZA   - Total nuclear charge
  QA   - Mulliken gross atomic charge
  VA   - Mayer's total valence
  BVA  - Mayer's bonded valence
  FA   - Mayer's free valence

  ATOM       NA         ZA         QA         VA         BVA        FA
  0 V     22.6692    23.0000     0.3308     5.0812     1.2355     3.8457
  1 Br    35.3308    35.0000    -0.3308     1.2438     1.2355     0.0082

  Mayer bond orders larger than 0.100000
B(  0-V ,  1-Br) :   1.2355 

-------
TIMINGS
-------

Total SCF time: 0 days 0 hours 5 min 0 sec 

Total time                  ....     300.930 sec
Sum of individual times     ....     300.533 sec  ( 99.9%)

Fock matrix formation       ....     300.002 sec  ( 99.7%)
  XC integration            ....       1.308 sec  (  0.4% of F)
    Basis function eval.    ....       0.178 sec  ( 13.6% of XC)
    Density eval.           ....       0.193 sec  ( 14.8% of XC)
    XC-Functional eval.     ....       0.042 sec  (  3.2% of XC)
    XC-Potential eval.      ....       0.457 sec  ( 35.0% of XC)
Diagonalization             ....       0.146 sec  (  0.0%)
Density matrix formation    ....       0.019 sec  (  0.0%)
Population analysis         ....       0.008 sec  (  0.0%)
Initial guess               ....       0.112 sec  (  0.0%)
Orbital Transformation      ....       0.000 sec  (  0.0%)
Orbital Orthonormalization  ....       0.000 sec  (  0.0%)
DIIS solution               ....       0.056 sec  (  0.0%)
Grid generation             ....       0.190 sec  (  0.1%)


-------------------------------------------------------------------------------
                          DFT DISPERSION CORRECTION                            
                                                                               
                              DFTD3 V3.1  Rev 1                                
                          USING Becke-Johnson damping                          
-------------------------------------------------------------------------------
The TPSSH functional is recognized
Active option DFTDOPT                   ...         4   

molecular C6(AA) [au] = 1228.125704 


            DFT-D V3
 parameters
 s6 scaling factor         :     1.0000 
 a1 scaling factor         :     0.4529 
 s8 scaling factor         :     2.2382 
 a2 scaling factor         :     4.6550 
 ad hoc parameters k1-k3   :    16.0000     1.3333    -4.0000 

 Edisp/kcal,au: -1.246646230913  -0.001986657014 
 E6   /kcal   :  -0.361304742 
 E8   /kcal   :  -0.885341489 
 % E8         :  71.017861157 

-------------------------   ----------------
Dispersion correction           -0.001986657
-------------------------   ----------------


-------------------------   --------------------
FINAL SINGLE POINT ENERGY     -3518.155771710451
-------------------------   --------------------


                            ***************************************
                            *     ORCA property calculations      *
                            ***************************************

                                    ---------------------
                                    Active property flags
                                    ---------------------
   (+) Dipole Moment


------------------------------------------------------------------------------
                       ORCA ELECTRIC PROPERTIES CALCULATION
------------------------------------------------------------------------------

Dipole Moment Calculation                       ... on
Quadrupole Moment Calculation                   ... off
Polarizability Calculation                      ... off
GBWName                                         ... 16_VBr.gbw
Electron density file                           ... 16_VBr.scfp
The origin for moment calculation is the CENTER OF MASS  = ( 0.000000,  0.000000  2.383474)

-------------
DIPOLE MOMENT
-------------
                                X             Y             Z
Electronic contribution:      0.00000       0.00000       0.08228
Nuclear contribution   :      0.00000       0.00000      -1.86860
                        -----------------------------------------
Total Dipole Moment    :      0.00000       0.00000      -1.78632
                        -----------------------------------------
Magnitude (a.u.)       :      1.78632
Magnitude (Debye)      :      4.54047



--------------------
Rotational spectrum 
--------------------
 
Rotational constants in cm-1:     0.000000     0.097224     0.097224 
Rotational constants in MHz :     0.000000  2914.715129  2914.715129 

 Dipole components along the rotational axes: 
x,y,z [a.u.] :    -1.786323     0.000000     0.000000 
x,y,z [Debye]:    -4.540471     0.000000     0.000000 

 

Timings for individual modules:

Sum of individual times         ...      306.460 sec (=   5.108 min)
GTO integral calculation        ...        5.086 sec (=   0.085 min)   1.7 %
SCF iterations                  ...      301.374 sec (=   5.023 min)  98.3 %
                             ****ORCA TERMINATED NORMALLY****
TOTAL RUN TIME: 0 days 0 hours 5 minutes 7 seconds 110 msec
