
                                 *****************
                                 * O   R   C   A *
                                 *****************

           --- An Ab Initio, DFT and Semiempirical electronic structure package ---

                  #######################################################
                  #                        -***-                        #
                  #          Department of theory and spectroscopy      #
                  #               Directorship: Frank Neese             #
                  #        Max Planck Institute fuer Kohlenforschung    #
                  #                Kaiser Wilhelm Platz 1               #
                  #                 D-45470 Muelheim/Ruhr               #
                  #                      Germany                        #
                  #                                                     #
                  #                  All rights reserved                #
                  #                        -***-                        #
                  #######################################################


                         Program Version 4.2.0 -  RELEASE  -


 With contributions from (in alphabetic order):
   Daniel Aravena         : Magnetic Suceptibility
   Michael Atanasov       : Ab Initio Ligand Field Theory (pilot matlab implementation)
   Alexander A. Auer      : GIAO ZORA, VPT2
   Ute Becker             : Parallelization
   Giovanni Bistoni       : ED, misc. LED, open-shell LED, HFLED
   Martin Brehm           : Molecular dynamics
   Dmytro Bykov           : SCF Hessian
   Vijay G. Chilkuri      : MRCI spin determinant printing, contributions to CSF-ICE
   Dipayan Datta          : RHF DLPNO-CCSD density
   Achintya Kumar Dutta   : EOM-CC, STEOM-CC
   Dmitry Ganyushin       : Spin-Orbit,Spin-Spin,Magnetic field MRCI
   Miquel Garcia          : C-PCM Hessian, Gaussian charge scheme
   Yang Guo               : DLPNO-NEVPT2, CIM, IAO-localization
   Andreas Hansen         : Spin unrestricted coupled pair/coupled cluster methods
   Benjamin Helmich-Paris : CASSCF linear response (MC-RPA)
   Lee Huntington         : MR-EOM, pCC
   Robert Izsak           : Overlap fitted RIJCOSX, COSX-SCS-MP3, EOM
   Christian Kollmar      : KDIIS, OOCD, Brueckner-CCSD(T), CCSD density
   Simone Kossmann        : Meta GGA functionals, TD-DFT gradient, OOMP2, MP2 Hessian
   Martin Krupicka        : AUTO-CI
   Lucas Lang             : DCDCAS
   Dagmar Lenk            : GEPOL surface, SMD
   Dimitrios Liakos       : Extrapolation schemes; Compound Job, initial MDCI parallelization
   Dimitrios Manganas     : Further ROCIS development; embedding schemes
   Dimitrios Pantazis     : SARC Basis sets
   Taras Petrenko         : DFT Hessian,TD-DFT gradient, ASA, ECA, R-Raman, ABS, FL, XAS/XES, NRVS
   Peter Pinski           : DLPNO-MP2, DLPNO-MP2 Gradient
   Christoph Reimann      : Effective Core Potentials
   Marius Retegan         : Local ZFS, SOC
   Christoph Riplinger    : Optimizer, TS searches, QM/MM, DLPNO-CCSD(T), (RO)-DLPNO pert. Triples
   Tobias Risthaus        : Range-separated hybrids, TD-DFT gradient, RPA, STAB
   Michael Roemelt        : Original ROCIS implementation
   Masaaki Saitow         : Open-shell DLPNO-CCSD energy and density
   Barbara Sandhoefer     : DKH picture change effects
   Avijit Sen             : IP-ROCIS
   Kantharuban Sivalingam : CASSCF convergence, NEVPT2, FIC-MRCI
   Bernardo de Souza      : ESD, SOC TD-DFT
   Georgi Stoychev        : AutoAux, RI-MP2 NMR
   Willem Van den Heuvel  : Paramagnetic NMR
   Boris Wezisla          : Elementary symmetry handling
   Frank Wennmohs         : Technical directorship


 We gratefully acknowledge several colleagues who have allowed us to
 interface, adapt or use parts of their codes:
   Stefan Grimme, W. Hujo, H. Kruse,             : VdW corrections, initial TS optimization,
                  C. Bannwarth                     DFT functionals, gCP, sTDA/sTD-DF
   Ed Valeev, F. Pavosevic, A. Kumar             : LibInt (2-el integral package), F12 methods
   Garnet Chan, S. Sharma, J. Yang, R. Olivares  : DMRG
   Ulf Ekstrom                                   : XCFun DFT Library
   Mihaly Kallay                                 : mrcc  (arbitrary order and MRCC methods)
   Andreas Klamt, Michael Diedenhofen            : otool_cosmo (COSMO solvation model)
   Jiri Pittner, Ondrej Demel                    : Mk-CCSD
   Frank Weinhold                                : gennbo (NPA and NBO analysis)
   Christopher J. Cramer and Donald G. Truhlar   : smd solvation model
   Lars Goerigk                                  : TD-DFT with DH, B97 family of functionals
   V. Asgeirsson, H. Jonsson                     : NEB implementation
   FAccTs GmbH                                   : IRC, NEB, NEB-TS, Multilevel, MM, QM/MM, CI optimization
   S Lehtola, MJT Oliveira, MAL Marques          : LibXC Library


 Your calculation uses the libint2 library for the computation of 2-el integrals
 For citations please refer to: http://libint.valeyev.net

 Your ORCA version has been built with support for libXC version: 4.2.3
 For citations please refer to: https://tddft.org/programs/libxc/

 This ORCA versions uses:
   CBLAS   interface :  Fast vector & matrix operations
   LAPACKE interface :  Fast linear algebra routines
   SCALAPACK package :  Parallel linear algebra routines


Your calculation utilizes the atom-pairwise dispersion correction
with the Becke-Johnson damping scheme (D3BJ)
Cite in your paper:
S.Grimme, S.Ehrlich, L.Goerigk, J Comput Chem, (2011), 32, 1456–1465 
S.Grimme, J.Antony, S.Ehrlich and H.Krieg, J.Chem.Phys., 132, (2010), 154104 
   

----- Orbital basis set information -----
Your calculation utilizes the basis: aug-cc-pVTZ 
    H, B-Ne : Obtained from the ccRepo (grant-hill.group.shef.ac.uk/ccrepo) Feb. 2017
              R. A. Kendall, T. H. Dunning, Jr., R. J. Harrison, J. Chem. Phys. 96, 6796 (1992)
         He : Obtained from the ccRepo (grant-hill.group.shef.ac.uk/ccrepo) Feb. 2017
              D. E. Woon, T. H. Dunning, Jr., J. Chem. Phys. 100, 2975 (1994)
  Li-Be, Na : Obtained from the ccRepo (grant-hill.group.shef.ac.uk/ccrepo) Feb. 2017
              B. P. Prascher, D. E. Woon, K. A. Peterson, T. H. Dunning, Jr., A. K. Wilson, Theor. Chem. Acc. 128, 69 (2011)
         Mg : Obtained from the Peterson Research Group Website (tyr0.chem.wsu.edu/~kipeters) Feb. 2017
              B. P. Prascher, D. E. Woon, K. A. Peterson, T. H. Dunning, Jr., A. K. Wilson, Theor. Chem. Acc. 128, 69 (2011)
      Al-Ar : Obtained from the ccRepo (grant-hill.group.shef.ac.uk/ccrepo) Feb. 2017
              D. E. Woon, T. H. Dunning, Jr., J. Chem. Phys. 98, 1358 (1993)
      Sc-Zn : Obtained from the ccRepo (grant-hill.group.shef.ac.uk/ccrepo) Feb. 2017
              N. B. Balabanov, K. A. Peterson, J. Chem. Phys. 123, 064107 (2005)
              N. B. Balabanov, K. A. Peterson, J. Chem. Phys. 125, 074110 (2006)
      Ga-Kr : Obtained from the ccRepo (grant-hill.group.shef.ac.uk/ccrepo) Feb. 2017
              A. K. Wilson, D. E. Woon, K. A. Peterson, T. H. Dunning, Jr., J. Chem. Phys. 110, 7667 (1999)
     Ag, Au : Obtained from the Peterson Research Group Website (tyr0.chem.wsu.edu/~kipeters) Feb. 2017
              K. A. Peterson, C. Puzzarini, Theor. Chem. Acc. 114, 283 (2005)

----- AuxJK basis set information -----
Your calculation utilizes the auxiliary basis: def2/JK
   H-Ba, Hf-Rn: F. Weigend, J. Comput. Chem. 29, 167 (2008).

================================================================================
                                        WARNINGS
                       Please study these warnings very carefully!
================================================================================


WARNING: your system is open-shell and RHF/RKS was chosen
  ===> : WILL SWITCH to UHF/UKS


INFO   : the flag for use of LIBINT has been found!

================================================================================
                                       INPUT FILE
================================================================================
NAME = 17_VO.in
|  1> #
|  2> # 17_VO tpssh/aug-cc-pvtz
|  3> #
|  4> ! tpssh d3bj aug-cc-pvtz def2/jk grid4 nofinalgrid
|  5> 
|  6> *xyz 0 4
|  7>   V   0.00000000000000      0.00000000000000      0.20415600493149
|  8>   O   0.00000000000000      0.00000000000000      1.79584399506851
|  9> *
| 10> 
| 11> %pal
| 12> nprocs 24
| 13> end
| 14> 
| 15> 
| 16>                          ****END OF INPUT****
================================================================================

                       ****************************
                       * Single Point Calculation *
                       ****************************

---------------------------------
CARTESIAN COORDINATES (ANGSTROEM)
---------------------------------
  V      0.000000    0.000000    0.204156
  O      0.000000    0.000000    1.795844

----------------------------
CARTESIAN COORDINATES (A.U.)
----------------------------
  NO LB      ZA    FRAG     MASS         X           Y           Z
   0 V    23.0000    0    50.940    0.000000    0.000000    0.385799
   1 O     8.0000    0    15.999    0.000000    0.000000    3.393653

--------------------------------
INTERNAL COORDINATES (ANGSTROEM)
--------------------------------
 V      0   0   0     0.000000000000     0.00000000     0.00000000
 O      1   0   0     1.591687990137     0.00000000     0.00000000

---------------------------
INTERNAL COORDINATES (A.U.)
---------------------------
 V      0   0   0     0.000000000000     0.00000000     0.00000000
 O      1   0   0     3.007854392011     0.00000000     0.00000000

---------------------
BASIS SET INFORMATION
---------------------
There are 2 groups of distinct atoms

 Group   1 Type V   : 116s77p23d3f2g contracted to 8s7p5d3f2g pattern {19191919191911/151515151511/77711/111/11}
 Group   2 Type O   : 19s6p3d2f contracted to 5s4p3d2f pattern {88111/3111/111/11}

Atom   0V    basis set group =>   1
Atom   1O    basis set group =>   2
----------------------------------
AUXILIARY/JK BASIS SET INFORMATION
----------------------------------
There are 2 groups of distinct atoms

 Group   1 Type V   : 19s14p12d10f7g3h1i contracted to 16s13p11d9f5g3h1i pattern {4111111111111111/2111111111111/21111111111/211111111/31111/111/1}
 Group   2 Type O   : 14s10p6d2f1g contracted to 10s8p4d2f1g pattern {5111111111/31111111/3111/11/1}

Atom   0V    basis set group =>   1
Atom   1O    basis set group =>   2


           ************************************************************
           *        Program running with 24 parallel MPI-processes    *
           *              working on a common directory               *
           ************************************************************
------------------------------------------------------------------------------
                           ORCA GTO INTEGRAL CALCULATION
------------------------------------------------------------------------------

                         BASIS SET STATISTICS AND STARTUP INFO

 # of primitive gaussian shells          ...  251
 # of primitive gaussian functions       ...  567
 # of contracted shells                  ...   39
 # of contracted basis functions         ...  139
 Highest angular momentum                ...    4
 Maximum contraction depth               ...   19
 Integral package used                   ... LIBINT
 Integral threshhold            Thresh   ...  1.000e-10
 Primitive cut-off              TCut     ...  1.000e-11


------------------------------ INTEGRAL EVALUATION ----------------------------


 * One electron integrals 
 Pre-screening matrix                    ... done
 Shell pair data                         ... done (   0.001 sec)



           ************************************************************
           *        Program running with 24 parallel MPI-processes    *
           *              working on a common directory               *
           ************************************************************
-------------------------------------------------------------------------------
                                 ORCA SCF
-------------------------------------------------------------------------------

------------
SCF SETTINGS
------------
Hamiltonian:
 Density Functional     Method          .... DFT(GTOs)
 Exchange Functional    Exchange        .... TPSS
 Correlation Functional Correlation     .... TPSS
 LDA part of GGA corr.  LDAOpt          .... PW91-LDA
 Gradients option       PostSCFGGA      .... off
 Hybrid DFT is turned on
   Fraction HF Exchange ScalHFX         ....  0.100000
   Scaling of DF-GGA-X  ScalDFX         ....  0.900000
   Scaling of DF-GGA-C  ScalDFC         ....  1.000000
   Scaling of DF-LDA-C  ScalLDAC        ....  1.000000
   Perturbative correction              ....  0.000000
   Density functional embedding theory  .... OFF
   NL short-range parameter             ....  5.200000


General Settings:
 Integral files         IntName         .... 17_VO
 Hartree-Fock type      HFTyp           .... UHF
 Total Charge           Charge          ....    0
 Multiplicity           Mult            ....    4
 Number of Electrons    NEL             ....   31
 Basis Dimension        Dim             ....  139
 Nuclear Repulsion      ENuc            ....     61.1731739704 Eh

Convergence Acceleration:
 DIIS                   CNVDIIS         .... on
   Start iteration      DIISMaxIt       ....    12
   Startup error        DIISStart       ....  0.200000
   # of expansion vecs  DIISMaxEq       ....     5
   Bias factor          DIISBfac        ....   1.050
   Max. coefficient     DIISMaxC        ....  10.000
 Newton-Raphson         CNVNR           .... off
 SOSCF                  CNVSOSCF        .... off
 Level Shifting         CNVShift        .... on
   Level shift para.    LevelShift      ....    0.2500
   Turn off err/grad.   ShiftErr        ....    0.0010
 Zerner damping         CNVZerner       .... off
 Static damping         CNVDamp         .... on
   Fraction old density DampFac         ....    0.7000
   Max. Damping (<1)    DampMax         ....    0.9800
   Min. Damping (>=0)   DampMin         ....    0.0000
   Turn off err/grad.   DampErr         ....    0.1000
 Fernandez-Rico         CNVRico         .... off

SCF Procedure:
 Maximum # iterations   MaxIter         ....   125
 SCF integral mode      SCFMode         .... Direct
   Integral package                     .... LIBINT
 Reset frequency        DirectResetFreq ....    20
 Integral Threshold     Thresh          ....  1.000e-10 Eh
 Primitive CutOff       TCut            ....  1.000e-11 Eh

Convergence Tolerance:
 Convergence Check Mode ConvCheckMode   .... Total+1el-Energy
 Convergence forced     ConvForced      .... 0
 Energy Change          TolE            ....  1.000e-06 Eh
 1-El. energy change                    ....  1.000e-03 Eh
 DIIS Error             TolErr          ....  1.000e-06


Diagonalization of the overlap matrix:
Smallest eigenvalue                        ... 3.432e-05
Time for diagonalization                   ...    0.006 sec
Threshold for overlap eigenvalues          ... 1.000e-08
Number of eigenvalues below threshold      ... 0
Time for construction of square roots      ...    0.002 sec
Total time needed                          ...    0.008 sec

-------------------
DFT GRID GENERATION
-------------------

General Integration Accuracy     IntAcc      ...  4.670
Radial Grid Type                 RadialGrid  ... Gauss-Chebyshev
Angular Grid (max. acc.)         AngularGrid ... Lebedev-302
Angular grid pruning method      GridPruning ... 3 (G Style)
Weight generation scheme         WeightScheme... Becke
Basis function cutoff            BFCut       ...    1.0000e-10
Integration weight cutoff        WCut        ...    1.0000e-14
Grids for H and He will be reduced by one unit

# of grid points (after initial pruning)     ...  15876 (   0.0 sec)
# of grid points (after weights+screening)   ...  15834 (   0.0 sec)
nearest neighbour list constructed           ...    0.0 sec
Grid point re-assignment to atoms done       ...    0.0 sec
Grid point division into batches done        ...    0.1 sec
Reduced shell lists constructed in    0.1 sec

Total number of grid points                  ...    15834
Total number of batches                      ...      248
Average number of points per batch           ...       63
Average number of grid points per atom       ...     7917
Average number of shells per batch           ...    17.33 (44.44%)
Average number of basis functions per batch  ...    45.67 (32.85%)
Average number of large shells per batch     ...    10.92 (62.98%)
Average number of large basis fcns per batch ...    28.08 (61.50%)
Maximum spatial batch extension              ...  28.57, 31.41, 18.14 au
Average spatial batch extension              ...   0.89,  0.95,  0.67 au

Time for grid setup =    0.174 sec

------------------------------
INITIAL GUESS: MODEL POTENTIAL
------------------------------
Loading Hartree-Fock densities                     ... done
Calculating cut-offs                               ... done
Setting up the integral package                    ... done
Initializing the effective Hamiltonian             ... done
Starting the Coulomb interaction                   ... done (   0.0 sec)
Reading the grid                                   ... done
Mapping shells                                     ... done
Starting the XC term evaluation                    ... done (   0.0 sec)
  promolecular density results
     # of electrons  =     30.999998472
     EX              =    -52.060157362
     EC              =     -1.220108770
     EX+EC           =    -53.280266132
Transforming the Hamiltonian                       ... done (   0.0 sec)
Diagonalizing the Hamiltonian                      ... done (   0.0 sec)
Back transforming the eigenvectors                 ... done (   0.0 sec)
Now organizing SCF variables                       ... done
                      ------------------
                      INITIAL GUESS DONE (   0.3 sec)
                      ------------------
--------------
SCF ITERATIONS
--------------
ITER       Energy         Delta-E        Max-DP      RMS-DP      [F,P]     Damp
               ***  Starting incremental Fock matrix formation  ***
  0  -1018.9870714336   0.000000000000 0.16009694  0.00246884  0.4642464 0.7000
  1  -1019.0447022442  -0.057630810623 0.17697315  0.00332502  0.1687538 0.7000
                               ***Turning on DIIS***
  2  -1019.1273274745  -0.082625230346 0.06619713  0.00118537  0.1007188 0.7000
  3  -1019.1709535233  -0.043626048808 0.08480128  0.00184123  0.0490172 0.0000
  4  -1019.2268156530  -0.055862129678 0.00861025  0.00012637  0.1664675 0.7000
  5  -1019.2368626729  -0.010047019906 0.01074132  0.00014644  0.1448045 0.7000
  6  -1019.2471202817  -0.010257608797 0.01048679  0.00014021  0.1201217 0.7000
  7  -1019.2551476670  -0.008027385272 0.03303931  0.00063287  0.0968802 0.0000
  8  -1019.2699546045  -0.014806937551 0.03673902  0.00071349  0.0225759 0.0000
  9  -1019.2707507919  -0.000796187318 0.01735226  0.00028524  0.0071814 0.0000
 10  -1019.2709366155  -0.000185823665 0.00903053  0.00009910  0.0024400 0.0000
 11  -1019.2709994070  -0.000062791466 0.01197167  0.00010455  0.0007531 0.0000
 12  -1019.2710541812  -0.000054774177 0.00338315  0.00003517  0.0017012 0.0000
 13  -1019.2710624407  -0.000008259529 0.00278926  0.00002832  0.0010662 0.0000
 14  -1019.2710689227  -0.000006481983 0.00336470  0.00003660  0.0006293 0.0000
 15  -1019.2710751048  -0.000006182066 0.00217626  0.00002979  0.0005255 0.0000
 16  -1019.2710774530  -0.000002348272 0.00071308  0.00000904  0.0001270 0.0000
                 **** Energy Check signals convergence ****

               *****************************************************
               *                     SUCCESS                       *
               *           SCF CONVERGED AFTER  17 CYCLES          *
               *****************************************************


----------------
TOTAL SCF ENERGY
----------------

Total Energy       :        -1019.27107788 Eh          -27735.77609 eV

Components:
Nuclear Repulsion  :           61.17317397 Eh            1664.60669 eV
Electronic Energy  :        -1080.44425185 Eh          -29400.38278 eV
One Electron Energy:        -1521.93732255 Eh          -41414.01999 eV
Two Electron Energy:          441.49307070 Eh           12013.63722 eV

Virial components:
Potential Energy   :        -2036.77162944 Eh          -55423.37371 eV
Kinetic Energy     :         1017.50055156 Eh           27687.59762 eV
Virial Ratio       :            2.00174007


DFT components:
N(Alpha)           :       16.999995316450 electrons
N(Beta)            :       13.999994297023 electrons
N(Total)           :       30.999989613473 electrons
E(X)               :      -47.425067658959 Eh       
E(C)               :       -1.227575660935 Eh       
E(XC)              :      -48.652643319893 Eh       
DFET-embed. en.    :        0.000000000000 Eh       

---------------
SCF CONVERGENCE
---------------

  Last Energy change         ...   -4.2594e-07  Tolerance :   1.0000e-06
  Last MAX-Density change    ...    2.6298e-04  Tolerance :   1.0000e-05
  Last RMS-Density change    ...    3.6532e-06  Tolerance :   1.0000e-06
  Last DIIS Error            ...    1.0207e-04  Tolerance :   1.0000e-06

             **** THE GBW FILE WAS UPDATED (17_VO.gbw) ****
             **** DENSITY FILE WAS UPDATED (17_VO.scfp) ****
             **** ENERGY FILE WAS UPDATED (17_VO.en.tmp) ****
----------------------
UHF SPIN CONTAMINATION
----------------------

Warning: in a DFT calculation there is little theoretical justification to 
         calculate <S**2> as in Hartree-Fock theory. We will do it anyways
         but you should keep in mind that the values have only limited relevance

Expectation value of <S**2>     :     3.803001
Ideal value S*(S+1) for S=1.5   :     3.750000
Deviation                       :     0.053001

             **** THE GBW FILE WAS UPDATED (17_VO.gbw) ****
             **** DENSITY FILE WAS UPDATED (17_VO.scfp) ****
----------------
ORBITAL ENERGIES
----------------
                 SPIN UP ORBITALS
  NO   OCC          E(Eh)            E(eV) 
   0   1.0000    -196.652873     -5351.1967 
   1   1.0000     -22.102603      -601.4424 
   2   1.0000     -19.040078      -518.1069 
   3   1.0000     -18.588603      -505.8216 
   4   1.0000     -18.578656      -505.5509 
   5   1.0000     -18.578656      -505.5509 
   6   1.0000      -2.607328       -70.9490 
   7   1.0000      -1.659850       -45.1668 
   8   1.0000      -1.642003       -44.6812 
   9   1.0000      -1.642003       -44.6812 
  10   1.0000      -0.845721       -23.0132 
  11   1.0000      -0.323626        -8.8063 
  12   1.0000      -0.307937        -8.3794 
  13   1.0000      -0.307937        -8.3794 
  14   1.0000      -0.194065        -5.2808 
  15   1.0000      -0.194065        -5.2808 
  16   1.0000      -0.180553        -4.9131 
  17   0.0000      -0.094839        -2.5807 
  18   0.0000      -0.094839        -2.5807 
  19   0.0000      -0.072426        -1.9708 
  20   0.0000      -0.013032        -0.3546 
  21   0.0000      -0.013031        -0.3546 
  22   0.0000       0.003466         0.0943 
  23   0.0000       0.010779         0.2933 
  24   0.0000       0.030872         0.8401 
  25   0.0000       0.030872         0.8401 
  26   0.0000       0.040041         1.0896 
  27   0.0000       0.040044         1.0896 
  28   0.0000       0.044818         1.2196 
  29   0.0000       0.044818         1.2196 
  30   0.0000       0.047386         1.2894 
  31   0.0000       0.070806         1.9267 
  32   0.0000       0.091946         2.5020 
  33   0.0000       0.138405         3.7662 
  34   0.0000       0.138405         3.7662 
  35   0.0000       0.171968         4.6795 
  36   0.0000       0.171969         4.6795 
  37   0.0000       0.178109         4.8466 
  38   0.0000       0.190299         5.1783 
  39   0.0000       0.190299         5.1783 
  40   0.0000       0.197454         5.3730 
  41   0.0000       0.198516         5.4019 
  42   0.0000       0.198516         5.4019 
  43   0.0000       0.251802         6.8519 
  44   0.0000       0.373692        10.1687 
  45   0.0000       0.373692        10.1687 
  46   0.0000       0.379942        10.3387 
  47   0.0000       0.379942        10.3387 
  48   0.0000       0.394323        10.7301 
  49   0.0000       0.475451        12.9377 
  50   0.0000       0.475939        12.9510 
  51   0.0000       0.475939        12.9510 
  52   0.0000       0.557551        15.1717 
  53   0.0000       0.567446        15.4410 
  54   0.0000       0.567446        15.4410 
  55   0.0000       0.644379        17.5345 
  56   0.0000       0.644379        17.5345 
  57   0.0000       0.710039        19.3212 
  58   0.0000       0.714785        19.4503 
  59   0.0000       0.714785        19.4503 
  60   0.0000       0.745738        20.2926 
  61   0.0000       0.745741        20.2926 
  62   0.0000       0.763043        20.7635 
  63   0.0000       0.763043        20.7635 
  64   0.0000       0.829896        22.5826 
  65   0.0000       1.120904        30.5014 
  66   0.0000       1.148728        31.2585 
  67   0.0000       1.148728        31.2585 
  68   0.0000       1.310306        35.6552 
  69   0.0000       1.310306        35.6552 
  70   0.0000       1.331093        36.2209 
  71   0.0000       1.331093        36.2209 
  72   0.0000       1.350045        36.7366 
  73   0.0000       1.468509        39.9602 
  74   0.0000       1.468509        39.9602 
  75   0.0000       1.548982        42.1499 
  76   0.0000       1.548982        42.1499 
  77   0.0000       1.570314        42.7304 
  78   0.0000       1.601445        43.5775 
  79   0.0000       1.601457        43.5779 
  80   0.0000       1.703822        46.3634 
  81   0.0000       1.703829        46.3635 
  82   0.0000       1.774930        48.2983 
  83   0.0000       1.774930        48.2983 
  84   0.0000       1.915676        52.1282 
  85   0.0000       1.968028        53.5528 
  86   0.0000       2.044580        55.6358 
  87   0.0000       2.044580        55.6358 
  88   0.0000       2.071698        56.3738 
  89   0.0000       2.071721        56.3744 
  90   0.0000       2.160373        58.7867 
  91   0.0000       2.160373        58.7867 
  92   0.0000       2.353428        64.0400 
  93   0.0000       2.360601        64.2352 
  94   0.0000       2.360601        64.2352 
  95   0.0000       2.474691        67.3398 
  96   0.0000       2.506437        68.2036 
  97   0.0000       2.506454        68.2041 
  98   0.0000       2.580822        70.2277 
  99   0.0000       2.580822        70.2277 
 100   0.0000       2.656497        72.2870 
 101   0.0000       2.752996        74.9128 
 102   0.0000       2.752997        74.9129 
 103   0.0000       2.957337        80.4732 
 104   0.0000       3.309225        90.0486 
 105   0.0000       3.309225        90.0486 
 106   0.0000       3.627412        98.7069 
 107   0.0000       4.093751       111.3966 
 108   0.0000       4.093751       111.3966 
 109   0.0000       4.805353       130.7603 
 110   0.0000       4.805353       130.7603 
 111   0.0000       4.844430       131.8236 
 112   0.0000       4.864141       132.3600 
 113   0.0000       4.864144       132.3601 
 114   0.0000       5.101264       138.8124 
 115   0.0000       5.101264       138.8124 
 116   0.0000       5.151752       140.1863 
 117   0.0000       5.151789       140.1873 
 118   0.0000       5.165596       140.5630 
 119   0.0000       5.165596       140.5630 
 120   0.0000       5.201408       141.5375 
 121   0.0000       5.201418       141.5378 
 122   0.0000       5.221207       142.0763 
 123   0.0000       5.221207       142.0763 
 124   0.0000       5.308735       144.4580 
 125   0.0000       5.417093       147.4066 
 126   0.0000       6.171151       167.9256 
 127   0.0000       6.171151       167.9256 
 128   0.0000       6.320677       171.9944 
 129   0.0000       6.320705       171.9951 
 130   0.0000       6.562543       178.5759 
 131   0.0000       6.562543       178.5759 
 132   0.0000       6.647730       180.8939 
 133   0.0000       6.648091       180.9038 
 134   0.0000       6.859170       186.6475 
 135   0.0000       7.056947       192.0293 
 136   0.0000       7.056947       192.0293 
 137   0.0000       7.305364       198.7891 
 138   0.0000      11.764008       320.1149 

                 SPIN DOWN ORBITALS
  NO   OCC          E(Eh)            E(eV) 
   0   1.0000    -196.652032     -5351.1738 
   1   1.0000     -22.073702      -600.6560 
   2   1.0000     -19.048947      -518.3482 
   3   1.0000     -18.576022      -505.4793 
   4   1.0000     -18.548854      -504.7400 
   5   1.0000     -18.548854      -504.7400 
   6   1.0000      -2.519059       -68.5471 
   7   1.0000      -1.610730       -43.8302 
   8   1.0000      -1.526424       -41.5361 
   9   1.0000      -1.526424       -41.5361 
  10   1.0000      -0.862381       -23.4666 
  11   1.0000      -0.318376        -8.6634 
  12   1.0000      -0.312930        -8.5153 
  13   1.0000      -0.312930        -8.5153 
  14   0.0000      -0.093338        -2.5399 
  15   0.0000      -0.045146        -1.2285 
  16   0.0000      -0.045146        -1.2285 
  17   0.0000      -0.030303        -0.8246 
  18   0.0000      -0.030281        -0.8240 
  19   0.0000      -0.029825        -0.8116 
  20   0.0000       0.016067         0.4372 
  21   0.0000       0.016068         0.4372 
  22   0.0000       0.018296         0.4979 
  23   0.0000       0.022248         0.6054 
  24   0.0000       0.053123         1.4456 
  25   0.0000       0.053123         1.4456 
  26   0.0000       0.059933         1.6308 
  27   0.0000       0.059935         1.6309 
  28   0.0000       0.062919         1.7121 
  29   0.0000       0.063606         1.7308 
  30   0.0000       0.063633         1.7315 
  31   0.0000       0.082047         2.2326 
  32   0.0000       0.120860         3.2888 
  33   0.0000       0.174149         4.7388 
  34   0.0000       0.174149         4.7388 
  35   0.0000       0.197617         5.3774 
  36   0.0000       0.197618         5.3775 
  37   0.0000       0.202682         5.5153 
  38   0.0000       0.210187         5.7195 
  39   0.0000       0.214788         5.8447 
  40   0.0000       0.214912         5.8480 
  41   0.0000       0.219993         5.9863 
  42   0.0000       0.219993         5.9863 
  43   0.0000       0.266002         7.2383 
  44   0.0000       0.397808        10.8249 
  45   0.0000       0.397910        10.8277 
  46   0.0000       0.422350        11.4927 
  47   0.0000       0.422350        11.4927 
  48   0.0000       0.433286        11.7903 
  49   0.0000       0.495733        13.4896 
  50   0.0000       0.496202        13.5023 
  51   0.0000       0.496202        13.5023 
  52   0.0000       0.589522        16.0417 
  53   0.0000       0.613470        16.6934 
  54   0.0000       0.613470        16.6934 
  55   0.0000       0.679699        18.4956 
  56   0.0000       0.679736        18.4965 
  57   0.0000       0.713526        19.4160 
  58   0.0000       0.736353        20.0372 
  59   0.0000       0.736353        20.0372 
  60   0.0000       0.777550        21.1582 
  61   0.0000       0.777550        21.1582 
  62   0.0000       0.782763        21.3001 
  63   0.0000       0.782778        21.3005 
  64   0.0000       0.844304        22.9747 
  65   0.0000       1.139765        31.0146 
  66   0.0000       1.161585        31.6083 
  67   0.0000       1.161585        31.6083 
  68   0.0000       1.353432        36.8288 
  69   0.0000       1.353433        36.8288 
  70   0.0000       1.369110        37.2554 
  71   0.0000       1.413305        38.4580 
  72   0.0000       1.413305        38.4580 
  73   0.0000       1.489381        40.5281 
  74   0.0000       1.489381        40.5281 
  75   0.0000       1.579180        42.9717 
  76   0.0000       1.579180        42.9717 
  77   0.0000       1.592437        43.3324 
  78   0.0000       1.653309        44.9888 
  79   0.0000       1.653316        44.9890 
  80   0.0000       1.720327        46.8125 
  81   0.0000       1.720328        46.8125 
  82   0.0000       1.788799        48.6757 
  83   0.0000       1.788799        48.6757 
  84   0.0000       1.918111        52.1944 
  85   0.0000       2.004226        54.5378 
  86   0.0000       2.051861        55.8340 
  87   0.0000       2.051861        55.8340 
  88   0.0000       2.064416        56.1756 
  89   0.0000       2.064435        56.1761 
  90   0.0000       2.225123        60.5487 
  91   0.0000       2.225123        60.5487 
  92   0.0000       2.372261        64.5525 
  93   0.0000       2.372261        64.5525 
  94   0.0000       2.384541        64.8867 
  95   0.0000       2.485587        67.6362 
  96   0.0000       2.520216        68.5786 
  97   0.0000       2.520236        68.5791 
  98   0.0000       2.612304        71.0844 
  99   0.0000       2.612304        71.0844 
 100   0.0000       2.666836        72.5683 
 101   0.0000       2.844375        77.3994 
 102   0.0000       2.844388        77.3997 
 103   0.0000       3.011953        81.9594 
 104   0.0000       3.333643        90.7130 
 105   0.0000       3.333643        90.7130 
 106   0.0000       3.647740        99.2600 
 107   0.0000       4.085983       111.1853 
 108   0.0000       4.085983       111.1853 
 109   0.0000       4.866467       132.4233 
 110   0.0000       4.930692       134.1710 
 111   0.0000       4.930692       134.1710 
 112   0.0000       4.942166       134.4832 
 113   0.0000       4.942174       134.4834 
 114   0.0000       5.170231       140.6891 
 115   0.0000       5.170231       140.6891 
 116   0.0000       5.224511       142.1662 
 117   0.0000       5.224511       142.1662 
 118   0.0000       5.236432       142.4906 
 119   0.0000       5.236463       142.4914 
 120   0.0000       5.247677       142.7965 
 121   0.0000       5.247683       142.7967 
 122   0.0000       5.258325       143.0863 
 123   0.0000       5.258325       143.0863 
 124   0.0000       5.369575       146.1136 
 125   0.0000       5.431338       147.7942 
 126   0.0000       6.155159       167.4904 
 127   0.0000       6.155159       167.4904 
 128   0.0000       6.309241       171.6832 
 129   0.0000       6.309284       171.6843 
 130   0.0000       6.558477       178.4652 
 131   0.0000       6.558477       178.4652 
 132   0.0000       6.624229       180.2544 
 133   0.0000       6.624606       180.2647 
 134   0.0000       6.855212       186.5398 
 135   0.0000       7.038934       191.5391 
 136   0.0000       7.038934       191.5391 
 137   0.0000       7.299376       198.6261 
 138   0.0000      11.755132       319.8734 

                    ********************************
                    * MULLIKEN POPULATION ANALYSIS *
                    ********************************

--------------------------------------------
MULLIKEN ATOMIC CHARGES AND SPIN POPULATIONS
--------------------------------------------
   0 V :    0.512855    3.306102
   1 O :   -0.512855   -0.306102
Sum of atomic charges         :   -0.0000000
Sum of atomic spin populations:    3.0000000

-----------------------------------------------------
MULLIKEN REDUCED ORBITAL CHARGES AND SPIN POPULATIONS
-----------------------------------------------------
CHARGE
  0 V s       :     6.809849  s :     6.809849
      pz      :     4.056449  p :    12.098730
      px      :     4.021140
      py      :     4.021140
      dz2     :     0.728371  d :     3.547050
      dxz     :     0.411695
      dyz     :     0.411695
      dx2y2   :     0.997644
      dxy     :     0.997644
      f0      :     0.006191  f :     0.022082
      f+1     :     0.007688
      f-1     :     0.007688
      f+2     :     0.000258
      f-2     :     0.000258
      f+3     :     0.000000
      f-3     :     0.000000
      g0      :     0.001663  g :     0.009435
      g+1     :     0.003892
      g-1     :     0.003892
      g+2     :    -0.000006
      g-2     :    -0.000006
      g+3     :     0.000000
      g-3     :     0.000000
      g+4     :     0.000000
      g-4     :     0.000000
  1 O s       :     3.967076  s :     3.967076
      pz      :     1.425553  p :     4.519702
      px      :     1.547075
      py      :     1.547075
      dz2     :     0.003413  d :     0.021111
      dxz     :     0.007289
      dyz     :     0.007289
      dx2y2   :     0.001560
      dxy     :     0.001560
      f0      :     0.001436  f :     0.004966
      f+1     :     0.001221
      f-1     :     0.001221
      f+2     :     0.000544
      f-2     :     0.000544
      f+3     :     0.000000
      f-3     :     0.000000

SPIN
  0 V s       :     0.750057  s :     0.750057
      pz      :     0.052306  p :     0.058263
      px      :     0.002979
      py      :     0.002979
      dz2     :     0.282742  d :     2.502444
      dxz     :     0.112207
      dyz     :     0.112207
      dx2y2   :     0.997644
      dxy     :     0.997644
      f0      :    -0.000357  f :    -0.001833
      f+1     :    -0.000996
      f-1     :    -0.000996
      f+2     :     0.000258
      f-2     :     0.000258
      f+3     :    -0.000000
      f-3     :    -0.000000
      g0      :    -0.000337  g :    -0.002830
      g+1     :    -0.001240
      g-1     :    -0.001240
      g+2     :    -0.000006
      g-2     :    -0.000006
      g+3     :    -0.000000
      g-3     :    -0.000000
      g+4     :    -0.000000
      g-4     :    -0.000000
  1 O s       :    -0.007206  s :    -0.007206
      pz      :    -0.080355  p :    -0.311533
      px      :    -0.115589
      py      :    -0.115589
      dz2     :     0.002420  d :     0.009972
      dxz     :     0.002216
      dyz     :     0.002216
      dx2y2   :     0.001560
      dxy     :     0.001560
      f0      :     0.000730  f :     0.002666
      f+1     :     0.000424
      f-1     :     0.000424
      f+2     :     0.000544
      f-2     :     0.000544
      f+3     :    -0.000000
      f-3     :    -0.000000


                     *******************************
                     * LOEWDIN POPULATION ANALYSIS *
                     *******************************

-------------------------------------------
LOEWDIN ATOMIC CHARGES AND SPIN POPULATIONS
-------------------------------------------
   0 V :    0.574661    3.062160
   1 O :   -0.574661   -0.062160

----------------------------------------------------
LOEWDIN REDUCED ORBITAL CHARGES AND SPIN POPULATIONS
----------------------------------------------------
CHARGE
  0 V s       :     6.370019  s :     6.370019
      pz      :     4.121812  p :    11.959790
      px      :     3.918989
      py      :     3.918989
      dz2     :     0.877369  d :     3.727973
      dxz     :     0.453837
      dyz     :     0.453837
      dx2y2   :     0.971465
      dxy     :     0.971465
      f0      :     0.125432  f :     0.258424
      f+1     :     0.064506
      f-1     :     0.064506
      f+2     :     0.001990
      f-2     :     0.001990
      f+3     :     0.000000
      f-3     :     0.000000
      g0      :     0.039474  g :     0.109132
      g+1     :     0.034259
      g-1     :     0.034259
      g+2     :     0.000570
      g-2     :     0.000570
      g+3     :     0.000000
      g-3     :     0.000000
      g+4     :     0.000000
      g-4     :     0.000000
  1 O s       :     3.535365  s :     3.535365
      pz      :     1.638777  p :     4.481265
      px      :     1.421244
      py      :     1.421244
      dz2     :     0.203774  d :     0.375393
      dxz     :     0.070007
      dyz     :     0.070007
      dx2y2   :     0.015803
      dxy     :     0.015803
      f0      :     0.087978  f :     0.182638
      f+1     :     0.037159
      f-1     :     0.037159
      f+2     :     0.010171
      f-2     :     0.010171
      f+3     :     0.000000
      f-3     :     0.000000

SPIN
  0 V s       :     0.638606  s :     0.638606
      pz      :     0.063073  p :     0.060271
      px      :    -0.001401
      py      :    -0.001401
      dz2     :     0.263693  d :     2.389458
      dxz     :     0.091417
      dyz     :     0.091417
      dx2y2   :     0.971465
      dxy     :     0.971465
      f0      :    -0.002507  f :    -0.016415
      f+1     :    -0.008944
      f-1     :    -0.008944
      f+2     :     0.001990
      f-2     :     0.001990
      f+3     :    -0.000000
      f-3     :    -0.000000
      g0      :    -0.000950  g :    -0.009761
      g+1     :    -0.004976
      g-1     :    -0.004976
      g+2     :     0.000570
      g-2     :     0.000570
      g+3     :    -0.000000
      g-3     :    -0.000000
      g+4     :    -0.000000
      g-4     :    -0.000000
  1 O s       :     0.036589  s :     0.036589
      pz      :    -0.003535  p :    -0.166437
      px      :    -0.081451
      py      :    -0.081451
      dz2     :     0.001869  d :     0.041645
      dxz     :     0.004086
      dyz     :     0.004086
      dx2y2   :     0.015803
      dxy     :     0.015803
      f0      :     0.003163  f :     0.026043
      f+1     :     0.001269
      f-1     :     0.001269
      f+2     :     0.010171
      f-2     :     0.010171
      f+3     :    -0.000000
      f-3     :    -0.000000


                      *****************************
                      * MAYER POPULATION ANALYSIS *
                      *****************************

  NA   - Mulliken gross atomic population
  ZA   - Total nuclear charge
  QA   - Mulliken gross atomic charge
  VA   - Mayer's total valence
  BVA  - Mayer's bonded valence
  FA   - Mayer's free valence

  ATOM       NA         ZA         QA         VA         BVA        FA
  0 V     22.4871    23.0000     0.5129     5.2440     2.2743     2.9697
  1 O      8.5129     8.0000    -0.5129     2.3133     2.2743     0.0390

  Mayer bond orders larger than 0.100000
B(  0-V ,  1-O ) :   2.2743 

-------
TIMINGS
-------

Total SCF time: 0 days 0 hours 2 min 1 sec 

Total time                  ....     121.015 sec
Sum of individual times     ....     120.648 sec  ( 99.7%)

Fock matrix formation       ....     120.237 sec  ( 99.4%)
  XC integration            ....       0.713 sec  (  0.6% of F)
    Basis function eval.    ....       0.087 sec  ( 12.2% of XC)
    Density eval.           ....       0.102 sec  ( 14.3% of XC)
    XC-Functional eval.     ....       0.025 sec  (  3.4% of XC)
    XC-Potential eval.      ....       0.292 sec  ( 41.0% of XC)
Diagonalization             ....       0.090 sec  (  0.1%)
Density matrix formation    ....       0.012 sec  (  0.0%)
Population analysis         ....       0.007 sec  (  0.0%)
Initial guess               ....       0.098 sec  (  0.1%)
Orbital Transformation      ....       0.000 sec  (  0.0%)
Orbital Orthonormalization  ....       0.000 sec  (  0.0%)
DIIS solution               ....       0.031 sec  (  0.0%)
Grid generation             ....       0.174 sec  (  0.1%)


-------------------------------------------------------------------------------
                          DFT DISPERSION CORRECTION                            
                                                                               
                              DFTD3 V3.1  Rev 1                                
                          USING Becke-Johnson damping                          
-------------------------------------------------------------------------------
The TPSSH functional is recognized
Active option DFTDOPT                   ...         4   

molecular C6(AA) [au] = 648.820019 


            DFT-D V3
 parameters
 s6 scaling factor         :     1.0000 
 a1 scaling factor         :     0.4529 
 s8 scaling factor         :     2.2382 
 a2 scaling factor         :     4.6550 
 ad hoc parameters k1-k3   :    16.0000     1.3333    -4.0000 

 Edisp/kcal,au: -0.523517957819  -0.000834278881 
 E6   /kcal   :  -0.189794159 
 E8   /kcal   :  -0.333723799 
 % E8         :  63.746389915 

-------------------------   ----------------
Dispersion correction           -0.000834279
-------------------------   ----------------


-------------------------   --------------------
FINAL SINGLE POINT ENERGY     -1019.271912157853
-------------------------   --------------------


                            ***************************************
                            *     ORCA property calculations      *
                            ***************************************

                                    ---------------------
                                    Active property flags
                                    ---------------------
   (+) Dipole Moment


------------------------------------------------------------------------------
                       ORCA ELECTRIC PROPERTIES CALCULATION
------------------------------------------------------------------------------

Dipole Moment Calculation                       ... on
Quadrupole Moment Calculation                   ... off
Polarizability Calculation                      ... off
GBWName                                         ... 17_VO.gbw
Electron density file                           ... 17_VO.scfp
The origin for moment calculation is the CENTER OF MASS  = ( 0.000000,  0.000000  1.104702)

-------------
DIPOLE MOMENT
-------------
                                X             Y             Z
Electronic contribution:     -0.00000      -0.00000      -3.21951
Nuclear contribution   :      0.00000       0.00000       1.77684
                        -----------------------------------------
Total Dipole Moment    :     -0.00000      -0.00000      -1.44268
                        -----------------------------------------
Magnitude (a.u.)       :      1.44268
Magnitude (Debye)      :      3.66700



--------------------
Rotational spectrum 
--------------------
 
Rotational constants in cm-1:     0.000000     0.546523     0.546523 
Rotational constants in MHz :     0.000000 16384.348098 16384.348098 

 Dipole components along the rotational axes: 
x,y,z [a.u.] :    -1.442679    -0.000000    -0.000000 
x,y,z [Debye]:    -3.666999    -0.000000    -0.000000 

 

Timings for individual modules:

Sum of individual times         ...      124.654 sec (=   2.078 min)
GTO integral calculation        ...        3.160 sec (=   0.053 min)   2.5 %
SCF iterations                  ...      121.493 sec (=   2.025 min)  97.5 %
                             ****ORCA TERMINATED NORMALLY****
TOTAL RUN TIME: 0 days 0 hours 2 minutes 5 seconds 310 msec
