
                                 *****************
                                 * O   R   C   A *
                                 *****************

           --- An Ab Initio, DFT and Semiempirical electronic structure package ---

                  #######################################################
                  #                        -***-                        #
                  #          Department of theory and spectroscopy      #
                  #               Directorship: Frank Neese             #
                  #        Max Planck Institute fuer Kohlenforschung    #
                  #                Kaiser Wilhelm Platz 1               #
                  #                 D-45470 Muelheim/Ruhr               #
                  #                      Germany                        #
                  #                                                     #
                  #                  All rights reserved                #
                  #                        -***-                        #
                  #######################################################


                         Program Version 4.2.0 -  RELEASE  -


 With contributions from (in alphabetic order):
   Daniel Aravena         : Magnetic Suceptibility
   Michael Atanasov       : Ab Initio Ligand Field Theory (pilot matlab implementation)
   Alexander A. Auer      : GIAO ZORA, VPT2
   Ute Becker             : Parallelization
   Giovanni Bistoni       : ED, misc. LED, open-shell LED, HFLED
   Martin Brehm           : Molecular dynamics
   Dmytro Bykov           : SCF Hessian
   Vijay G. Chilkuri      : MRCI spin determinant printing, contributions to CSF-ICE
   Dipayan Datta          : RHF DLPNO-CCSD density
   Achintya Kumar Dutta   : EOM-CC, STEOM-CC
   Dmitry Ganyushin       : Spin-Orbit,Spin-Spin,Magnetic field MRCI
   Miquel Garcia          : C-PCM Hessian, Gaussian charge scheme
   Yang Guo               : DLPNO-NEVPT2, CIM, IAO-localization
   Andreas Hansen         : Spin unrestricted coupled pair/coupled cluster methods
   Benjamin Helmich-Paris : CASSCF linear response (MC-RPA)
   Lee Huntington         : MR-EOM, pCC
   Robert Izsak           : Overlap fitted RIJCOSX, COSX-SCS-MP3, EOM
   Christian Kollmar      : KDIIS, OOCD, Brueckner-CCSD(T), CCSD density
   Simone Kossmann        : Meta GGA functionals, TD-DFT gradient, OOMP2, MP2 Hessian
   Martin Krupicka        : AUTO-CI
   Lucas Lang             : DCDCAS
   Dagmar Lenk            : GEPOL surface, SMD
   Dimitrios Liakos       : Extrapolation schemes; Compound Job, initial MDCI parallelization
   Dimitrios Manganas     : Further ROCIS development; embedding schemes
   Dimitrios Pantazis     : SARC Basis sets
   Taras Petrenko         : DFT Hessian,TD-DFT gradient, ASA, ECA, R-Raman, ABS, FL, XAS/XES, NRVS
   Peter Pinski           : DLPNO-MP2, DLPNO-MP2 Gradient
   Christoph Reimann      : Effective Core Potentials
   Marius Retegan         : Local ZFS, SOC
   Christoph Riplinger    : Optimizer, TS searches, QM/MM, DLPNO-CCSD(T), (RO)-DLPNO pert. Triples
   Tobias Risthaus        : Range-separated hybrids, TD-DFT gradient, RPA, STAB
   Michael Roemelt        : Original ROCIS implementation
   Masaaki Saitow         : Open-shell DLPNO-CCSD energy and density
   Barbara Sandhoefer     : DKH picture change effects
   Avijit Sen             : IP-ROCIS
   Kantharuban Sivalingam : CASSCF convergence, NEVPT2, FIC-MRCI
   Bernardo de Souza      : ESD, SOC TD-DFT
   Georgi Stoychev        : AutoAux, RI-MP2 NMR
   Willem Van den Heuvel  : Paramagnetic NMR
   Boris Wezisla          : Elementary symmetry handling
   Frank Wennmohs         : Technical directorship


 We gratefully acknowledge several colleagues who have allowed us to
 interface, adapt or use parts of their codes:
   Stefan Grimme, W. Hujo, H. Kruse,             : VdW corrections, initial TS optimization,
                  C. Bannwarth                     DFT functionals, gCP, sTDA/sTD-DF
   Ed Valeev, F. Pavosevic, A. Kumar             : LibInt (2-el integral package), F12 methods
   Garnet Chan, S. Sharma, J. Yang, R. Olivares  : DMRG
   Ulf Ekstrom                                   : XCFun DFT Library
   Mihaly Kallay                                 : mrcc  (arbitrary order and MRCC methods)
   Andreas Klamt, Michael Diedenhofen            : otool_cosmo (COSMO solvation model)
   Jiri Pittner, Ondrej Demel                    : Mk-CCSD
   Frank Weinhold                                : gennbo (NPA and NBO analysis)
   Christopher J. Cramer and Donald G. Truhlar   : smd solvation model
   Lars Goerigk                                  : TD-DFT with DH, B97 family of functionals
   V. Asgeirsson, H. Jonsson                     : NEB implementation
   FAccTs GmbH                                   : IRC, NEB, NEB-TS, Multilevel, MM, QM/MM, CI optimization
   S Lehtola, MJT Oliveira, MAL Marques          : LibXC Library


 Your calculation uses the libint2 library for the computation of 2-el integrals
 For citations please refer to: http://libint.valeyev.net

 Your ORCA version has been built with support for libXC version: 4.2.3
 For citations please refer to: https://tddft.org/programs/libxc/

 This ORCA versions uses:
   CBLAS   interface :  Fast vector & matrix operations
   LAPACKE interface :  Fast linear algebra routines
   SCALAPACK package :  Parallel linear algebra routines


Your calculation utilizes the atom-pairwise dispersion correction
with the Becke-Johnson damping scheme (D3BJ)
Cite in your paper:
S.Grimme, S.Ehrlich, L.Goerigk, J Comput Chem, (2011), 32, 1456–1465 
S.Grimme, J.Antony, S.Ehrlich and H.Krieg, J.Chem.Phys., 132, (2010), 154104 
   

----- Orbital basis set information -----
Your calculation utilizes the basis: aug-cc-pVTZ 
    H, B-Ne : Obtained from the ccRepo (grant-hill.group.shef.ac.uk/ccrepo) Feb. 2017
              R. A. Kendall, T. H. Dunning, Jr., R. J. Harrison, J. Chem. Phys. 96, 6796 (1992)
         He : Obtained from the ccRepo (grant-hill.group.shef.ac.uk/ccrepo) Feb. 2017
              D. E. Woon, T. H. Dunning, Jr., J. Chem. Phys. 100, 2975 (1994)
  Li-Be, Na : Obtained from the ccRepo (grant-hill.group.shef.ac.uk/ccrepo) Feb. 2017
              B. P. Prascher, D. E. Woon, K. A. Peterson, T. H. Dunning, Jr., A. K. Wilson, Theor. Chem. Acc. 128, 69 (2011)
         Mg : Obtained from the Peterson Research Group Website (tyr0.chem.wsu.edu/~kipeters) Feb. 2017
              B. P. Prascher, D. E. Woon, K. A. Peterson, T. H. Dunning, Jr., A. K. Wilson, Theor. Chem. Acc. 128, 69 (2011)
      Al-Ar : Obtained from the ccRepo (grant-hill.group.shef.ac.uk/ccrepo) Feb. 2017
              D. E. Woon, T. H. Dunning, Jr., J. Chem. Phys. 98, 1358 (1993)
      Sc-Zn : Obtained from the ccRepo (grant-hill.group.shef.ac.uk/ccrepo) Feb. 2017
              N. B. Balabanov, K. A. Peterson, J. Chem. Phys. 123, 064107 (2005)
              N. B. Balabanov, K. A. Peterson, J. Chem. Phys. 125, 074110 (2006)
      Ga-Kr : Obtained from the ccRepo (grant-hill.group.shef.ac.uk/ccrepo) Feb. 2017
              A. K. Wilson, D. E. Woon, K. A. Peterson, T. H. Dunning, Jr., J. Chem. Phys. 110, 7667 (1999)
     Ag, Au : Obtained from the Peterson Research Group Website (tyr0.chem.wsu.edu/~kipeters) Feb. 2017
              K. A. Peterson, C. Puzzarini, Theor. Chem. Acc. 114, 283 (2005)

----- AuxJK basis set information -----
Your calculation utilizes the auxiliary basis: def2/JK
   H-Ba, Hf-Rn: F. Weigend, J. Comput. Chem. 29, 167 (2008).

================================================================================
                                        WARNINGS
                       Please study these warnings very carefully!
================================================================================


WARNING: your system is open-shell and RHF/RKS was chosen
  ===> : WILL SWITCH to UHF/UKS


INFO   : the flag for use of LIBINT has been found!

================================================================================
                                       INPUT FILE
================================================================================
NAME = 19_CrH.in
|  1> #
|  2> # 19_CrH tpssh/aug-cc-pvtz
|  3> #
|  4> ! tpssh d3bj aug-cc-pvtz def2/jk grid4 nofinalgrid
|  5> 
|  6> *xyz 0 6
|  7>   Cr  0.00000000000000      0.00000000000000      0.17036458455703
|  8>   H   0.00000000000000      0.00000000000000      1.82963541544297
|  9> *
| 10> 
| 11> %pal
| 12> nprocs 24
| 13> end
| 14> 
| 15> 
| 16>                          ****END OF INPUT****
================================================================================

                       ****************************
                       * Single Point Calculation *
                       ****************************

---------------------------------
CARTESIAN COORDINATES (ANGSTROEM)
---------------------------------
  Cr     0.000000    0.000000    0.170365
  H      0.000000    0.000000    1.829635

----------------------------
CARTESIAN COORDINATES (A.U.)
----------------------------
  NO LB      ZA    FRAG     MASS         X           Y           Z
   0 Cr   24.0000    0    52.000    0.000000    0.000000    0.321942
   1 H     1.0000    0     1.008    0.000000    0.000000    3.457510

--------------------------------
INTERNAL COORDINATES (ANGSTROEM)
--------------------------------
 Cr     0   0   0     0.000000000000     0.00000000     0.00000000
 H      1   0   0     1.659270830886     0.00000000     0.00000000

---------------------------
INTERNAL COORDINATES (A.U.)
---------------------------
 Cr     0   0   0     0.000000000000     0.00000000     0.00000000
 H      1   0   0     3.135567452378     0.00000000     0.00000000

---------------------
BASIS SET INFORMATION
---------------------
There are 2 groups of distinct atoms

 Group   1 Type Cr  : 116s77p23d3f2g contracted to 8s7p5d3f2g pattern {19191919191911/151515151511/77711/111/11}
 Group   2 Type H   : 6s3p2d contracted to 4s3p2d pattern {3111/111/11}

Atom   0Cr   basis set group =>   1
Atom   1H    basis set group =>   2
----------------------------------
AUXILIARY/JK BASIS SET INFORMATION
----------------------------------
There are 2 groups of distinct atoms

 Group   1 Type Cr  : 19s14p12d10f7g3h1i contracted to 16s13p11d9f5g3h1i pattern {4111111111111111/2111111111111/21111111111/211111111/31111/111/1}
 Group   2 Type H   : 4s2p2d contracted to 2s2p2d pattern {31/11/11}

Atom   0Cr   basis set group =>   1
Atom   1H    basis set group =>   2


           ************************************************************
           *        Program running with 24 parallel MPI-processes    *
           *              working on a common directory               *
           ************************************************************
------------------------------------------------------------------------------
                           ORCA GTO INTEGRAL CALCULATION
------------------------------------------------------------------------------

                         BASIS SET STATISTICS AND STARTUP INFO

 # of primitive gaussian shells          ...  232
 # of primitive gaussian functions       ...  526
 # of contracted shells                  ...   34
 # of contracted basis functions         ...  116
 Highest angular momentum                ...    4
 Maximum contraction depth               ...   19
 Integral package used                   ... LIBINT
 Integral threshhold            Thresh   ...  1.000e-10
 Primitive cut-off              TCut     ...  1.000e-11


------------------------------ INTEGRAL EVALUATION ----------------------------


 * One electron integrals 
 Pre-screening matrix                    ... done
 Shell pair data                         ... done (   0.001 sec)



           ************************************************************
           *        Program running with 24 parallel MPI-processes    *
           *              working on a common directory               *
           ************************************************************
-------------------------------------------------------------------------------
                                 ORCA SCF
-------------------------------------------------------------------------------

------------
SCF SETTINGS
------------
Hamiltonian:
 Density Functional     Method          .... DFT(GTOs)
 Exchange Functional    Exchange        .... TPSS
 Correlation Functional Correlation     .... TPSS
 LDA part of GGA corr.  LDAOpt          .... PW91-LDA
 Gradients option       PostSCFGGA      .... off
 Hybrid DFT is turned on
   Fraction HF Exchange ScalHFX         ....  0.100000
   Scaling of DF-GGA-X  ScalDFX         ....  0.900000
   Scaling of DF-GGA-C  ScalDFC         ....  1.000000
   Scaling of DF-LDA-C  ScalLDAC        ....  1.000000
   Perturbative correction              ....  0.000000
   Density functional embedding theory  .... OFF
   NL short-range parameter             ....  5.200000


General Settings:
 Integral files         IntName         .... 19_CrH
 Hartree-Fock type      HFTyp           .... UHF
 Total Charge           Charge          ....    0
 Multiplicity           Mult            ....    6
 Number of Electrons    NEL             ....   25
 Basis Dimension        Dim             ....  116
 Nuclear Repulsion      ENuc            ....      7.6541169547 Eh

Convergence Acceleration:
 DIIS                   CNVDIIS         .... on
   Start iteration      DIISMaxIt       ....    12
   Startup error        DIISStart       ....  0.200000
   # of expansion vecs  DIISMaxEq       ....     5
   Bias factor          DIISBfac        ....   1.050
   Max. coefficient     DIISMaxC        ....  10.000
 Newton-Raphson         CNVNR           .... off
 SOSCF                  CNVSOSCF        .... off
 Level Shifting         CNVShift        .... on
   Level shift para.    LevelShift      ....    0.2500
   Turn off err/grad.   ShiftErr        ....    0.0010
 Zerner damping         CNVZerner       .... off
 Static damping         CNVDamp         .... on
   Fraction old density DampFac         ....    0.7000
   Max. Damping (<1)    DampMax         ....    0.9800
   Min. Damping (>=0)   DampMin         ....    0.0000
   Turn off err/grad.   DampErr         ....    0.1000
 Fernandez-Rico         CNVRico         .... off

SCF Procedure:
 Maximum # iterations   MaxIter         ....   125
 SCF integral mode      SCFMode         .... Direct
   Integral package                     .... LIBINT
 Reset frequency        DirectResetFreq ....    20
 Integral Threshold     Thresh          ....  1.000e-10 Eh
 Primitive CutOff       TCut            ....  1.000e-11 Eh

Convergence Tolerance:
 Convergence Check Mode ConvCheckMode   .... Total+1el-Energy
 Convergence forced     ConvForced      .... 0
 Energy Change          TolE            ....  1.000e-06 Eh
 1-El. energy change                    ....  1.000e-03 Eh
 DIIS Error             TolErr          ....  1.000e-06


Diagonalization of the overlap matrix:
Smallest eigenvalue                        ... 8.982e-05
Time for diagonalization                   ...    0.004 sec
Threshold for overlap eigenvalues          ... 1.000e-08
Number of eigenvalues below threshold      ... 0
Time for construction of square roots      ...    0.002 sec
Total time needed                          ...    0.006 sec

-------------------
DFT GRID GENERATION
-------------------

General Integration Accuracy     IntAcc      ...  4.670
Radial Grid Type                 RadialGrid  ... Gauss-Chebyshev
Angular Grid (max. acc.)         AngularGrid ... Lebedev-302
Angular grid pruning method      GridPruning ... 3 (G Style)
Weight generation scheme         WeightScheme... Becke
Basis function cutoff            BFCut       ...    1.0000e-10
Integration weight cutoff        WCut        ...    1.0000e-14
Grids for H and He will be reduced by one unit

# of grid points (after initial pruning)     ...  13058 (   0.0 sec)
# of grid points (after weights+screening)   ...  13018 (   0.0 sec)
nearest neighbour list constructed           ...    0.0 sec
Grid point re-assignment to atoms done       ...    0.0 sec
Grid point division into batches done        ...    0.1 sec
Reduced shell lists constructed in    0.1 sec

Total number of grid points                  ...    13018
Total number of batches                      ...      205
Average number of points per batch           ...       63
Average number of grid points per atom       ...     6509
Average number of shells per batch           ...    14.90 (43.82%)
Average number of basis functions per batch  ...    36.70 (31.64%)
Average number of large shells per batch     ...     8.60 (57.72%)
Average number of large basis fcns per batch ...    22.20 (60.49%)
Maximum spatial batch extension              ...  31.41, 28.57, 18.88 au
Average spatial batch extension              ...   1.01,  0.93,  0.72 au

Time for grid setup =    0.121 sec

------------------------------
INITIAL GUESS: MODEL POTENTIAL
------------------------------
Loading Hartree-Fock densities                     ... done
Calculating cut-offs                               ... done
Setting up the integral package                    ... done
Initializing the effective Hamiltonian             ... done
Starting the Coulomb interaction                   ... done (   0.0 sec)
Reading the grid                                   ... done
Mapping shells                                     ... done
Starting the XC term evaluation                    ... done (   0.0 sec)
  promolecular density results
     # of electrons  =     24.999514660
     EX              =    -47.468009517
     EC              =     -1.033786700
     EX+EC           =    -48.501796216
Transforming the Hamiltonian                       ... done (   0.0 sec)
Diagonalizing the Hamiltonian                      ... done (   0.0 sec)
Back transforming the eigenvectors                 ... done (   0.0 sec)
Now organizing SCF variables                       ... done
                      ------------------
                      INITIAL GUESS DONE (   0.2 sec)
                      ------------------
--------------
SCF ITERATIONS
--------------
ITER       Energy         Delta-E        Max-DP      RMS-DP      [F,P]     Damp
               ***  Starting incremental Fock matrix formation  ***
  0  -1045.0011357995   0.000000000000 0.08909482  0.00201572  0.1170034 0.7000
  1  -1045.0239388875  -0.022803087986 0.02421239  0.00071524  0.0820318 0.7000
                               ***Turning on DIIS***
  2  -1045.0343852463  -0.010446358814 0.07483346  0.00170867  0.0487361 0.0000
  3  -1045.0539508172  -0.019565570898 0.01733130  0.00052896  0.0294682 0.0000
  4  -1045.0570438237  -0.003093006500 0.03008414  0.00075474  0.0188051 0.0000
  5  -1045.0579479300  -0.000904106309 0.00972454  0.00019766  0.0054541 0.0000
  6  -1045.0582802922  -0.000332362180 0.00675639  0.00011576  0.0035750 0.0000
  7  -1045.0584313138  -0.000151021607 0.00484416  0.00006808  0.0020205 0.0000
  8  -1045.0585018224  -0.000070508586 0.00404447  0.00005441  0.0014434 0.0000
  9  -1045.0585398844  -0.000038061950 0.00938793  0.00012391  0.0009088 0.0000
 10  -1045.0585791314  -0.000039247079 0.00059521  0.00001469  0.0009925 0.0000
 11  -1045.0585814487  -0.000002317280 0.00187658  0.00002512  0.0002030 0.0000
 12  -1045.0585821190  -0.000000670297 0.00024812  0.00000481  0.0002199 0.0000
                 **** Energy Check signals convergence ****

               *****************************************************
               *                     SUCCESS                       *
               *           SCF CONVERGED AFTER  13 CYCLES          *
               *****************************************************


----------------
TOTAL SCF ENERGY
----------------

Total Energy       :        -1045.05858237 Eh          -28437.48976 eV

Components:
Nuclear Repulsion  :            7.65411695 Eh             208.27911 eV
Electronic Energy  :        -1052.71269933 Eh          -28645.76887 eV
One Electron Energy:        -1453.90754823 Eh          -39562.83572 eV
Two Electron Energy:          401.19484890 Eh           10917.06685 eV

Virial components:
Potential Energy   :        -2088.42653670 Eh          -56828.97519 eV
Kinetic Energy     :         1043.36795433 Eh           28391.48543 eV
Virial Ratio       :            2.00162036


DFT components:
N(Alpha)           :       15.000001087077 electrons
N(Beta)            :        9.999999234920 electrons
N(Total)           :       25.000000321997 electrons
E(X)               :      -43.287552127599 Eh       
E(C)               :       -1.022819691156 Eh       
E(XC)              :      -44.310371818755 Eh       
DFET-embed. en.    :        0.000000000000 Eh       

---------------
SCF CONVERGENCE
---------------

  Last Energy change         ...   -2.5507e-07  Tolerance :   1.0000e-06
  Last MAX-Density change    ...    2.3747e-04  Tolerance :   1.0000e-05
  Last RMS-Density change    ...    2.4270e-06  Tolerance :   1.0000e-06
  Last DIIS Error            ...    2.7574e-05  Tolerance :   1.0000e-06

             **** THE GBW FILE WAS UPDATED (19_CrH.gbw) ****
             **** DENSITY FILE WAS UPDATED (19_CrH.scfp) ****
             **** ENERGY FILE WAS UPDATED (19_CrH.en.tmp) ****
----------------------
UHF SPIN CONTAMINATION
----------------------

Warning: in a DFT calculation there is little theoretical justification to 
         calculate <S**2> as in Hartree-Fock theory. We will do it anyways
         but you should keep in mind that the values have only limited relevance

Expectation value of <S**2>     :     8.795674
Ideal value S*(S+1) for S=2.5   :     8.750000
Deviation                       :     0.045674

             **** THE GBW FILE WAS UPDATED (19_CrH.gbw) ****
             **** DENSITY FILE WAS UPDATED (19_CrH.scfp) ****
----------------
ORBITAL ENERGIES
----------------
                 SPIN UP ORBITALS
  NO   OCC          E(Eh)            E(eV) 
   0   1.0000    -215.444986     -5862.5561 
   1   1.0000     -24.499492      -666.6651 
   2   1.0000     -20.765828      -565.0669 
   3   1.0000     -20.764911      -565.0420 
   4   1.0000     -20.764911      -565.0420 
   5   1.0000      -2.837817       -77.2209 
   6   1.0000      -1.795273       -48.8519 
   7   1.0000      -1.793354       -48.7996 
   8   1.0000      -1.793354       -48.7996 
   9   1.0000      -0.258777        -7.0417 
  10   1.0000      -0.193266        -5.2590 
  11   1.0000      -0.193266        -5.2590 
  12   1.0000      -0.186376        -5.0716 
  13   1.0000      -0.186376        -5.0715 
  14   1.0000      -0.175542        -4.7767 
  15   0.0000      -0.079704        -2.1689 
  16   0.0000      -0.034225        -0.9313 
  17   0.0000      -0.034225        -0.9313 
  18   0.0000       0.004718         0.1284 
  19   0.0000       0.017528         0.4770 
  20   0.0000       0.028197         0.7673 
  21   0.0000       0.028197         0.7673 
  22   0.0000       0.044866         1.2209 
  23   0.0000       0.046565         1.2671 
  24   0.0000       0.046566         1.2671 
  25   0.0000       0.048339         1.3154 
  26   0.0000       0.048339         1.3154 
  27   0.0000       0.070362         1.9146 
  28   0.0000       0.108725         2.9586 
  29   0.0000       0.147671         4.0183 
  30   0.0000       0.147671         4.0183 
  31   0.0000       0.163914         4.4603 
  32   0.0000       0.188093         5.1183 
  33   0.0000       0.202541         5.5114 
  34   0.0000       0.202541         5.5114 
  35   0.0000       0.204945         5.5768 
  36   0.0000       0.204945         5.5768 
  37   0.0000       0.269848         7.3429 
  38   0.0000       0.269848         7.3429 
  39   0.0000       0.271871         7.3980 
  40   0.0000       0.396128        10.7792 
  41   0.0000       0.522117        14.2075 
  42   0.0000       0.522117        14.2075 
  43   0.0000       0.523165        14.2360 
  44   0.0000       0.523165        14.2360 
  45   0.0000       0.597968        16.2715 
  46   0.0000       0.597968        16.2715 
  47   0.0000       0.604001        16.4357 
  48   0.0000       0.626873        17.0581 
  49   0.0000       0.626873        17.0581 
  50   0.0000       0.639971        17.4145 
  51   0.0000       0.694099        18.8874 
  52   0.0000       0.773854        21.0576 
  53   0.0000       0.773854        21.0576 
  54   0.0000       0.787963        21.4416 
  55   0.0000       0.787964        21.4416 
  56   0.0000       0.906654        24.6713 
  57   0.0000       0.906660        24.6715 
  58   0.0000       0.924328        25.1522 
  59   0.0000       0.957184        26.0463 
  60   0.0000       0.957184        26.0463 
  61   0.0000       1.188848        32.3502 
  62   0.0000       1.346500        36.6401 
  63   0.0000       1.346500        36.6401 
  64   0.0000       1.636111        44.5208 
  65   0.0000       1.716585        46.7106 
  66   0.0000       1.762141        47.9503 
  67   0.0000       1.762141        47.9503 
  68   0.0000       1.765076        48.0302 
  69   0.0000       1.765085        48.0304 
  70   0.0000       1.871685        50.9311 
  71   0.0000       1.871685        50.9311 
  72   0.0000       2.106223        57.3132 
  73   0.0000       2.158540        58.7369 
  74   0.0000       2.158575        58.7378 
  75   0.0000       2.159876        58.7732 
  76   0.0000       2.159876        58.7732 
  77   0.0000       2.268387        61.7260 
  78   0.0000       2.268397        61.7262 
  79   0.0000       2.281174        62.0739 
  80   0.0000       2.281174        62.0739 
  81   0.0000       2.351505        63.9877 
  82   0.0000       2.516572        68.4794 
  83   0.0000       2.516572        68.4794 
  84   0.0000       2.695833        73.3574 
  85   0.0000       3.045553        82.8737 
  86   0.0000       3.285398        89.4002 
  87   0.0000       3.285405        89.4004 
  88   0.0000       3.406131        92.6855 
  89   0.0000       3.406131        92.6855 
  90   0.0000       3.734128       101.6108 
  91   0.0000       3.810747       103.6957 
  92   0.0000       3.810883       103.6994 
  93   0.0000       4.155724       113.0830 
  94   0.0000       4.155724       113.0830 
  95   0.0000       4.248896       115.6183 
  96   0.0000       4.248896       115.6183 
  97   0.0000       4.588758       124.8665 
  98   0.0000       4.900192       133.3410 
  99   0.0000       6.121430       166.5726 
 100   0.0000       6.121455       166.5733 
 101   0.0000       6.121548       166.5758 
 102   0.0000       6.121548       166.5758 
 103   0.0000       6.235953       169.6889 
 104   0.0000       6.235953       169.6889 
 105   0.0000       6.485872       176.4895 
 106   0.0000       6.631457       180.4511 
 107   0.0000       6.631457       180.4511 
 108   0.0000       6.633836       180.5159 
 109   0.0000       6.633901       180.5176 
 110   0.0000       6.686810       181.9574 
 111   0.0000       6.686845       181.9583 
 112   0.0000       6.851629       186.4423 
 113   0.0000       6.851629       186.4423 
 114   0.0000       6.953409       189.2119 
 115   0.0000       7.924466       215.6357 

                 SPIN DOWN ORBITALS
  NO   OCC          E(Eh)            E(eV) 
   0   1.0000    -215.444184     -5862.5343 
   1   1.0000     -24.442020      -665.1012 
   2   1.0000     -20.721360      -563.8569 
   3   1.0000     -20.715091      -563.6863 
   4   1.0000     -20.715091      -563.6863 
   5   1.0000      -2.664702       -72.5102 
   6   1.0000      -1.621401       -44.1206 
   7   1.0000      -1.607878       -43.7526 
   8   1.0000      -1.607878       -43.7526 
   9   1.0000      -0.250236        -6.8093 
  10   0.0000      -0.069222        -1.8836 
  11   0.0000      -0.007687        -0.2092 
  12   0.0000      -0.003475        -0.0946 
  13   0.0000      -0.003475        -0.0946 
  14   0.0000       0.008280         0.2253 
  15   0.0000       0.008280         0.2253 
  16   0.0000       0.014651         0.3987 
  17   0.0000       0.014651         0.3987 
  18   0.0000       0.017296         0.4707 
  19   0.0000       0.029150         0.7932 
  20   0.0000       0.043143         1.1740 
  21   0.0000       0.043143         1.1740 
  22   0.0000       0.060753         1.6532 
  23   0.0000       0.067087         1.8255 
  24   0.0000       0.067087         1.8255 
  25   0.0000       0.069692         1.8964 
  26   0.0000       0.069693         1.8964 
  27   0.0000       0.080934         2.2023 
  28   0.0000       0.136334         3.7098 
  29   0.0000       0.181615         4.9420 
  30   0.0000       0.181615         4.9420 
  31   0.0000       0.186442         5.0733 
  32   0.0000       0.207349         5.6422 
  33   0.0000       0.236115         6.4250 
  34   0.0000       0.236115         6.4250 
  35   0.0000       0.246796         6.7157 
  36   0.0000       0.246797         6.7157 
  37   0.0000       0.278110         7.5678 
  38   0.0000       0.278110         7.5678 
  39   0.0000       0.290277         7.8988 
  40   0.0000       0.419522        11.4158 
  41   0.0000       0.550776        14.9874 
  42   0.0000       0.550776        14.9874 
  43   0.0000       0.562335        15.3019 
  44   0.0000       0.562335        15.3019 
  45   0.0000       0.645607        17.5679 
  46   0.0000       0.645607        17.5679 
  47   0.0000       0.648811        17.6550 
  48   0.0000       0.658662        17.9231 
  49   0.0000       0.663238        18.0476 
  50   0.0000       0.663238        18.0476 
  51   0.0000       0.708809        19.2877 
  52   0.0000       0.839080        22.8325 
  53   0.0000       0.839080        22.8325 
  54   0.0000       0.842780        22.9332 
  55   0.0000       0.842781        22.9332 
  56   0.0000       0.936323        25.4786 
  57   0.0000       0.936327        25.4787 
  58   0.0000       0.947204        25.7747 
  59   0.0000       0.949438        25.8355 
  60   0.0000       0.949438        25.8355 
  61   0.0000       1.225952        33.3598 
  62   0.0000       1.375848        37.4387 
  63   0.0000       1.375848        37.4387 
  64   0.0000       1.716900        46.7192 
  65   0.0000       1.765213        48.0339 
  66   0.0000       1.868339        50.8401 
  67   0.0000       1.868339        50.8401 
  68   0.0000       1.873029        50.9677 
  69   0.0000       1.873050        50.9683 
  70   0.0000       1.956537        53.2401 
  71   0.0000       1.956537        53.2401 
  72   0.0000       2.155512        58.6545 
  73   0.0000       2.226396        60.5833 
  74   0.0000       2.226422        60.5840 
  75   0.0000       2.234924        60.8154 
  76   0.0000       2.234924        60.8154 
  77   0.0000       2.331284        63.4375 
  78   0.0000       2.331287        63.4376 
  79   0.0000       2.387623        64.9705 
  80   0.0000       2.387623        64.9705 
  81   0.0000       2.438718        66.3609 
  82   0.0000       2.576696        70.1155 
  83   0.0000       2.576696        70.1155 
  84   0.0000       2.757304        75.0301 
  85   0.0000       3.061533        83.3085 
  86   0.0000       3.419026        93.0364 
  87   0.0000       3.419032        93.0366 
  88   0.0000       3.530368        96.0662 
  89   0.0000       3.530368        96.0662 
  90   0.0000       3.816139       103.8424 
  91   0.0000       3.816257       103.8456 
  92   0.0000       3.829428       104.2040 
  93   0.0000       4.195819       114.1740 
  94   0.0000       4.195819       114.1740 
  95   0.0000       4.266716       116.1032 
  96   0.0000       4.266716       116.1032 
  97   0.0000       4.652825       126.6098 
  98   0.0000       4.947291       134.6226 
  99   0.0000       6.305558       171.5830 
 100   0.0000       6.305558       171.5830 
 101   0.0000       6.316965       171.8934 
 102   0.0000       6.316983       171.8938 
 103   0.0000       6.411593       174.4683 
 104   0.0000       6.411593       174.4683 
 105   0.0000       6.639594       180.6725 
 106   0.0000       6.754977       183.8123 
 107   0.0000       6.755021       183.8135 
 108   0.0000       6.758081       183.8967 
 109   0.0000       6.758081       183.8967 
 110   0.0000       6.806740       185.2208 
 111   0.0000       6.806754       185.2212 
 112   0.0000       6.964764       189.5209 
 113   0.0000       6.964764       189.5209 
 114   0.0000       7.069241       192.3638 
 115   0.0000       8.068398       219.5523 

                    ********************************
                    * MULLIKEN POPULATION ANALYSIS *
                    ********************************

--------------------------------------------
MULLIKEN ATOMIC CHARGES AND SPIN POPULATIONS
--------------------------------------------
   0 Cr:    0.268267    5.157271
   1 H :   -0.268267   -0.157271
Sum of atomic charges         :   -0.0000000
Sum of atomic spin populations:    5.0000000

-----------------------------------------------------
MULLIKEN REDUCED ORBITAL CHARGES AND SPIN POPULATIONS
-----------------------------------------------------
CHARGE
  0 Crs       :     6.779544  s :     6.779544
      pz      :     4.096041  p :    12.101391
      px      :     4.002675
      py      :     4.002675
      dz2     :     0.849595  d :     4.843223
      dxz     :     0.997226
      dyz     :     0.997226
      dx2y2   :     0.999588
      dxy     :     0.999588
      f0      :     0.006750  f :     0.007228
      f+1     :     0.000041
      f-1     :     0.000041
      f+2     :     0.000198
      f-2     :     0.000198
      f+3     :     0.000000
      f-3     :     0.000000
      g0      :     0.000350  g :     0.000347
      g+1     :    -0.000002
      g-1     :    -0.000002
      g+2     :     0.000000
      g-2     :     0.000000
      g+3     :     0.000000
      g-3     :     0.000000
      g+4     :     0.000000
      g-4     :     0.000000
  1 H s       :     1.267070  s :     1.267070
      pz      :     0.000653  p :     0.002522
      px      :     0.000934
      py      :     0.000934
      dz2     :    -0.000003  d :    -0.001325
      dxz     :    -0.000874
      dyz     :    -0.000874
      dx2y2   :     0.000213
      dxy     :     0.000213

SPIN
  0 Crs       :     0.507102  s :     0.507102
      pz      :     0.005131  p :     0.010353
      px      :     0.002611
      py      :     0.002611
      dz2     :     0.647592  d :     4.641079
      dxz     :     0.997155
      dyz     :     0.997155
      dx2y2   :     0.999588
      dxy     :     0.999588
      f0      :    -0.001319  f :    -0.000842
      f+1     :     0.000040
      f-1     :     0.000040
      f+2     :     0.000198
      f-2     :     0.000198
      f+3     :     0.000000
      f-3     :     0.000000
      g0      :    -0.000417  g :    -0.000421
      g+1     :    -0.000002
      g-1     :    -0.000002
      g+2     :     0.000000
      g-2     :     0.000000
      g+3     :     0.000000
      g-3     :     0.000000
      g+4     :     0.000000
      g-4     :     0.000000
  1 H s       :    -0.156530  s :    -0.156530
      pz      :    -0.000956  p :     0.000723
      px      :     0.000839
      py      :     0.000839
      dz2     :    -0.000604  d :    -0.001463
      dxz     :    -0.000643
      dyz     :    -0.000643
      dx2y2   :     0.000213
      dxy     :     0.000213


                     *******************************
                     * LOEWDIN POPULATION ANALYSIS *
                     *******************************

-------------------------------------------
LOEWDIN ATOMIC CHARGES AND SPIN POPULATIONS
-------------------------------------------
   0 Cr:    0.609079    4.891969
   1 H :   -0.609079    0.108031

----------------------------------------------------
LOEWDIN REDUCED ORBITAL CHARGES AND SPIN POPULATIONS
----------------------------------------------------
CHARGE
  0 Crs       :     6.630668  s :     6.630668
      pz      :     4.082711  p :    11.996836
      px      :     3.957063
      py      :     3.957063
      dz2     :     0.863459  d :     4.727846
      dxz     :     0.939838
      dyz     :     0.939838
      dx2y2   :     0.992356
      dxy     :     0.992356
      f0      :     0.026885  f :     0.032068
      f+1     :     0.001970
      f-1     :     0.001970
      f+2     :     0.000622
      f-2     :     0.000622
      f+3     :     0.000000
      f-3     :     0.000000
      g0      :     0.002911  g :     0.003504
      g+1     :     0.000270
      g-1     :     0.000270
      g+2     :     0.000026
      g-2     :     0.000026
      g+3     :     0.000000
      g-3     :     0.000000
      g+4     :     0.000000
      g-4     :     0.000000
  1 H s       :     1.070111  s :     1.070111
      pz      :     0.195914  p :     0.283740
      px      :     0.043913
      py      :     0.043913
      dz2     :     0.127342  d :     0.255229
      dxz     :     0.056947
      dyz     :     0.056947
      dx2y2   :     0.006997
      dxy     :     0.006997

SPIN
  0 Crs       :     0.459302  s :     0.459302
      pz      :    -0.038782  p :    -0.020004
      px      :     0.009389
      py      :     0.009389
      dz2     :     0.597070  d :     4.455946
      dxz     :     0.937082
      dyz     :     0.937082
      dx2y2   :     0.992356
      dxy     :     0.992356
      f0      :    -0.006904  f :    -0.002712
      f+1     :     0.001474
      f-1     :     0.001474
      f+2     :     0.000622
      f-2     :     0.000622
      f+3     :     0.000000
      f-3     :     0.000000
      g0      :    -0.001083  g :    -0.000563
      g+1     :     0.000234
      g-1     :     0.000234
      g+2     :     0.000026
      g-2     :     0.000026
      g+3     :     0.000000
      g-3     :     0.000000
      g+4     :     0.000000
      g-4     :     0.000000
  1 H s       :    -0.044235  s :    -0.044235
      pz      :     0.033775  p :     0.088083
      px      :     0.027154
      py      :     0.027154
      dz2     :     0.000856  d :     0.064182
      dxz     :     0.024667
      dyz     :     0.024667
      dx2y2   :     0.006997
      dxy     :     0.006997


                      *****************************
                      * MAYER POPULATION ANALYSIS *
                      *****************************

  NA   - Mulliken gross atomic population
  ZA   - Total nuclear charge
  QA   - Mulliken gross atomic charge
  VA   - Mayer's total valence
  BVA  - Mayer's bonded valence
  FA   - Mayer's free valence

  ATOM       NA         ZA         QA         VA         BVA        FA
  0 Cr    23.7317    24.0000     0.2683     5.9446     0.9839     4.9607
  1 H      1.2683     1.0000    -0.2683     1.0293     0.9839     0.0454

  Mayer bond orders larger than 0.100000
B(  0-Cr,  1-H ) :   0.9839 

-------
TIMINGS
-------

Total SCF time: 0 days 0 hours 1 min 19 sec 

Total time                  ....      79.191 sec
Sum of individual times     ....      78.854 sec  ( 99.6%)

Fock matrix formation       ....      78.562 sec  ( 99.2%)
  XC integration            ....       0.361 sec  (  0.5% of F)
    Basis function eval.    ....       0.048 sec  ( 13.3% of XC)
    Density eval.           ....       0.049 sec  ( 13.7% of XC)
    XC-Functional eval.     ....       0.015 sec  (  4.3% of XC)
    XC-Potential eval.      ....       0.135 sec  ( 37.5% of XC)
Diagonalization             ....       0.045 sec  (  0.1%)
Density matrix formation    ....       0.008 sec  (  0.0%)
Population analysis         ....       0.005 sec  (  0.0%)
Initial guess               ....       0.095 sec  (  0.1%)
Orbital Transformation      ....       0.000 sec  (  0.0%)
Orbital Orthonormalization  ....       0.000 sec  (  0.0%)
DIIS solution               ....       0.018 sec  (  0.0%)
Grid generation             ....       0.121 sec  (  0.2%)


-------------------------------------------------------------------------------
                          DFT DISPERSION CORRECTION                            
                                                                               
                              DFTD3 V3.1  Rev 1                                
                          USING Becke-Johnson damping                          
-------------------------------------------------------------------------------
The TPSSH functional is recognized
Active option DFTDOPT                   ...         4   

molecular C6(AA) [au] = 544.079690 


            DFT-D V3
 parameters
 s6 scaling factor         :     1.0000 
 a1 scaling factor         :     0.4529 
 s8 scaling factor         :     2.2382 
 a2 scaling factor         :     4.6550 
 ad hoc parameters k1-k3   :    16.0000     1.3333    -4.0000 

 Edisp/kcal,au: -0.354455659493  -0.000564860988 
 E6   /kcal   :  -0.146416354 
 E8   /kcal   :  -0.208039305 
 % E8         :  58.692617771 

-------------------------   ----------------
Dispersion correction           -0.000564861
-------------------------   ----------------


-------------------------   --------------------
FINAL SINGLE POINT ENERGY     -1045.059147235068
-------------------------   --------------------


                            ***************************************
                            *     ORCA property calculations      *
                            ***************************************

                                    ---------------------
                                    Active property flags
                                    ---------------------
   (+) Dipole Moment


------------------------------------------------------------------------------
                       ORCA ELECTRIC PROPERTIES CALCULATION
------------------------------------------------------------------------------

Dipole Moment Calculation                       ... on
Quadrupole Moment Calculation                   ... off
Polarizability Calculation                      ... off
GBWName                                         ... 19_CrH.gbw
Electron density file                           ... 19_CrH.scfp
The origin for moment calculation is the CENTER OF MASS  = ( 0.000000,  0.000000  0.381568)

-------------
DIPOLE MOMENT
-------------
                                X             Y             Z
Electronic contribution:     -0.00000       0.00000      -2.84940
Nuclear contribution   :      0.00000       0.00000       1.64492
                        -----------------------------------------
Total Dipole Moment    :     -0.00000       0.00000      -1.20448
                        -----------------------------------------
Magnitude (a.u.)       :      1.20448
Magnitude (Debye)      :      3.06155



--------------------
Rotational spectrum 
--------------------
 
Rotational constants in cm-1:     0.000000     6.192127     6.192127 
Rotational constants in MHz :     0.000000 185635.310837 185635.310837 

 Dipole components along the rotational axes: 
x,y,z [a.u.] :    -1.204483     0.000000    -0.000000 
x,y,z [Debye]:    -3.061552     0.000000    -0.000000 

 

Timings for individual modules:

Sum of individual times         ...       82.753 sec (=   1.379 min)
GTO integral calculation        ...        3.081 sec (=   0.051 min)   3.7 %
SCF iterations                  ...       79.672 sec (=   1.328 min)  96.3 %
                             ****ORCA TERMINATED NORMALLY****
TOTAL RUN TIME: 0 days 0 hours 1 minutes 23 seconds 373 msec
