
                                 *****************
                                 * O   R   C   A *
                                 *****************

           --- An Ab Initio, DFT and Semiempirical electronic structure package ---

                  #######################################################
                  #                        -***-                        #
                  #          Department of theory and spectroscopy      #
                  #               Directorship: Frank Neese             #
                  #        Max Planck Institute fuer Kohlenforschung    #
                  #                Kaiser Wilhelm Platz 1               #
                  #                 D-45470 Muelheim/Ruhr               #
                  #                      Germany                        #
                  #                                                     #
                  #                  All rights reserved                #
                  #                        -***-                        #
                  #######################################################


                         Program Version 4.2.0 -  RELEASE  -


 With contributions from (in alphabetic order):
   Daniel Aravena         : Magnetic Suceptibility
   Michael Atanasov       : Ab Initio Ligand Field Theory (pilot matlab implementation)
   Alexander A. Auer      : GIAO ZORA, VPT2
   Ute Becker             : Parallelization
   Giovanni Bistoni       : ED, misc. LED, open-shell LED, HFLED
   Martin Brehm           : Molecular dynamics
   Dmytro Bykov           : SCF Hessian
   Vijay G. Chilkuri      : MRCI spin determinant printing, contributions to CSF-ICE
   Dipayan Datta          : RHF DLPNO-CCSD density
   Achintya Kumar Dutta   : EOM-CC, STEOM-CC
   Dmitry Ganyushin       : Spin-Orbit,Spin-Spin,Magnetic field MRCI
   Miquel Garcia          : C-PCM Hessian, Gaussian charge scheme
   Yang Guo               : DLPNO-NEVPT2, CIM, IAO-localization
   Andreas Hansen         : Spin unrestricted coupled pair/coupled cluster methods
   Benjamin Helmich-Paris : CASSCF linear response (MC-RPA)
   Lee Huntington         : MR-EOM, pCC
   Robert Izsak           : Overlap fitted RIJCOSX, COSX-SCS-MP3, EOM
   Christian Kollmar      : KDIIS, OOCD, Brueckner-CCSD(T), CCSD density
   Simone Kossmann        : Meta GGA functionals, TD-DFT gradient, OOMP2, MP2 Hessian
   Martin Krupicka        : AUTO-CI
   Lucas Lang             : DCDCAS
   Dagmar Lenk            : GEPOL surface, SMD
   Dimitrios Liakos       : Extrapolation schemes; Compound Job, initial MDCI parallelization
   Dimitrios Manganas     : Further ROCIS development; embedding schemes
   Dimitrios Pantazis     : SARC Basis sets
   Taras Petrenko         : DFT Hessian,TD-DFT gradient, ASA, ECA, R-Raman, ABS, FL, XAS/XES, NRVS
   Peter Pinski           : DLPNO-MP2, DLPNO-MP2 Gradient
   Christoph Reimann      : Effective Core Potentials
   Marius Retegan         : Local ZFS, SOC
   Christoph Riplinger    : Optimizer, TS searches, QM/MM, DLPNO-CCSD(T), (RO)-DLPNO pert. Triples
   Tobias Risthaus        : Range-separated hybrids, TD-DFT gradient, RPA, STAB
   Michael Roemelt        : Original ROCIS implementation
   Masaaki Saitow         : Open-shell DLPNO-CCSD energy and density
   Barbara Sandhoefer     : DKH picture change effects
   Avijit Sen             : IP-ROCIS
   Kantharuban Sivalingam : CASSCF convergence, NEVPT2, FIC-MRCI
   Bernardo de Souza      : ESD, SOC TD-DFT
   Georgi Stoychev        : AutoAux, RI-MP2 NMR
   Willem Van den Heuvel  : Paramagnetic NMR
   Boris Wezisla          : Elementary symmetry handling
   Frank Wennmohs         : Technical directorship


 We gratefully acknowledge several colleagues who have allowed us to
 interface, adapt or use parts of their codes:
   Stefan Grimme, W. Hujo, H. Kruse,             : VdW corrections, initial TS optimization,
                  C. Bannwarth                     DFT functionals, gCP, sTDA/sTD-DF
   Ed Valeev, F. Pavosevic, A. Kumar             : LibInt (2-el integral package), F12 methods
   Garnet Chan, S. Sharma, J. Yang, R. Olivares  : DMRG
   Ulf Ekstrom                                   : XCFun DFT Library
   Mihaly Kallay                                 : mrcc  (arbitrary order and MRCC methods)
   Andreas Klamt, Michael Diedenhofen            : otool_cosmo (COSMO solvation model)
   Jiri Pittner, Ondrej Demel                    : Mk-CCSD
   Frank Weinhold                                : gennbo (NPA and NBO analysis)
   Christopher J. Cramer and Donald G. Truhlar   : smd solvation model
   Lars Goerigk                                  : TD-DFT with DH, B97 family of functionals
   V. Asgeirsson, H. Jonsson                     : NEB implementation
   FAccTs GmbH                                   : IRC, NEB, NEB-TS, Multilevel, MM, QM/MM, CI optimization
   S Lehtola, MJT Oliveira, MAL Marques          : LibXC Library


 Your calculation uses the libint2 library for the computation of 2-el integrals
 For citations please refer to: http://libint.valeyev.net

 Your ORCA version has been built with support for libXC version: 4.2.3
 For citations please refer to: https://tddft.org/programs/libxc/

 This ORCA versions uses:
   CBLAS   interface :  Fast vector & matrix operations
   LAPACKE interface :  Fast linear algebra routines
   SCALAPACK package :  Parallel linear algebra routines


Your calculation utilizes the atom-pairwise dispersion correction
with the Becke-Johnson damping scheme (D3BJ)
Cite in your paper:
S.Grimme, S.Ehrlich, L.Goerigk, J Comput Chem, (2011), 32, 1456–1465 
S.Grimme, J.Antony, S.Ehrlich and H.Krieg, J.Chem.Phys., 132, (2010), 154104 
   

----- Orbital basis set information -----
Your calculation utilizes the basis: aug-cc-pVTZ 
    H, B-Ne : Obtained from the ccRepo (grant-hill.group.shef.ac.uk/ccrepo) Feb. 2017
              R. A. Kendall, T. H. Dunning, Jr., R. J. Harrison, J. Chem. Phys. 96, 6796 (1992)
         He : Obtained from the ccRepo (grant-hill.group.shef.ac.uk/ccrepo) Feb. 2017
              D. E. Woon, T. H. Dunning, Jr., J. Chem. Phys. 100, 2975 (1994)
  Li-Be, Na : Obtained from the ccRepo (grant-hill.group.shef.ac.uk/ccrepo) Feb. 2017
              B. P. Prascher, D. E. Woon, K. A. Peterson, T. H. Dunning, Jr., A. K. Wilson, Theor. Chem. Acc. 128, 69 (2011)
         Mg : Obtained from the Peterson Research Group Website (tyr0.chem.wsu.edu/~kipeters) Feb. 2017
              B. P. Prascher, D. E. Woon, K. A. Peterson, T. H. Dunning, Jr., A. K. Wilson, Theor. Chem. Acc. 128, 69 (2011)
      Al-Ar : Obtained from the ccRepo (grant-hill.group.shef.ac.uk/ccrepo) Feb. 2017
              D. E. Woon, T. H. Dunning, Jr., J. Chem. Phys. 98, 1358 (1993)
      Sc-Zn : Obtained from the ccRepo (grant-hill.group.shef.ac.uk/ccrepo) Feb. 2017
              N. B. Balabanov, K. A. Peterson, J. Chem. Phys. 123, 064107 (2005)
              N. B. Balabanov, K. A. Peterson, J. Chem. Phys. 125, 074110 (2006)
      Ga-Kr : Obtained from the ccRepo (grant-hill.group.shef.ac.uk/ccrepo) Feb. 2017
              A. K. Wilson, D. E. Woon, K. A. Peterson, T. H. Dunning, Jr., J. Chem. Phys. 110, 7667 (1999)
     Ag, Au : Obtained from the Peterson Research Group Website (tyr0.chem.wsu.edu/~kipeters) Feb. 2017
              K. A. Peterson, C. Puzzarini, Theor. Chem. Acc. 114, 283 (2005)

----- AuxJK basis set information -----
Your calculation utilizes the auxiliary basis: def2/JK
   H-Ba, Hf-Rn: F. Weigend, J. Comput. Chem. 29, 167 (2008).

================================================================================
                                        WARNINGS
                       Please study these warnings very carefully!
================================================================================


WARNING: your system is open-shell and RHF/RKS was chosen
  ===> : WILL SWITCH to UHF/UKS


INFO   : the flag for use of LIBINT has been found!

================================================================================
                                       INPUT FILE
================================================================================
NAME = 20_CrF.in
|  1> #
|  2> # 20_CrF tpssh/aug-cc-pvtz
|  3> #
|  4> ! tpssh d3bj aug-cc-pvtz def2/jk grid4 nofinalgrid
|  5> 
|  6> *xyz 0 6
|  7>   Cr  0.00000000000000      0.00000000000000      0.10659678981823
|  8>   F   0.00000000000000      0.00000000000000      1.89340321018177
|  9> *
| 10> 
| 11> %pal
| 12> nprocs 24
| 13> end
| 14> 
| 15> 
| 16>                          ****END OF INPUT****
================================================================================

                       ****************************
                       * Single Point Calculation *
                       ****************************

---------------------------------
CARTESIAN COORDINATES (ANGSTROEM)
---------------------------------
  Cr     0.000000    0.000000    0.106597
  F      0.000000    0.000000    1.893403

----------------------------
CARTESIAN COORDINATES (A.U.)
----------------------------
  NO LB      ZA    FRAG     MASS         X           Y           Z
   0 Cr   24.0000    0    52.000    0.000000    0.000000    0.201439
   1 F     9.0000    0    18.998    0.000000    0.000000    3.578014

--------------------------------
INTERNAL COORDINATES (ANGSTROEM)
--------------------------------
 Cr     0   0   0     0.000000000000     0.00000000     0.00000000
 F      1   0   0     1.786806420364     0.00000000     0.00000000

---------------------------
INTERNAL COORDINATES (A.U.)
---------------------------
 Cr     0   0   0     0.000000000000     0.00000000     0.00000000
 F      1   0   0     3.376574788819     0.00000000     0.00000000

---------------------
BASIS SET INFORMATION
---------------------
There are 2 groups of distinct atoms

 Group   1 Type Cr  : 116s77p23d3f2g contracted to 8s7p5d3f2g pattern {19191919191911/151515151511/77711/111/11}
 Group   2 Type F   : 19s6p3d2f contracted to 5s4p3d2f pattern {88111/3111/111/11}

Atom   0Cr   basis set group =>   1
Atom   1F    basis set group =>   2
----------------------------------
AUXILIARY/JK BASIS SET INFORMATION
----------------------------------
There are 2 groups of distinct atoms

 Group   1 Type Cr  : 19s14p12d10f7g3h1i contracted to 16s13p11d9f5g3h1i pattern {4111111111111111/2111111111111/21111111111/211111111/31111/111/1}
 Group   2 Type F   : 14s10p6d2f1g contracted to 10s8p4d2f1g pattern {5111111111/31111111/3111/11/1}

Atom   0Cr   basis set group =>   1
Atom   1F    basis set group =>   2


           ************************************************************
           *        Program running with 24 parallel MPI-processes    *
           *              working on a common directory               *
           ************************************************************
------------------------------------------------------------------------------
                           ORCA GTO INTEGRAL CALCULATION
------------------------------------------------------------------------------

                         BASIS SET STATISTICS AND STARTUP INFO

 # of primitive gaussian shells          ...  251
 # of primitive gaussian functions       ...  567
 # of contracted shells                  ...   39
 # of contracted basis functions         ...  139
 Highest angular momentum                ...    4
 Maximum contraction depth               ...   19
 Integral package used                   ... LIBINT
 Integral threshhold            Thresh   ...  1.000e-10
 Primitive cut-off              TCut     ...  1.000e-11


------------------------------ INTEGRAL EVALUATION ----------------------------


 * One electron integrals 
 Pre-screening matrix                    ... done
 Shell pair data                         ... done (   0.001 sec)



           ************************************************************
           *        Program running with 24 parallel MPI-processes    *
           *              working on a common directory               *
           ************************************************************
-------------------------------------------------------------------------------
                                 ORCA SCF
-------------------------------------------------------------------------------

------------
SCF SETTINGS
------------
Hamiltonian:
 Density Functional     Method          .... DFT(GTOs)
 Exchange Functional    Exchange        .... TPSS
 Correlation Functional Correlation     .... TPSS
 LDA part of GGA corr.  LDAOpt          .... PW91-LDA
 Gradients option       PostSCFGGA      .... off
 Hybrid DFT is turned on
   Fraction HF Exchange ScalHFX         ....  0.100000
   Scaling of DF-GGA-X  ScalDFX         ....  0.900000
   Scaling of DF-GGA-C  ScalDFC         ....  1.000000
   Scaling of DF-LDA-C  ScalLDAC        ....  1.000000
   Perturbative correction              ....  0.000000
   Density functional embedding theory  .... OFF
   NL short-range parameter             ....  5.200000


General Settings:
 Integral files         IntName         .... 20_CrF
 Hartree-Fock type      HFTyp           .... UHF
 Total Charge           Charge          ....    0
 Multiplicity           Mult            ....    6
 Number of Electrons    NEL             ....   33
 Basis Dimension        Dim             ....  139
 Nuclear Repulsion      ENuc            ....     63.9701512655 Eh

Convergence Acceleration:
 DIIS                   CNVDIIS         .... on
   Start iteration      DIISMaxIt       ....    12
   Startup error        DIISStart       ....  0.200000
   # of expansion vecs  DIISMaxEq       ....     5
   Bias factor          DIISBfac        ....   1.050
   Max. coefficient     DIISMaxC        ....  10.000
 Newton-Raphson         CNVNR           .... off
 SOSCF                  CNVSOSCF        .... off
 Level Shifting         CNVShift        .... on
   Level shift para.    LevelShift      ....    0.2500
   Turn off err/grad.   ShiftErr        ....    0.0010
 Zerner damping         CNVZerner       .... off
 Static damping         CNVDamp         .... on
   Fraction old density DampFac         ....    0.7000
   Max. Damping (<1)    DampMax         ....    0.9800
   Min. Damping (>=0)   DampMin         ....    0.0000
   Turn off err/grad.   DampErr         ....    0.1000
 Fernandez-Rico         CNVRico         .... off

SCF Procedure:
 Maximum # iterations   MaxIter         ....   125
 SCF integral mode      SCFMode         .... Direct
   Integral package                     .... LIBINT
 Reset frequency        DirectResetFreq ....    20
 Integral Threshold     Thresh          ....  1.000e-10 Eh
 Primitive CutOff       TCut            ....  1.000e-11 Eh

Convergence Tolerance:
 Convergence Check Mode ConvCheckMode   .... Total+1el-Energy
 Convergence forced     ConvForced      .... 0
 Energy Change          TolE            ....  1.000e-06 Eh
 1-El. energy change                    ....  1.000e-03 Eh
 DIIS Error             TolErr          ....  1.000e-06


Diagonalization of the overlap matrix:
Smallest eigenvalue                        ... 8.925e-05
Time for diagonalization                   ...    0.005 sec
Threshold for overlap eigenvalues          ... 1.000e-08
Number of eigenvalues below threshold      ... 0
Time for construction of square roots      ...    0.002 sec
Total time needed                          ...    0.007 sec

-------------------
DFT GRID GENERATION
-------------------

General Integration Accuracy     IntAcc      ...  4.670
Radial Grid Type                 RadialGrid  ... Gauss-Chebyshev
Angular Grid (max. acc.)         AngularGrid ... Lebedev-302
Angular grid pruning method      GridPruning ... 3 (G Style)
Weight generation scheme         WeightScheme... Becke
Basis function cutoff            BFCut       ...    1.0000e-10
Integration weight cutoff        WCut        ...    1.0000e-14
Grids for H and He will be reduced by one unit

# of grid points (after initial pruning)     ...  15936 (   0.0 sec)
# of grid points (after weights+screening)   ...  15887 (   0.0 sec)
nearest neighbour list constructed           ...    0.0 sec
Grid point re-assignment to atoms done       ...    0.0 sec
Grid point division into batches done        ...    0.1 sec
Reduced shell lists constructed in    0.1 sec

Total number of grid points                  ...    15887
Total number of batches                      ...      250
Average number of points per batch           ...       63
Average number of grid points per atom       ...     7944
Average number of shells per batch           ...    14.42 (36.97%)
Average number of basis functions per batch  ...    37.92 (27.28%)
Average number of large shells per batch     ...     8.25 (57.23%)
Average number of large basis fcns per batch ...    22.92 (60.44%)
Maximum spatial batch extension              ...  28.57, 31.41, 18.50 au
Average spatial batch extension              ...   0.88,  0.94,  0.67 au

Time for grid setup =    0.155 sec

------------------------------
INITIAL GUESS: MODEL POTENTIAL
------------------------------
Loading Hartree-Fock densities                     ... done
Calculating cut-offs                               ... done
Setting up the integral package                    ... done
Initializing the effective Hamiltonian             ... done
Starting the Coulomb interaction                   ... done (   0.0 sec)
Reading the grid                                   ... done
Mapping shells                                     ... done
Starting the XC term evaluation                    ... done (   0.0 sec)
  promolecular density results
     # of electrons  =     33.000003309
     EX              =    -57.162083008
     EC              =     -1.320798705
     EX+EC           =    -58.482881713
Transforming the Hamiltonian                       ... done (   0.0 sec)
Diagonalizing the Hamiltonian                      ... done (   0.0 sec)
Back transforming the eigenvectors                 ... done (   0.0 sec)
Now organizing SCF variables                       ... done
                      ------------------
                      INITIAL GUESS DONE (   0.3 sec)
                      ------------------
--------------
SCF ITERATIONS
--------------
ITER       Energy         Delta-E        Max-DP      RMS-DP      [F,P]     Damp
               ***  Starting incremental Fock matrix formation  ***
  0  -1144.3257057958   0.000000000000 0.07648566  0.00158858  0.2869633 0.7000
  1  -1144.3677465482  -0.042040752447 0.03427974  0.00072199  0.0826753 0.7000
                               ***Turning on DIIS***
  2  -1144.3801808741  -0.012434325904 0.10391268  0.00134210  0.0291337 0.0000
  3  -1144.4071644376  -0.026983563481 0.01144073  0.00029560  0.0417142 0.0000
  4  -1144.4110812238  -0.003916786242 0.02264059  0.00036778  0.0204438 0.0000
  5  -1144.4124844353  -0.001403211427 0.02061460  0.00038939  0.0047344 0.0000
  6  -1144.4127603970  -0.000275961736 0.00886817  0.00014126  0.0035892 0.0000
  7  -1144.4129041479  -0.000143750931 0.00759862  0.00006938  0.0022047 0.0000
  8  -1144.4129724128  -0.000068264879 0.00655190  0.00006001  0.0016640 0.0000
  9  -1144.4130178657  -0.000045452891 0.00547726  0.00004927  0.0014630 0.0000
 10  -1144.4130443542  -0.000026488521 0.00394249  0.00003542  0.0011193 0.0000
 11  -1144.4130589630  -0.000014608727 0.01284058  0.00010387  0.0007848 0.0000
 12  -1144.4130792001  -0.000020237143 0.00050615  0.00000858  0.0005526 0.0000
 13  -1144.4130798659  -0.000000665774 0.00063074  0.00000874  0.0001779 0.0000
                 **** Energy Check signals convergence ****

               *****************************************************
               *                     SUCCESS                       *
               *           SCF CONVERGED AFTER  14 CYCLES          *
               *****************************************************


----------------
TOTAL SCF ENERGY
----------------

Total Energy       :        -1144.41307998 Eh          -31141.06309 eV

Components:
Nuclear Repulsion  :           63.97015127 Eh            1740.71631 eV
Electronic Energy  :        -1208.38323124 Eh          -32881.77940 eV
One Electron Energy:        -1705.43774679 Eh          -46407.32039 eV
Two Electron Energy:          497.05451554 Eh           13525.54099 eV

Virial components:
Potential Energy   :        -2286.74482045 Eh          -62225.49005 eV
Kinetic Energy     :         1142.33174047 Eh           31084.42696 eV
Virial Ratio       :            2.00182201


DFT components:
N(Alpha)           :       19.000008599765 electrons
N(Beta)            :       14.000008594938 electrons
N(Total)           :       33.000017194703 electrons
E(X)               :      -52.144275001635 Eh       
E(C)               :       -1.315594018991 Eh       
E(XC)              :      -53.459869020626 Eh       
DFET-embed. en.    :        0.000000000000 Eh       

---------------
SCF CONVERGENCE
---------------

  Last Energy change         ...   -1.1342e-07  Tolerance :   1.0000e-06
  Last MAX-Density change    ...    6.7538e-05  Tolerance :   1.0000e-05
  Last RMS-Density change    ...    8.2548e-07  Tolerance :   1.0000e-06
  Last DIIS Error            ...    4.3693e-05  Tolerance :   1.0000e-06

             **** THE GBW FILE WAS UPDATED (20_CrF.gbw) ****
             **** DENSITY FILE WAS UPDATED (20_CrF.scfp) ****
             **** ENERGY FILE WAS UPDATED (20_CrF.en.tmp) ****
----------------------
UHF SPIN CONTAMINATION
----------------------

Warning: in a DFT calculation there is little theoretical justification to 
         calculate <S**2> as in Hartree-Fock theory. We will do it anyways
         but you should keep in mind that the values have only limited relevance

Expectation value of <S**2>     :     8.761288
Ideal value S*(S+1) for S=2.5   :     8.750000
Deviation                       :     0.011288

             **** THE GBW FILE WAS UPDATED (20_CrF.gbw) ****
             **** DENSITY FILE WAS UPDATED (20_CrF.scfp) ****
----------------
ORBITAL ENERGIES
----------------
                 SPIN UP ORBITALS
  NO   OCC          E(Eh)            E(eV) 
   0   1.0000    -215.483008     -5863.5908 
   1   1.0000     -24.541157      -667.7988 
   2   1.0000     -24.521269      -667.2576 
   3   1.0000     -20.807848      -566.2103 
   4   1.0000     -20.805913      -566.1577 
   5   1.0000     -20.805913      -566.1577 
   6   1.0000      -2.876039       -78.2610 
   7   1.0000      -1.835734       -49.9529 
   8   1.0000      -1.829597       -49.7859 
   9   1.0000      -1.829597       -49.7859 
  10   1.0000      -1.056486       -28.7484 
  11   1.0000      -0.365244        -9.9388 
  12   1.0000      -0.345196        -9.3933 
  13   1.0000      -0.345196        -9.3933 
  14   1.0000      -0.217267        -5.9121 
  15   1.0000      -0.217267        -5.9121 
  16   1.0000      -0.208165        -5.6645 
  17   1.0000      -0.208165        -5.6645 
  18   1.0000      -0.191296        -5.2054 
  19   0.0000      -0.099564        -2.7093 
  20   0.0000      -0.030362        -0.8262 
  21   0.0000      -0.030362        -0.8262 
  22   0.0000       0.003546         0.0965 
  23   0.0000       0.009171         0.2496 
  24   0.0000       0.028522         0.7761 
  25   0.0000       0.028522         0.7761 
  26   0.0000       0.045410         1.2357 
  27   0.0000       0.045411         1.2357 
  28   0.0000       0.051210         1.3935 
  29   0.0000       0.051210         1.3935 
  30   0.0000       0.051466         1.4005 
  31   0.0000       0.068281         1.8580 
  32   0.0000       0.110423         3.0048 
  33   0.0000       0.143070         3.8931 
  34   0.0000       0.143070         3.8931 
  35   0.0000       0.188793         5.1373 
  36   0.0000       0.197950         5.3865 
  37   0.0000       0.197951         5.3865 
  38   0.0000       0.220131         5.9901 
  39   0.0000       0.220131         5.9901 
  40   0.0000       0.236060         6.4235 
  41   0.0000       0.236924         6.4470 
  42   0.0000       0.236924         6.4470 
  43   0.0000       0.269771         7.3408 
  44   0.0000       0.454692        12.3728 
  45   0.0000       0.506523        13.7832 
  46   0.0000       0.506526        13.7833 
  47   0.0000       0.513409        13.9706 
  48   0.0000       0.513409        13.9706 
  49   0.0000       0.584319        15.9001 
  50   0.0000       0.584319        15.9001 
  51   0.0000       0.614083        16.7101 
  52   0.0000       0.624764        17.0007 
  53   0.0000       0.624764        17.0007 
  54   0.0000       0.661042        17.9879 
  55   0.0000       0.775506        21.1026 
  56   0.0000       0.775508        21.1026 
  57   0.0000       0.781624        21.2691 
  58   0.0000       0.781624        21.2691 
  59   0.0000       0.901631        24.5346 
  60   0.0000       0.908769        24.7289 
  61   0.0000       0.908781        24.7292 
  62   0.0000       0.987987        26.8845 
  63   0.0000       0.987987        26.8845 
  64   0.0000       1.086562        29.5668 
  65   0.0000       1.332966        36.2719 
  66   0.0000       1.338026        36.4095 
  67   0.0000       1.338026        36.4095 
  68   0.0000       1.600148        43.5422 
  69   0.0000       1.722147        46.8620 
  70   0.0000       1.722150        46.8621 
  71   0.0000       1.739698        47.3396 
  72   0.0000       1.739698        47.3396 
  73   0.0000       1.787179        48.6316 
  74   0.0000       1.787179        48.6316 
  75   0.0000       1.824088        49.6359 
  76   0.0000       2.111735        57.4632 
  77   0.0000       2.111735        57.4632 
  78   0.0000       2.138576        58.1936 
  79   0.0000       2.138591        58.1940 
  80   0.0000       2.150362        58.5143 
  81   0.0000       2.150370        58.5145 
  82   0.0000       2.194700        59.7208 
  83   0.0000       2.238421        60.9105 
  84   0.0000       2.238421        60.9105 
  85   0.0000       2.361506        64.2599 
  86   0.0000       2.361506        64.2599 
  87   0.0000       2.511281        68.3354 
  88   0.0000       2.538108        69.0654 
  89   0.0000       2.655745        72.2665 
  90   0.0000       2.655829        72.2688 
  91   0.0000       2.736469        74.4631 
  92   0.0000       2.736469        74.4631 
  93   0.0000       2.945434        80.1493 
  94   0.0000       2.945434        80.1493 
  95   0.0000       3.051364        83.0318 
  96   0.0000       3.106863        84.5420 
  97   0.0000       3.106903        84.5431 
  98   0.0000       3.265387        88.8557 
  99   0.0000       3.265392        88.8558 
 100   0.0000       3.379619        91.9641 
 101   0.0000       3.379619        91.9641 
 102   0.0000       3.518691        95.7484 
 103   0.0000       3.678352       100.0930 
 104   0.0000       3.678352       100.0930 
 105   0.0000       4.304333       117.1268 
 106   0.0000       4.917150       133.8025 
 107   0.0000       4.917150       133.8025 
 108   0.0000       5.303149       144.3060 
 109   0.0000       6.088511       165.6768 
 110   0.0000       6.088511       165.6768 
 111   0.0000       6.091364       165.7544 
 112   0.0000       6.091380       165.7549 
 113   0.0000       6.278730       170.8529 
 114   0.0000       6.278730       170.8529 
 115   0.0000       6.402740       174.2274 
 116   0.0000       6.604243       179.7106 
 117   0.0000       6.604300       179.7121 
 118   0.0000       6.605368       179.7412 
 119   0.0000       6.605368       179.7412 
 120   0.0000       6.689978       182.0436 
 121   0.0000       6.689983       182.0437 
 122   0.0000       6.852946       186.4781 
 123   0.0000       6.852946       186.4781 
 124   0.0000       6.965602       189.5437 
 125   0.0000       7.798718       212.2139 
 126   0.0000       8.432678       229.4648 
 127   0.0000       8.432678       229.4648 
 128   0.0000       8.561911       232.9815 
 129   0.0000       8.562470       232.9966 
 130   0.0000       8.810004       239.7324 
 131   0.0000       8.810614       239.7490 
 132   0.0000       8.868547       241.3254 
 133   0.0000       8.868547       241.3254 
 134   0.0000       8.881200       241.6697 
 135   0.0000       8.958899       243.7840 
 136   0.0000       8.958899       243.7840 
 137   0.0000       9.198091       250.2928 
 138   0.0000      13.170756       358.3945 

                 SPIN DOWN ORBITALS
  NO   OCC          E(Eh)            E(eV) 
   0   1.0000    -215.481846     -5863.5591 
   1   1.0000     -24.521232      -667.2567 
   2   1.0000     -24.484745      -666.2638 
   3   1.0000     -20.766234      -565.0780 
   4   1.0000     -20.755856      -564.7956 
   5   1.0000     -20.755856      -564.7956 
   6   1.0000      -2.708270       -73.6958 
   7   1.0000      -1.675788       -45.6005 
   8   1.0000      -1.646695       -44.8088 
   9   1.0000      -1.646695       -44.8088 
  10   1.0000      -1.054965       -28.7070 
  11   1.0000      -0.361775        -9.8444 
  12   1.0000      -0.329829        -8.9751 
  13   1.0000      -0.329829        -8.9751 
  14   0.0000      -0.079454        -2.1621 
  15   0.0000      -0.018797        -0.5115 
  16   0.0000      -0.010286        -0.2799 
  17   0.0000      -0.010262        -0.2792 
  18   0.0000      -0.010001        -0.2721 
  19   0.0000      -0.010001        -0.2721 
  20   0.0000       0.016918         0.4604 
  21   0.0000       0.016918         0.4604 
  22   0.0000       0.022209         0.6043 
  23   0.0000       0.023576         0.6415 
  24   0.0000       0.054318         1.4781 
  25   0.0000       0.054318         1.4781 
  26   0.0000       0.069243         1.8842 
  27   0.0000       0.069244         1.8842 
  28   0.0000       0.070784         1.9261 
  29   0.0000       0.071893         1.9563 
  30   0.0000       0.071903         1.9566 
  31   0.0000       0.085739         2.3331 
  32   0.0000       0.147066         4.0019 
  33   0.0000       0.186893         5.0856 
  34   0.0000       0.186893         5.0856 
  35   0.0000       0.221690         6.0325 
  36   0.0000       0.241228         6.5642 
  37   0.0000       0.241229         6.5642 
  38   0.0000       0.248311         6.7569 
  39   0.0000       0.249536         6.7902 
  40   0.0000       0.249683         6.7942 
  41   0.0000       0.264656         7.2016 
  42   0.0000       0.264656         7.2016 
  43   0.0000       0.300011         8.1637 
  44   0.0000       0.484667        13.1885 
  45   0.0000       0.544634        14.8202 
  46   0.0000       0.544771        14.8240 
  47   0.0000       0.563920        15.3451 
  48   0.0000       0.563920        15.3451 
  49   0.0000       0.648606        17.6495 
  50   0.0000       0.648606        17.6495 
  51   0.0000       0.658953        17.9310 
  52   0.0000       0.658953        17.9310 
  53   0.0000       0.666373        18.1329 
  54   0.0000       0.699189        19.0259 
  55   0.0000       0.849088        23.1049 
  56   0.0000       0.849103        23.1053 
  57   0.0000       0.851128        23.1604 
  58   0.0000       0.851128        23.1604 
  59   0.0000       0.906151        24.6576 
  60   0.0000       0.934249        25.4222 
  61   0.0000       0.934255        25.4224 
  62   0.0000       0.994744        27.0684 
  63   0.0000       0.994744        27.0684 
  64   0.0000       1.139775        31.0149 
  65   0.0000       1.341126        36.4939 
  66   0.0000       1.371944        37.3325 
  67   0.0000       1.371944        37.3325 
  68   0.0000       1.673376        45.5349 
  69   0.0000       1.823460        49.6189 
  70   0.0000       1.823493        49.6198 
  71   0.0000       1.846500        50.2458 
  72   0.0000       1.846500        50.2458 
  73   0.0000       1.852518        50.4096 
  74   0.0000       1.852518        50.4096 
  75   0.0000       1.885904        51.3180 
  76   0.0000       2.179219        59.2996 
  77   0.0000       2.179219        59.2996 
  78   0.0000       2.196021        59.7568 
  79   0.0000       2.196026        59.7569 
  80   0.0000       2.207029        60.0563 
  81   0.0000       2.207040        60.0566 
  82   0.0000       2.250952        61.2515 
  83   0.0000       2.315287        63.0022 
  84   0.0000       2.315287        63.0022 
  85   0.0000       2.428054        66.0707 
  86   0.0000       2.428054        66.0707 
  87   0.0000       2.552344        69.4528 
  88   0.0000       2.569580        69.9218 
  89   0.0000       2.662276        72.4442 
  90   0.0000       2.662357        72.4464 
  91   0.0000       2.744090        74.6705 
  92   0.0000       2.744090        74.6705 
  93   0.0000       2.958346        80.5007 
  94   0.0000       2.958346        80.5007 
  95   0.0000       3.091217        84.1163 
  96   0.0000       3.131756        85.2194 
  97   0.0000       3.131814        85.2210 
  98   0.0000       3.393279        92.3358 
  99   0.0000       3.393285        92.3360 
 100   0.0000       3.505039        95.3770 
 101   0.0000       3.505039        95.3770 
 102   0.0000       3.552630        96.6720 
 103   0.0000       3.712348       101.0181 
 104   0.0000       3.712348       101.0181 
 105   0.0000       4.372940       118.9937 
 106   0.0000       4.921110       133.9102 
 107   0.0000       4.921110       133.9102 
 108   0.0000       5.325332       144.9096 
 109   0.0000       6.268407       170.5720 
 110   0.0000       6.268407       170.5720 
 111   0.0000       6.286339       171.0600 
 112   0.0000       6.286353       171.0604 
 113   0.0000       6.437219       175.1656 
 114   0.0000       6.437219       175.1656 
 115   0.0000       6.528668       177.6541 
 116   0.0000       6.722995       182.9420 
 117   0.0000       6.723040       182.9432 
 118   0.0000       6.730859       183.1560 
 119   0.0000       6.730859       183.1560 
 120   0.0000       6.805030       185.1743 
 121   0.0000       6.805033       185.1744 
 122   0.0000       6.959113       189.3671 
 123   0.0000       6.959113       189.3671 
 124   0.0000       7.063093       192.1965 
 125   0.0000       7.930297       215.7943 
 126   0.0000       8.435306       229.5363 
 127   0.0000       8.435306       229.5363 
 128   0.0000       8.563517       233.0252 
 129   0.0000       8.564056       233.0398 
 130   0.0000       8.815092       239.8708 
 131   0.0000       8.815695       239.8873 
 132   0.0000       8.871065       241.3940 
 133   0.0000       8.871065       241.3940 
 134   0.0000       8.887473       241.8404 
 135   0.0000       8.959215       243.7926 
 136   0.0000       8.959215       243.7926 
 137   0.0000       9.201967       250.3983 
 138   0.0000      13.178039       358.5927 

                    ********************************
                    * MULLIKEN POPULATION ANALYSIS *
                    ********************************

--------------------------------------------
MULLIKEN ATOMIC CHARGES AND SPIN POPULATIONS
--------------------------------------------
   0 Cr:    0.569558    5.031306
   1 F :   -0.569558   -0.031306
Sum of atomic charges         :   -0.0000000
Sum of atomic spin populations:    5.0000000

-----------------------------------------------------
MULLIKEN REDUCED ORBITAL CHARGES AND SPIN POPULATIONS
-----------------------------------------------------
CHARGE
  0 Crs       :     6.696557  s :     6.696557
      pz      :     4.029832  p :    12.113081
      px      :     4.041624
      py      :     4.041624
      dz2     :     0.561724  d :     4.600310
      dxz     :     1.019958
      dyz     :     1.019958
      dx2y2   :     0.999335
      dxy     :     0.999335
      f0      :     0.006106  f :     0.015097
      f+1     :     0.004258
      f-1     :     0.004258
      f+2     :     0.000238
      f-2     :     0.000238
      f+3     :     0.000000
      f-3     :     0.000000
      g0      :     0.002241  g :     0.005397
      g+1     :     0.001577
      g-1     :     0.001577
      g+2     :     0.000001
      g-2     :     0.000001
      g+3     :    -0.000000
      g-3     :    -0.000000
      g+4     :     0.000000
      g-4     :     0.000000
  1 F s       :     3.972046  s :     3.972046
      pz      :     1.728682  p :     5.585800
      px      :     1.928559
      py      :     1.928559
      dz2     :     0.002251  d :     0.009938
      dxz     :     0.003487
      dyz     :     0.003487
      dx2y2   :     0.000356
      dxy     :     0.000356
      f0      :     0.000561  f :     0.001775
      f+1     :     0.000537
      f-1     :     0.000537
      f+2     :     0.000070
      f-2     :     0.000070
      f+3     :     0.000000
      f-3     :     0.000000

SPIN
  0 Crs       :     0.645315  s :     0.645315
      pz      :     0.015555  p :     0.072190
      px      :     0.028317
      py      :     0.028317
      dz2     :     0.415558  d :     4.311507
      dxz     :     0.948640
      dyz     :     0.948640
      dx2y2   :     0.999335
      dxy     :     0.999335
      f0      :    -0.000644  f :     0.002985
      f+1     :     0.001577
      f-1     :     0.001577
      f+2     :     0.000238
      f-2     :     0.000238
      f+3     :    -0.000000
      f-3     :    -0.000000
      g0      :    -0.000631  g :    -0.000691
      g+1     :    -0.000031
      g-1     :    -0.000031
      g+2     :     0.000001
      g-2     :     0.000001
      g+3     :     0.000000
      g-3     :     0.000000
      g+4     :     0.000000
      g-4     :     0.000000
  1 F s       :    -0.012213  s :    -0.012213
      pz      :    -0.062975  p :    -0.020313
      px      :     0.021331
      py      :     0.021331
      dz2     :     0.000064  d :     0.000717
      dxz     :    -0.000029
      dyz     :    -0.000029
      dx2y2   :     0.000356
      dxy     :     0.000356
      f0      :    -0.000027  f :     0.000503
      f+1     :     0.000195
      f-1     :     0.000195
      f+2     :     0.000070
      f-2     :     0.000070
      f+3     :     0.000000
      f-3     :     0.000000


                     *******************************
                     * LOEWDIN POPULATION ANALYSIS *
                     *******************************

-------------------------------------------
LOEWDIN ATOMIC CHARGES AND SPIN POPULATIONS
-------------------------------------------
   0 Cr:    0.382021    4.869782
   1 F :   -0.382021    0.130218

----------------------------------------------------
LOEWDIN REDUCED ORBITAL CHARGES AND SPIN POPULATIONS
----------------------------------------------------
CHARGE
  0 Crs       :     6.487997  s :     6.487997
      pz      :     4.063354  p :    12.160489
      px      :     4.048567
      py      :     4.048567
      dz2     :     0.661400  d :     4.679786
      dxz     :     1.014206
      dyz     :     1.014206
      dx2y2   :     0.994988
      dxy     :     0.994988
      f0      :     0.100359  f :     0.235701
      f+1     :     0.067135
      f-1     :     0.067135
      f+2     :     0.000536
      f-2     :     0.000536
      f+3     :     0.000000
      f-3     :     0.000000
      g0      :     0.023060  g :     0.054006
      g+1     :     0.015443
      g-1     :     0.015443
      g+2     :     0.000030
      g-2     :     0.000030
      g+3     :     0.000000
      g-3     :     0.000000
      g+4     :     0.000000
      g-4     :     0.000000
  1 F s       :     3.693005  s :     3.693005
      pz      :     1.850833  p :     5.454825
      px      :     1.801996
      py      :     1.801996
      dz2     :     0.100925  d :     0.194370
      dxz     :     0.043311
      dyz     :     0.043311
      dx2y2   :     0.003412
      dxy     :     0.003412
      f0      :     0.019067  f :     0.039822
      f+1     :     0.009343
      f-1     :     0.009343
      f+2     :     0.001035
      f-2     :     0.001035
      f+3     :     0.000000
      f-3     :     0.000000

SPIN
  0 Crs       :     0.573911  s :     0.573911
      pz      :     0.016913  p :     0.102164
      px      :     0.042626
      py      :     0.042626
      dz2     :     0.396607  d :     4.175971
      dxz     :     0.894694
      dyz     :     0.894694
      dx2y2   :     0.994988
      dxy     :     0.994988
      f0      :    -0.000413  f :     0.016048
      f+1     :     0.007695
      f-1     :     0.007695
      f+2     :     0.000536
      f-2     :     0.000536
      f+3     :    -0.000000
      f-3     :    -0.000000
      g0      :    -0.001122  g :     0.001689
      g+1     :     0.001375
      g-1     :     0.001375
      g+2     :     0.000030
      g-2     :     0.000030
      g+3     :     0.000000
      g-3     :     0.000000
      g+4     :     0.000000
      g-4     :     0.000000
  1 F s       :     0.016883  s :     0.016883
      pz      :    -0.004378  p :     0.039132
      px      :     0.021755
      py      :     0.021755
      dz2     :     0.000283  d :     0.057837
      dxz     :     0.025365
      dyz     :     0.025365
      dx2y2   :     0.003412
      dxy     :     0.003412
      f0      :     0.001318  f :     0.016367
      f+1     :     0.006490
      f-1     :     0.006490
      f+2     :     0.001035
      f-2     :     0.001035
      f+3     :     0.000000
      f-3     :     0.000000


                      *****************************
                      * MAYER POPULATION ANALYSIS *
                      *****************************

  NA   - Mulliken gross atomic population
  ZA   - Total nuclear charge
  QA   - Mulliken gross atomic charge
  VA   - Mayer's total valence
  BVA  - Mayer's bonded valence
  FA   - Mayer's free valence

  ATOM       NA         ZA         QA         VA         BVA        FA
  0 Cr    23.4304    24.0000     0.5696     5.6207     0.7133     4.9074
  1 F      9.5696     9.0000    -0.5696     0.7174     0.7133     0.0041

  Mayer bond orders larger than 0.100000
B(  0-Cr,  1-F ) :   0.7133 

-------
TIMINGS
-------

Total SCF time: 0 days 0 hours 1 min 35 sec 

Total time                  ....      95.937 sec
Sum of individual times     ....      95.560 sec  ( 99.6%)

Fock matrix formation       ....      95.188 sec  ( 99.2%)
  XC integration            ....       0.482 sec  (  0.5% of F)
    Basis function eval.    ....       0.069 sec  ( 14.3% of XC)
    Density eval.           ....       0.078 sec  ( 16.3% of XC)
    XC-Functional eval.     ....       0.020 sec  (  4.2% of XC)
    XC-Potential eval.      ....       0.223 sec  ( 46.3% of XC)
Diagonalization             ....       0.075 sec  (  0.1%)
Density matrix formation    ....       0.010 sec  (  0.0%)
Population analysis         ....       0.007 sec  (  0.0%)
Initial guess               ....       0.100 sec  (  0.1%)
Orbital Transformation      ....       0.000 sec  (  0.0%)
Orbital Orthonormalization  ....       0.000 sec  (  0.0%)
DIIS solution               ....       0.026 sec  (  0.0%)
Grid generation             ....       0.155 sec  (  0.2%)


-------------------------------------------------------------------------------
                          DFT DISPERSION CORRECTION                            
                                                                               
                              DFTD3 V3.1  Rev 1                                
                          USING Becke-Johnson damping                          
-------------------------------------------------------------------------------
The TPSSH functional is recognized
Active option DFTDOPT                   ...         4   

molecular C6(AA) [au] = 448.208639 


            DFT-D V3
 parameters
 s6 scaling factor         :     1.0000 
 a1 scaling factor         :     0.4529 
 s8 scaling factor         :     2.2382 
 a2 scaling factor         :     4.6550 
 ad hoc parameters k1-k3   :    16.0000     1.3333    -4.0000 

 Edisp/kcal,au: -0.352929258237  -0.000562428513 
 E6   /kcal   :  -0.136404388 
 E8   /kcal   :  -0.216524870 
 % E8         :  61.350784831 

-------------------------   ----------------
Dispersion correction           -0.000562429
-------------------------   ----------------


-------------------------   --------------------
FINAL SINGLE POINT ENERGY     -1144.413642407811
-------------------------   --------------------


                            ***************************************
                            *     ORCA property calculations      *
                            ***************************************

                                    ---------------------
                                    Active property flags
                                    ---------------------
   (+) Dipole Moment


------------------------------------------------------------------------------
                       ORCA ELECTRIC PROPERTIES CALCULATION
------------------------------------------------------------------------------

Dipole Moment Calculation                       ... on
Quadrupole Moment Calculation                   ... off
Polarizability Calculation                      ... off
GBWName                                         ... 20_CrF.gbw
Electron density file                           ... 20_CrF.scfp
The origin for moment calculation is the CENTER OF MASS  = ( 0.000000,  0.000000  1.104960)

-------------
DIPOLE MOMENT
-------------
                                X             Y             Z
Electronic contribution:      0.00000      -0.00000      -2.11335
Nuclear contribution   :      0.00000       0.00000       0.57299
                        -----------------------------------------
Total Dipole Moment    :      0.00000      -0.00000      -1.54036
                        -----------------------------------------
Magnitude (a.u.)       :      1.54036
Magnitude (Debye)      :      3.91529



--------------------
Rotational spectrum 
--------------------
 
Rotational constants in cm-1:     0.000000     0.379469     0.379469 
Rotational constants in MHz :     0.000000 11376.206933 11376.206933 

 Dipole components along the rotational axes: 
x,y,z [a.u.] :    -1.540363    -0.000000     0.000000 
x,y,z [Debye]:    -3.915292    -0.000000     0.000000 

 

Timings for individual modules:

Sum of individual times         ...       99.565 sec (=   1.659 min)
GTO integral calculation        ...        3.170 sec (=   0.053 min)   3.2 %
SCF iterations                  ...       96.396 sec (=   1.607 min)  96.8 %
                             ****ORCA TERMINATED NORMALLY****
TOTAL RUN TIME: 0 days 0 hours 1 minutes 40 seconds 182 msec
