
                                 *****************
                                 * O   R   C   A *
                                 *****************

           --- An Ab Initio, DFT and Semiempirical electronic structure package ---

                  #######################################################
                  #                        -***-                        #
                  #          Department of theory and spectroscopy      #
                  #               Directorship: Frank Neese             #
                  #        Max Planck Institute fuer Kohlenforschung    #
                  #                Kaiser Wilhelm Platz 1               #
                  #                 D-45470 Muelheim/Ruhr               #
                  #                      Germany                        #
                  #                                                     #
                  #                  All rights reserved                #
                  #                        -***-                        #
                  #######################################################


                         Program Version 4.2.0 -  RELEASE  -


 With contributions from (in alphabetic order):
   Daniel Aravena         : Magnetic Suceptibility
   Michael Atanasov       : Ab Initio Ligand Field Theory (pilot matlab implementation)
   Alexander A. Auer      : GIAO ZORA, VPT2
   Ute Becker             : Parallelization
   Giovanni Bistoni       : ED, misc. LED, open-shell LED, HFLED
   Martin Brehm           : Molecular dynamics
   Dmytro Bykov           : SCF Hessian
   Vijay G. Chilkuri      : MRCI spin determinant printing, contributions to CSF-ICE
   Dipayan Datta          : RHF DLPNO-CCSD density
   Achintya Kumar Dutta   : EOM-CC, STEOM-CC
   Dmitry Ganyushin       : Spin-Orbit,Spin-Spin,Magnetic field MRCI
   Miquel Garcia          : C-PCM Hessian, Gaussian charge scheme
   Yang Guo               : DLPNO-NEVPT2, CIM, IAO-localization
   Andreas Hansen         : Spin unrestricted coupled pair/coupled cluster methods
   Benjamin Helmich-Paris : CASSCF linear response (MC-RPA)
   Lee Huntington         : MR-EOM, pCC
   Robert Izsak           : Overlap fitted RIJCOSX, COSX-SCS-MP3, EOM
   Christian Kollmar      : KDIIS, OOCD, Brueckner-CCSD(T), CCSD density
   Simone Kossmann        : Meta GGA functionals, TD-DFT gradient, OOMP2, MP2 Hessian
   Martin Krupicka        : AUTO-CI
   Lucas Lang             : DCDCAS
   Dagmar Lenk            : GEPOL surface, SMD
   Dimitrios Liakos       : Extrapolation schemes; Compound Job, initial MDCI parallelization
   Dimitrios Manganas     : Further ROCIS development; embedding schemes
   Dimitrios Pantazis     : SARC Basis sets
   Taras Petrenko         : DFT Hessian,TD-DFT gradient, ASA, ECA, R-Raman, ABS, FL, XAS/XES, NRVS
   Peter Pinski           : DLPNO-MP2, DLPNO-MP2 Gradient
   Christoph Reimann      : Effective Core Potentials
   Marius Retegan         : Local ZFS, SOC
   Christoph Riplinger    : Optimizer, TS searches, QM/MM, DLPNO-CCSD(T), (RO)-DLPNO pert. Triples
   Tobias Risthaus        : Range-separated hybrids, TD-DFT gradient, RPA, STAB
   Michael Roemelt        : Original ROCIS implementation
   Masaaki Saitow         : Open-shell DLPNO-CCSD energy and density
   Barbara Sandhoefer     : DKH picture change effects
   Avijit Sen             : IP-ROCIS
   Kantharuban Sivalingam : CASSCF convergence, NEVPT2, FIC-MRCI
   Bernardo de Souza      : ESD, SOC TD-DFT
   Georgi Stoychev        : AutoAux, RI-MP2 NMR
   Willem Van den Heuvel  : Paramagnetic NMR
   Boris Wezisla          : Elementary symmetry handling
   Frank Wennmohs         : Technical directorship


 We gratefully acknowledge several colleagues who have allowed us to
 interface, adapt or use parts of their codes:
   Stefan Grimme, W. Hujo, H. Kruse,             : VdW corrections, initial TS optimization,
                  C. Bannwarth                     DFT functionals, gCP, sTDA/sTD-DF
   Ed Valeev, F. Pavosevic, A. Kumar             : LibInt (2-el integral package), F12 methods
   Garnet Chan, S. Sharma, J. Yang, R. Olivares  : DMRG
   Ulf Ekstrom                                   : XCFun DFT Library
   Mihaly Kallay                                 : mrcc  (arbitrary order and MRCC methods)
   Andreas Klamt, Michael Diedenhofen            : otool_cosmo (COSMO solvation model)
   Jiri Pittner, Ondrej Demel                    : Mk-CCSD
   Frank Weinhold                                : gennbo (NPA and NBO analysis)
   Christopher J. Cramer and Donald G. Truhlar   : smd solvation model
   Lars Goerigk                                  : TD-DFT with DH, B97 family of functionals
   V. Asgeirsson, H. Jonsson                     : NEB implementation
   FAccTs GmbH                                   : IRC, NEB, NEB-TS, Multilevel, MM, QM/MM, CI optimization
   S Lehtola, MJT Oliveira, MAL Marques          : LibXC Library


 Your calculation uses the libint2 library for the computation of 2-el integrals
 For citations please refer to: http://libint.valeyev.net

 Your ORCA version has been built with support for libXC version: 4.2.3
 For citations please refer to: https://tddft.org/programs/libxc/

 This ORCA versions uses:
   CBLAS   interface :  Fast vector & matrix operations
   LAPACKE interface :  Fast linear algebra routines
   SCALAPACK package :  Parallel linear algebra routines


Your calculation utilizes the atom-pairwise dispersion correction
with the Becke-Johnson damping scheme (D3BJ)
Cite in your paper:
S.Grimme, S.Ehrlich, L.Goerigk, J Comput Chem, (2011), 32, 1456–1465 
S.Grimme, J.Antony, S.Ehrlich and H.Krieg, J.Chem.Phys., 132, (2010), 154104 
   

----- Orbital basis set information -----
Your calculation utilizes the basis: aug-cc-pVTZ 
    H, B-Ne : Obtained from the ccRepo (grant-hill.group.shef.ac.uk/ccrepo) Feb. 2017
              R. A. Kendall, T. H. Dunning, Jr., R. J. Harrison, J. Chem. Phys. 96, 6796 (1992)
         He : Obtained from the ccRepo (grant-hill.group.shef.ac.uk/ccrepo) Feb. 2017
              D. E. Woon, T. H. Dunning, Jr., J. Chem. Phys. 100, 2975 (1994)
  Li-Be, Na : Obtained from the ccRepo (grant-hill.group.shef.ac.uk/ccrepo) Feb. 2017
              B. P. Prascher, D. E. Woon, K. A. Peterson, T. H. Dunning, Jr., A. K. Wilson, Theor. Chem. Acc. 128, 69 (2011)
         Mg : Obtained from the Peterson Research Group Website (tyr0.chem.wsu.edu/~kipeters) Feb. 2017
              B. P. Prascher, D. E. Woon, K. A. Peterson, T. H. Dunning, Jr., A. K. Wilson, Theor. Chem. Acc. 128, 69 (2011)
      Al-Ar : Obtained from the ccRepo (grant-hill.group.shef.ac.uk/ccrepo) Feb. 2017
              D. E. Woon, T. H. Dunning, Jr., J. Chem. Phys. 98, 1358 (1993)
      Sc-Zn : Obtained from the ccRepo (grant-hill.group.shef.ac.uk/ccrepo) Feb. 2017
              N. B. Balabanov, K. A. Peterson, J. Chem. Phys. 123, 064107 (2005)
              N. B. Balabanov, K. A. Peterson, J. Chem. Phys. 125, 074110 (2006)
      Ga-Kr : Obtained from the ccRepo (grant-hill.group.shef.ac.uk/ccrepo) Feb. 2017
              A. K. Wilson, D. E. Woon, K. A. Peterson, T. H. Dunning, Jr., J. Chem. Phys. 110, 7667 (1999)
     Ag, Au : Obtained from the Peterson Research Group Website (tyr0.chem.wsu.edu/~kipeters) Feb. 2017
              K. A. Peterson, C. Puzzarini, Theor. Chem. Acc. 114, 283 (2005)

----- AuxJK basis set information -----
Your calculation utilizes the auxiliary basis: def2/JK
   H-Ba, Hf-Rn: F. Weigend, J. Comput. Chem. 29, 167 (2008).

================================================================================
                                        WARNINGS
                       Please study these warnings very carefully!
================================================================================


WARNING: your system is open-shell and RHF/RKS was chosen
  ===> : WILL SWITCH to UHF/UKS


INFO   : the flag for use of LIBINT has been found!

================================================================================
                                       INPUT FILE
================================================================================
NAME = 22_CrBr.in
|  1> #
|  2> # 22_CrBr tpssh/aug-cc-pvtz
|  3> #
|  4> ! tpssh d3bj aug-cc-pvtz def2/jk grid4 nofinalgrid
|  5> 
|  6> *xyz 0 6
|  7>   Cr  0.00000000000000      0.00000000000000     -0.17198862284832
|  8>   Br  0.00000000000000      0.00000000000000      2.17198862284831
|  9> *
| 10> 
| 11> %pal
| 12> nprocs 24
| 13> end
| 14> 
| 15> 
| 16>                          ****END OF INPUT****
================================================================================

                       ****************************
                       * Single Point Calculation *
                       ****************************

---------------------------------
CARTESIAN COORDINATES (ANGSTROEM)
---------------------------------
  Cr     0.000000    0.000000   -0.171989
  Br     0.000000    0.000000    2.171989

----------------------------
CARTESIAN COORDINATES (A.U.)
----------------------------
  NO LB      ZA    FRAG     MASS         X           Y           Z
   0 Cr   24.0000    0    52.000    0.000000    0.000000   -0.325011
   1 Br   35.0000    0    79.900    0.000000    0.000000    4.104464

--------------------------------
INTERNAL COORDINATES (ANGSTROEM)
--------------------------------
 Cr     0   0   0     0.000000000000     0.00000000     0.00000000
 Br     1   0   0     2.343977245697     0.00000000     0.00000000

---------------------------
INTERNAL COORDINATES (A.U.)
---------------------------
 Cr     0   0   0     0.000000000000     0.00000000     0.00000000
 Br     1   0   0     4.429475058510     0.00000000     0.00000000

---------------------
BASIS SET INFORMATION
---------------------
There are 2 groups of distinct atoms

 Group   1 Type Cr  : 116s77p23d3f2g contracted to 8s7p5d3f2g pattern {19191919191911/151515151511/77711/111/11}
 Group   2 Type Br  : 75s36p10d2f contracted to 7s6p4d2f pattern {18181818111/111111111/7111/11}

Atom   0Cr   basis set group =>   1
Atom   1Br   basis set group =>   2
----------------------------------
AUXILIARY/JK BASIS SET INFORMATION
----------------------------------
There are 2 groups of distinct atoms

 Group   1 Type Cr  : 19s14p12d10f7g3h1i contracted to 16s13p11d9f5g3h1i pattern {4111111111111111/2111111111111/21111111111/211111111/31111/111/1}
 Group   2 Type Br  : 20s14p13d10f7g3h contracted to 17s13p12d9f6g3h pattern {41111111111111111/2111111111111/211111111111/211111111/211111/111}

Atom   0Cr   basis set group =>   1
Atom   1Br   basis set group =>   2


           ************************************************************
           *        Program running with 24 parallel MPI-processes    *
           *              working on a common directory               *
           ************************************************************
------------------------------------------------------------------------------
                           ORCA GTO INTEGRAL CALCULATION
------------------------------------------------------------------------------

                         BASIS SET STATISTICS AND STARTUP INFO

 # of primitive gaussian shells          ...  344
 # of primitive gaussian functions       ...  748
 # of contracted shells                  ...   44
 # of contracted basis functions         ...  152
 Highest angular momentum                ...    4
 Maximum contraction depth               ...   19
 Integral package used                   ... LIBINT
 Integral threshhold            Thresh   ...  1.000e-10
 Primitive cut-off              TCut     ...  1.000e-11


------------------------------ INTEGRAL EVALUATION ----------------------------


 * One electron integrals 
 Pre-screening matrix                    ... done
 Shell pair data                         ... done (   0.002 sec)



           ************************************************************
           *        Program running with 24 parallel MPI-processes    *
           *              working on a common directory               *
           ************************************************************
-------------------------------------------------------------------------------
                                 ORCA SCF
-------------------------------------------------------------------------------

------------
SCF SETTINGS
------------
Hamiltonian:
 Density Functional     Method          .... DFT(GTOs)
 Exchange Functional    Exchange        .... TPSS
 Correlation Functional Correlation     .... TPSS
 LDA part of GGA corr.  LDAOpt          .... PW91-LDA
 Gradients option       PostSCFGGA      .... off
 Hybrid DFT is turned on
   Fraction HF Exchange ScalHFX         ....  0.100000
   Scaling of DF-GGA-X  ScalDFX         ....  0.900000
   Scaling of DF-GGA-C  ScalDFC         ....  1.000000
   Scaling of DF-LDA-C  ScalLDAC        ....  1.000000
   Perturbative correction              ....  0.000000
   Density functional embedding theory  .... OFF
   NL short-range parameter             ....  5.200000


General Settings:
 Integral files         IntName         .... 22_CrBr
 Hartree-Fock type      HFTyp           .... UHF
 Total Charge           Charge          ....    0
 Multiplicity           Mult            ....    6
 Number of Electrons    NEL             ....   59
 Basis Dimension        Dim             ....  152
 Nuclear Repulsion      ENuc            ....    189.6387244322 Eh

Convergence Acceleration:
 DIIS                   CNVDIIS         .... on
   Start iteration      DIISMaxIt       ....    12
   Startup error        DIISStart       ....  0.200000
   # of expansion vecs  DIISMaxEq       ....     5
   Bias factor          DIISBfac        ....   1.050
   Max. coefficient     DIISMaxC        ....  10.000
 Newton-Raphson         CNVNR           .... off
 SOSCF                  CNVSOSCF        .... off
 Level Shifting         CNVShift        .... on
   Level shift para.    LevelShift      ....    0.2500
   Turn off err/grad.   ShiftErr        ....    0.0010
 Zerner damping         CNVZerner       .... off
 Static damping         CNVDamp         .... on
   Fraction old density DampFac         ....    0.7000
   Max. Damping (<1)    DampMax         ....    0.9800
   Min. Damping (>=0)   DampMin         ....    0.0000
   Turn off err/grad.   DampErr         ....    0.1000
 Fernandez-Rico         CNVRico         .... off

SCF Procedure:
 Maximum # iterations   MaxIter         ....   125
 SCF integral mode      SCFMode         .... Direct
   Integral package                     .... LIBINT
 Reset frequency        DirectResetFreq ....    20
 Integral Threshold     Thresh          ....  1.000e-10 Eh
 Primitive CutOff       TCut            ....  1.000e-11 Eh

Convergence Tolerance:
 Convergence Check Mode ConvCheckMode   .... Total+1el-Energy
 Convergence forced     ConvForced      .... 0
 Energy Change          TolE            ....  1.000e-06 Eh
 1-El. energy change                    ....  1.000e-03 Eh
 DIIS Error             TolErr          ....  1.000e-06


Diagonalization of the overlap matrix:
Smallest eigenvalue                        ... 9.409e-05
Time for diagonalization                   ...    0.006 sec
Threshold for overlap eigenvalues          ... 1.000e-08
Number of eigenvalues below threshold      ... 0
Time for construction of square roots      ...    0.002 sec
Total time needed                          ...    0.009 sec

-------------------
DFT GRID GENERATION
-------------------

General Integration Accuracy     IntAcc      ...  4.670
Radial Grid Type                 RadialGrid  ... Gauss-Chebyshev
Angular Grid (max. acc.)         AngularGrid ... Lebedev-302
Angular grid pruning method      GridPruning ... 3 (G Style)
Weight generation scheme         WeightScheme... Becke
Basis function cutoff            BFCut       ...    1.0000e-10
Integration weight cutoff        WCut        ...    1.0000e-14
Grids for H and He will be reduced by one unit

# of grid points (after initial pruning)     ...  19280 (   0.0 sec)
# of grid points (after weights+screening)   ...  19253 (   0.0 sec)
nearest neighbour list constructed           ...    0.0 sec
Grid point re-assignment to atoms done       ...    0.0 sec
Grid point division into batches done        ...    0.1 sec
Reduced shell lists constructed in    0.1 sec

Total number of grid points                  ...    19253
Total number of batches                      ...      302
Average number of points per batch           ...       63
Average number of grid points per atom       ...     9626
Average number of shells per batch           ...    16.43 (37.34%)
Average number of basis functions per batch  ...    43.57 (28.67%)
Average number of large shells per batch     ...     9.36 (56.96%)
Average number of large basis fcns per batch ...    25.64 (58.85%)
Maximum spatial batch extension              ...  24.49, 24.19, 17.83 au
Average spatial batch extension              ...   0.84,  0.83,  0.67 au

Time for grid setup =    0.192 sec

------------------------------
INITIAL GUESS: MODEL POTENTIAL
------------------------------
Loading Hartree-Fock densities                     ... done
Calculating cut-offs                               ... done
Setting up the integral package                    ... done
Initializing the effective Hamiltonian             ... done
Starting the Coulomb interaction                   ... done (   0.0 sec)
Reading the grid                                   ... done
Mapping shells                                     ... done
Starting the XC term evaluation                    ... done (   0.0 sec)
  promolecular density results
     # of electrons  =     58.999978508
     EX              =   -136.487148598
     EC              =     -2.730202028
     EX+EC           =   -139.217350625
Transforming the Hamiltonian                       ... done (   0.0 sec)
Diagonalizing the Hamiltonian                      ... done (   0.0 sec)
Back transforming the eigenvectors                 ... done (   0.0 sec)
Now organizing SCF variables                       ... done
                      ------------------
                      INITIAL GUESS DONE (   0.3 sec)
                      ------------------
--------------
SCF ITERATIONS
--------------
ITER       Energy         Delta-E        Max-DP      RMS-DP      [F,P]     Damp
               ***  Starting incremental Fock matrix formation  ***
  0  -3618.6066847355   0.000000000000 0.09948599  0.00174670  0.1174546 0.7000
  1  -3618.6331092762  -0.026424540705 0.03391911  0.00063303  0.0399206 0.7000
                               ***Turning on DIIS***
  2  -3618.6431120487  -0.010002772493 0.06403866  0.00143021  0.0231554 0.0000
  3  -3618.6656199863  -0.022507937600 0.01868294  0.00034150  0.0216177 0.0000
  4  -3618.6680485721  -0.002428585809 0.03648474  0.00065482  0.0190507 0.0000
  5  -3618.6688849662  -0.000836394091 0.00911319  0.00017992  0.0034581 0.0000
  6  -3618.6690398003  -0.000154834034 0.00604298  0.00006759  0.0017710 0.0000
  7  -3618.6691081861  -0.000068385845 0.00456743  0.00004121  0.0011317 0.0000
  8  -3618.6691415041  -0.000033318029 0.01359147  0.00010533  0.0009696 0.0000
  9  -3618.6691781767  -0.000036672538 0.00138047  0.00002576  0.0020819 0.0000
 10  -3618.6691859420  -0.000007765385 0.00240343  0.00002055  0.0007294 0.0000
 11  -3618.6691891639  -0.000003221838 0.00140585  0.00001465  0.0003670 0.0000
 12  -3618.6691899231  -0.000000759200 0.00066110  0.00000461  0.0001698 0.0000
 13  -3618.6691900774  -0.000000154313 0.00010521  0.00000186  0.0001021 0.0000
                 **** Energy Check signals convergence ****

               *****************************************************
               *                     SUCCESS                       *
               *           SCF CONVERGED AFTER  14 CYCLES          *
               *****************************************************


----------------
TOTAL SCF ENERGY
----------------

Total Energy       :        -3618.66919011 Eh          -98468.99473 eV

Components:
Nuclear Repulsion  :          189.63872443 Eh            5160.33204 eV
Electronic Energy  :        -3808.30791454 Eh         -103629.32677 eV
One Electron Energy:        -5400.40419448 Eh         -146952.46905 eV
Two Electron Energy:         1592.09627994 Eh           43323.14228 eV

Virial components:
Potential Energy   :        -7231.92501798 Eh         -196790.68438 eV
Kinetic Energy     :         3613.25582787 Eh           98321.68965 eV
Virial Ratio       :            2.00149820


DFT components:
N(Alpha)           :       31.999995164744 electrons
N(Beta)            :       26.999996343939 electrons
N(Total)           :       58.999991508683 electrons
E(X)               :     -123.582032384542 Eh       
E(C)               :       -2.726458084394 Eh       
E(XC)              :     -126.308490468935 Eh       
DFET-embed. en.    :        0.000000000000 Eh       

---------------
SCF CONVERGENCE
---------------

  Last Energy change         ...   -3.1657e-08  Tolerance :   1.0000e-06
  Last MAX-Density change    ...    5.2312e-05  Tolerance :   1.0000e-05
  Last RMS-Density change    ...    5.1310e-07  Tolerance :   1.0000e-06
  Last DIIS Error            ...    9.9651e-06  Tolerance :   1.0000e-06

             **** THE GBW FILE WAS UPDATED (22_CrBr.gbw) ****
             **** DENSITY FILE WAS UPDATED (22_CrBr.scfp) ****
             **** ENERGY FILE WAS UPDATED (22_CrBr.en.tmp) ****
----------------------
UHF SPIN CONTAMINATION
----------------------

Warning: in a DFT calculation there is little theoretical justification to 
         calculate <S**2> as in Hartree-Fock theory. We will do it anyways
         but you should keep in mind that the values have only limited relevance

Expectation value of <S**2>     :     8.772524
Ideal value S*(S+1) for S=2.5   :     8.750000
Deviation                       :     0.022524

             **** THE GBW FILE WAS UPDATED (22_CrBr.gbw) ****
             **** DENSITY FILE WAS UPDATED (22_CrBr.scfp) ****
----------------
ORBITAL ENERGIES
----------------
                 SPIN UP ORBITALS
  NO   OCC          E(Eh)            E(eV) 
   0   1.0000    -482.515665    -13129.9188 
   1   1.0000    -215.470226     -5863.2429 
   2   1.0000     -62.229316     -1693.3458 
   3   1.0000     -56.013628     -1524.2083 
   4   1.0000     -56.012741     -1524.1842 
   5   1.0000     -56.012741     -1524.1842 
   6   1.0000     -24.522773      -667.2986 
   7   1.0000     -20.788878      -565.6941 
   8   1.0000     -20.788878      -565.6941 
   9   1.0000     -20.788412      -565.6815 
  10   1.0000      -8.571594      -233.2449 
  11   1.0000      -6.386913      -173.7967 
  12   1.0000      -6.383624      -173.7072 
  13   1.0000      -6.383624      -173.7072 
  14   1.0000      -2.864168       -77.9380 
  15   1.0000      -2.512302       -68.3632 
  16   1.0000      -2.511258       -68.3348 
  17   1.0000      -2.511258       -68.3348 
  18   1.0000      -2.508626       -68.2632 
  19   1.0000      -2.508581       -68.2620 
  20   1.0000      -1.824303       -49.6418 
  21   1.0000      -1.819189       -49.5027 
  22   1.0000      -1.819189       -49.5027 
  23   1.0000      -0.692764       -18.8511 
  24   1.0000      -0.300181        -8.1683 
  25   1.0000      -0.269810        -7.3419 
  26   1.0000      -0.269810        -7.3419 
  27   1.0000      -0.211689        -5.7603 
  28   1.0000      -0.211688        -5.7603 
  29   1.0000      -0.202406        -5.5077 
  30   1.0000      -0.202406        -5.5077 
  31   1.0000      -0.199387        -5.4256 
  32   0.0000      -0.114613        -3.1188 
  33   0.0000      -0.033420        -0.9094 
  34   0.0000      -0.033420        -0.9094 
  35   0.0000       0.001344         0.0366 
  36   0.0000       0.006491         0.1766 
  37   0.0000       0.024894         0.6774 
  38   0.0000       0.024894         0.6774 
  39   0.0000       0.042613         1.1596 
  40   0.0000       0.042614         1.1596 
  41   0.0000       0.045249         1.2313 
  42   0.0000       0.049592         1.3495 
  43   0.0000       0.049592         1.3495 
  44   0.0000       0.058330         1.5872 
  45   0.0000       0.103407         2.8138 
  46   0.0000       0.105068         2.8591 
  47   0.0000       0.105068         2.8591 
  48   0.0000       0.113047         3.0762 
  49   0.0000       0.141331         3.8458 
  50   0.0000       0.141331         3.8458 
  51   0.0000       0.171147         4.6572 
  52   0.0000       0.183967         5.0060 
  53   0.0000       0.183968         5.0060 
  54   0.0000       0.186170         5.0659 
  55   0.0000       0.200759         5.4629 
  56   0.0000       0.200759         5.4629 
  57   0.0000       0.222512         6.0548 
  58   0.0000       0.222512         6.0549 
  59   0.0000       0.276772         7.5313 
  60   0.0000       0.297577         8.0975 
  61   0.0000       0.297577         8.0975 
  62   0.0000       0.337721         9.1899 
  63   0.0000       0.472406        12.8548 
  64   0.0000       0.472406        12.8548 
  65   0.0000       0.505553        13.7568 
  66   0.0000       0.505553        13.7568 
  67   0.0000       0.542962        14.7747 
  68   0.0000       0.542964        14.7748 
  69   0.0000       0.562661        15.3108 
  70   0.0000       0.569684        15.5019 
  71   0.0000       0.569684        15.5019 
  72   0.0000       0.586982        15.9726 
  73   0.0000       0.637763        17.3544 
  74   0.0000       0.637764        17.3544 
  75   0.0000       0.638227        17.3670 
  76   0.0000       0.638229        17.3671 
  77   0.0000       0.646607        17.5951 
  78   0.0000       0.695487        18.9252 
  79   0.0000       0.695487        18.9252 
  80   0.0000       0.722464        19.6593 
  81   0.0000       0.775802        21.1107 
  82   0.0000       0.775803        21.1107 
  83   0.0000       0.799686        21.7605 
  84   0.0000       0.814457        22.1625 
  85   0.0000       0.814457        22.1625 
  86   0.0000       0.831333        22.6217 
  87   0.0000       0.831333        22.6217 
  88   0.0000       0.946422        25.7535 
  89   0.0000       0.946425        25.7535 
  90   0.0000       1.034816        28.1588 
  91   0.0000       1.226712        33.3805 
  92   0.0000       1.226712        33.3805 
  93   0.0000       1.420736        38.6602 
  94   0.0000       1.706585        46.4385 
  95   0.0000       1.740120        47.3511 
  96   0.0000       1.740120        47.3511 
  97   0.0000       1.757306        47.8187 
  98   0.0000       1.757310        47.8188 
  99   0.0000       1.774466        48.2857 
 100   0.0000       1.774466        48.2857 
 101   0.0000       1.816659        49.4338 
 102   0.0000       1.915728        52.1296 
 103   0.0000       1.915728        52.1296 
 104   0.0000       2.002377        54.4875 
 105   0.0000       2.002391        54.4878 
 106   0.0000       2.002464        54.4898 
 107   0.0000       2.048439        55.7408 
 108   0.0000       2.048439        55.7408 
 109   0.0000       2.089905        56.8692 
 110   0.0000       2.099511        57.1306 
 111   0.0000       2.099511        57.1306 
 112   0.0000       2.115038        57.5531 
 113   0.0000       2.115068        57.5539 
 114   0.0000       2.135267        58.1036 
 115   0.0000       2.135311        58.1048 
 116   0.0000       2.147670        58.4411 
 117   0.0000       2.147670        58.4411 
 118   0.0000       2.153134        58.5898 
 119   0.0000       2.153134        58.5898 
 120   0.0000       2.246836        61.1395 
 121   0.0000       2.246837        61.1395 
 122   0.0000       2.284204        62.1563 
 123   0.0000       2.284204        62.1563 
 124   0.0000       2.361638        64.2634 
 125   0.0000       2.535238        68.9873 
 126   0.0000       2.549845        69.3848 
 127   0.0000       2.549845        69.3848 
 128   0.0000       2.889813        78.6358 
 129   0.0000       3.263038        88.7918 
 130   0.0000       3.263047        88.7920 
 131   0.0000       3.455330        94.0243 
 132   0.0000       3.455330        94.0243 
 133   0.0000       4.079158       110.9995 
 134   0.0000       4.317557       117.4867 
 135   0.0000       6.097036       165.9088 
 136   0.0000       6.097036       165.9088 
 137   0.0000       6.102164       166.0483 
 138   0.0000       6.102194       166.0492 
 139   0.0000       6.146785       167.2625 
 140   0.0000       6.146785       167.2625 
 141   0.0000       6.290360       171.1694 
 142   0.0000       6.607439       179.7976 
 143   0.0000       6.607439       179.7976 
 144   0.0000       6.608145       179.8168 
 145   0.0000       6.608666       179.8309 
 146   0.0000       6.644844       180.8154 
 147   0.0000       6.644936       180.8179 
 148   0.0000       6.756855       183.8634 
 149   0.0000       6.756855       183.8634 
 150   0.0000       6.856226       186.5674 
 151   0.0000       7.713662       209.8994 

                 SPIN DOWN ORBITALS
  NO   OCC          E(Eh)            E(eV) 
   0   1.0000    -482.515866    -13129.9242 
   1   1.0000    -215.469443     -5863.2216 
   2   1.0000     -62.229368     -1693.3472 
   3   1.0000     -56.014095     -1524.2210 
   4   1.0000     -56.012747     -1524.1843 
   5   1.0000     -56.012747     -1524.1843 
   6   1.0000     -24.464853      -665.7225 
   7   1.0000     -20.743509      -564.4596 
   8   1.0000     -20.738606      -564.3262 
   9   1.0000     -20.738606      -564.3262 
  10   1.0000      -8.571858      -233.2521 
  11   1.0000      -6.387835      -173.8218 
  12   1.0000      -6.383633      -173.7075 
  13   1.0000      -6.383633      -173.7075 
  14   1.0000      -2.689862       -73.1949 
  15   1.0000      -2.513012       -68.3825 
  16   1.0000      -2.511778       -68.3489 
  17   1.0000      -2.511778       -68.3489 
  18   1.0000      -2.508539       -68.2608 
  19   1.0000      -2.508495       -68.2596 
  20   1.0000      -1.647795       -44.8388 
  21   1.0000      -1.633211       -44.4419 
  22   1.0000      -1.633211       -44.4419 
  23   1.0000      -0.694484       -18.8979 
  24   1.0000      -0.290869        -7.9149 
  25   1.0000      -0.255664        -6.9570 
  26   1.0000      -0.255664        -6.9570 
  27   0.0000      -0.085702        -2.3321 
  28   0.0000      -0.024954        -0.6790 
  29   0.0000      -0.016882        -0.4594 
  30   0.0000      -0.016882        -0.4594 
  31   0.0000      -0.007426        -0.2021 
  32   0.0000      -0.007425        -0.2020 
  33   0.0000       0.008178         0.2225 
  34   0.0000       0.008178         0.2225 
  35   0.0000       0.016703         0.4545 
  36   0.0000       0.017078         0.4647 
  37   0.0000       0.039856         1.0845 
  38   0.0000       0.039856         1.0845 
  39   0.0000       0.056400         1.5347 
  40   0.0000       0.062984         1.7139 
  41   0.0000       0.062988         1.7140 
  42   0.0000       0.063167         1.7189 
  43   0.0000       0.063167         1.7189 
  44   0.0000       0.076349         2.0776 
  45   0.0000       0.110810         3.0153 
  46   0.0000       0.110810         3.0153 
  47   0.0000       0.112870         3.0714 
  48   0.0000       0.140776         3.8307 
  49   0.0000       0.172660         4.6983 
  50   0.0000       0.172660         4.6983 
  51   0.0000       0.191411         5.2086 
  52   0.0000       0.201776         5.4906 
  53   0.0000       0.201776         5.4906 
  54   0.0000       0.204505         5.5649 
  55   0.0000       0.236373         6.4320 
  56   0.0000       0.236373         6.4320 
  57   0.0000       0.249809         6.7976 
  58   0.0000       0.249810         6.7977 
  59   0.0000       0.298706         8.1282 
  60   0.0000       0.307838         8.3767 
  61   0.0000       0.307838         8.3767 
  62   0.0000       0.355551         9.6750 
  63   0.0000       0.476960        12.9787 
  64   0.0000       0.476960        12.9787 
  65   0.0000       0.545194        14.8355 
  66   0.0000       0.545194        14.8355 
  67   0.0000       0.571099        15.5404 
  68   0.0000       0.571101        15.5404 
  69   0.0000       0.587008        15.9733 
  70   0.0000       0.596831        16.2406 
  71   0.0000       0.601520        16.3682 
  72   0.0000       0.601520        16.3682 
  73   0.0000       0.641196        17.4478 
  74   0.0000       0.641197        17.4479 
  75   0.0000       0.676812        18.4170 
  76   0.0000       0.676812        18.4170 
  77   0.0000       0.678267        18.4566 
  78   0.0000       0.742387        20.2014 
  79   0.0000       0.742387        20.2014 
  80   0.0000       0.755897        20.5690 
  81   0.0000       0.814001        22.1501 
  82   0.0000       0.817296        22.2397 
  83   0.0000       0.817296        22.2397 
  84   0.0000       0.849726        23.1222 
  85   0.0000       0.849727        23.1222 
  86   0.0000       0.861645        23.4465 
  87   0.0000       0.861645        23.4465 
  88   0.0000       0.968860        26.3640 
  89   0.0000       0.968867        26.3642 
  90   0.0000       1.077983        29.3334 
  91   0.0000       1.264263        34.4023 
  92   0.0000       1.264263        34.4023 
  93   0.0000       1.469475        39.9864 
  94   0.0000       1.770016        48.1646 
  95   0.0000       1.831869        49.8477 
  96   0.0000       1.831869        49.8477 
  97   0.0000       1.847125        50.2628 
  98   0.0000       1.847125        50.2628 
  99   0.0000       1.861160        50.6448 
 100   0.0000       1.861167        50.6449 
 101   0.0000       1.880515        51.1714 
 102   0.0000       1.935229        52.6603 
 103   0.0000       1.935229        52.6603 
 104   0.0000       2.007780        54.6345 
 105   0.0000       2.007800        54.6350 
 106   0.0000       2.010586        54.7108 
 107   0.0000       2.055691        55.9382 
 108   0.0000       2.055691        55.9382 
 109   0.0000       2.115596        57.5683 
 110   0.0000       2.117083        57.6088 
 111   0.0000       2.117116        57.6097 
 112   0.0000       2.127330        57.8876 
 113   0.0000       2.127330        57.8876 
 114   0.0000       2.156711        58.6871 
 115   0.0000       2.156711        58.6871 
 116   0.0000       2.207630        60.0727 
 117   0.0000       2.207650        60.0732 
 118   0.0000       2.224974        60.5446 
 119   0.0000       2.224974        60.5446 
 120   0.0000       2.306781        62.7707 
 121   0.0000       2.306802        62.7713 
 122   0.0000       2.389334        65.0171 
 123   0.0000       2.389334        65.0171 
 124   0.0000       2.432347        66.1875 
 125   0.0000       2.573650        70.0326 
 126   0.0000       2.602069        70.8059 
 127   0.0000       2.602069        70.8059 
 128   0.0000       2.960272        80.5531 
 129   0.0000       3.398010        92.4646 
 130   0.0000       3.398012        92.4646 
 131   0.0000       3.582623        97.4881 
 132   0.0000       3.582623        97.4881 
 133   0.0000       4.123318       112.2012 
 134   0.0000       4.380207       119.1915 
 135   0.0000       6.282557       170.9571 
 136   0.0000       6.282557       170.9571 
 137   0.0000       6.297768       171.3710 
 138   0.0000       6.297823       171.3725 
 139   0.0000       6.328947       172.2194 
 140   0.0000       6.328947       172.2194 
 141   0.0000       6.458766       175.7520 
 142   0.0000       6.731356       183.1695 
 143   0.0000       6.731745       183.1801 
 144   0.0000       6.734358       183.2512 
 145   0.0000       6.734358       183.2512 
 146   0.0000       6.765537       184.0996 
 147   0.0000       6.765566       184.1004 
 148   0.0000       6.870747       186.9625 
 149   0.0000       6.870747       186.9625 
 150   0.0000       6.967906       189.6064 
 151   0.0000       7.857875       213.8237 

                    ********************************
                    * MULLIKEN POPULATION ANALYSIS *
                    ********************************

--------------------------------------------
MULLIKEN ATOMIC CHARGES AND SPIN POPULATIONS
--------------------------------------------
   0 Cr:    0.262734    5.123791
   1 Br:   -0.262734   -0.123791
Sum of atomic charges         :   -0.0000000
Sum of atomic spin populations:    5.0000000

-----------------------------------------------------
MULLIKEN REDUCED ORBITAL CHARGES AND SPIN POPULATIONS
-----------------------------------------------------
CHARGE
  0 Crs       :     6.663191  s :     6.663191
      pz      :     4.101968  p :    12.205054
      px      :     4.051543
      py      :     4.051543
      dz2     :     0.799920  d :     4.844584
      dxz     :     1.023436
      dyz     :     1.023436
      dx2y2   :     0.998896
      dxy     :     0.998896
      f0      :     0.007820  f :     0.022879
      f+1     :     0.007432
      f-1     :     0.007432
      f+2     :     0.000098
      f-2     :     0.000098
      f+3     :     0.000000
      f-3     :     0.000000
      g0      :     0.000602  g :     0.001557
      g+1     :     0.000475
      g-1     :     0.000475
      g+2     :     0.000003
      g-2     :     0.000003
      g+3     :     0.000000
      g-3     :     0.000000
      g+4     :     0.000000
      g-4     :     0.000000
  1 Brs       :     7.938800  s :     7.938800
      pz      :     5.486922  p :    17.305434
      px      :     5.909256
      py      :     5.909256
      dz2     :     2.000995  d :    10.016439
      dxz     :     2.007098
      dyz     :     2.007098
      dx2y2   :     2.000624
      dxy     :     2.000624
      f0      :    -0.000218  f :     0.002060
      f+1     :     0.000760
      f-1     :     0.000760
      f+2     :     0.000379
      f-2     :     0.000379
      f+3     :     0.000000
      f-3     :     0.000000

SPIN
  0 Crs       :     0.464557  s :     0.464557
      pz      :     0.014085  p :     0.062775
      px      :     0.024345
      py      :     0.024345
      dz2     :     0.676961  d :     4.596193
      dxz     :     0.960720
      dyz     :     0.960720
      dx2y2   :     0.998896
      dxy     :     0.998896
      f0      :    -0.000253  f :     0.000535
      f+1     :     0.000299
      f-1     :     0.000299
      f+2     :     0.000095
      f-2     :     0.000095
      f+3     :     0.000000
      f-3     :     0.000000
      g0      :    -0.000152  g :    -0.000269
      g+1     :    -0.000061
      g-1     :    -0.000061
      g+2     :     0.000003
      g-2     :     0.000003
      g+3     :     0.000000
      g-3     :     0.000000
      g+4     :     0.000000
      g-4     :     0.000000
  1 Brs       :    -0.013101  s :    -0.013101
      pz      :    -0.141872  p :    -0.117759
      px      :     0.012056
      py      :     0.012056
      dz2     :    -0.000056  d :     0.006411
      dxz     :     0.002606
      dyz     :     0.002606
      dx2y2   :     0.000628
      dxy     :     0.000628
      f0      :    -0.000170  f :     0.000657
      f+1     :     0.000035
      f-1     :     0.000035
      f+2     :     0.000379
      f-2     :     0.000379
      f+3     :    -0.000000
      f-3     :    -0.000000


                     *******************************
                     * LOEWDIN POPULATION ANALYSIS *
                     *******************************

-------------------------------------------
LOEWDIN ATOMIC CHARGES AND SPIN POPULATIONS
-------------------------------------------
   0 Cr:   -0.076105    4.910803
   1 Br:    0.076105    0.089197

----------------------------------------------------
LOEWDIN REDUCED ORBITAL CHARGES AND SPIN POPULATIONS
----------------------------------------------------
CHARGE
  0 Crs       :     6.448638  s :     6.448638
      pz      :     4.186448  p :    12.353641
      px      :     4.083597
      py      :     4.083597
      dz2     :     0.928579  d :     5.055019
      dxz     :     1.068968
      dyz     :     1.068968
      dx2y2   :     0.994251
      dxy     :     0.994251
      f0      :     0.074799  f :     0.206642
      f+1     :     0.065613
      f-1     :     0.065613
      f+2     :     0.000308
      f-2     :     0.000308
      f+3     :     0.000000
      f-3     :     0.000000
      g0      :     0.005178  g :     0.012166
      g+1     :     0.003491
      g-1     :     0.003491
      g+2     :     0.000003
      g-2     :     0.000003
      g+3     :     0.000000
      g-3     :     0.000000
      g+4     :     0.000000
      g-4     :     0.000000
  1 Brs       :     7.591430  s :     7.591430
      pz      :     5.620332  p :    17.068073
      px      :     5.723871
      py      :     5.723871
      dz2     :     2.101324  d :    10.172904
      dxz     :     2.033109
      dyz     :     2.033109
      dx2y2   :     2.002681
      dxy     :     2.002681
      f0      :     0.043272  f :     0.091487
      f+1     :     0.021352
      f-1     :     0.021352
      f+2     :     0.002756
      f-2     :     0.002756
      f+3     :     0.000000
      f-3     :     0.000000

SPIN
  0 Crs       :     0.369829  s :     0.369829
      pz      :    -0.006910  p :     0.064290
      px      :     0.035600
      py      :     0.035600
      dz2     :     0.651887  d :     4.472785
      dxz     :     0.916200
      dyz     :     0.916200
      dx2y2   :     0.994249
      dxy     :     0.994249
      f0      :    -0.001834  f :     0.004219
      f+1     :     0.002736
      f-1     :     0.002736
      f+2     :     0.000291
      f-2     :     0.000291
      f+3     :     0.000000
      f-3     :     0.000000
      g0      :    -0.000492  g :    -0.000320
      g+1     :     0.000083
      g-1     :     0.000083
      g+2     :     0.000003
      g-2     :     0.000003
      g+3     :     0.000000
      g-3     :     0.000000
      g+4     :     0.000000
      g-4     :     0.000000
  1 Brs       :     0.012889  s :     0.012889
      pz      :    -0.038429  p :    -0.016682
      px      :     0.010874
      py      :     0.010874
      dz2     :     0.010952  d :     0.057304
      dxz     :     0.020475
      dyz     :     0.020475
      dx2y2   :     0.002701
      dxy     :     0.002701
      f0      :     0.002108  f :     0.035685
      f+1     :     0.014033
      f-1     :     0.014033
      f+2     :     0.002756
      f-2     :     0.002756
      f+3     :    -0.000000
      f-3     :    -0.000000


                      *****************************
                      * MAYER POPULATION ANALYSIS *
                      *****************************

  NA   - Mulliken gross atomic population
  ZA   - Total nuclear charge
  QA   - Mulliken gross atomic charge
  VA   - Mayer's total valence
  BVA  - Mayer's bonded valence
  FA   - Mayer's free valence

  ATOM       NA         ZA         QA         VA         BVA        FA
  0 Cr    23.7373    24.0000     0.2627     6.0532     1.1552     4.8980
  1 Br    35.2627    35.0000    -0.2627     1.1735     1.1552     0.0183

  Mayer bond orders larger than 0.100000
B(  0-Cr,  1-Br) :   1.1552 

-------
TIMINGS
-------

Total SCF time: 0 days 0 hours 2 min 47 sec 

Total time                  ....     167.129 sec
Sum of individual times     ....     166.760 sec  ( 99.8%)

Fock matrix formation       ....     166.326 sec  ( 99.5%)
  XC integration            ....       0.628 sec  (  0.4% of F)
    Basis function eval.    ....       0.100 sec  ( 16.0% of XC)
    Density eval.           ....       0.109 sec  ( 17.4% of XC)
    XC-Functional eval.     ....       0.024 sec  (  3.9% of XC)
    XC-Potential eval.      ....       0.265 sec  ( 42.2% of XC)
Diagonalization             ....       0.083 sec  (  0.0%)
Density matrix formation    ....       0.011 sec  (  0.0%)
Population analysis         ....       0.007 sec  (  0.0%)
Initial guess               ....       0.111 sec  (  0.1%)
Orbital Transformation      ....       0.000 sec  (  0.0%)
Orbital Orthonormalization  ....       0.000 sec  (  0.0%)
DIIS solution               ....       0.030 sec  (  0.0%)
Grid generation             ....       0.192 sec  (  0.1%)


-------------------------------------------------------------------------------
                          DFT DISPERSION CORRECTION                            
                                                                               
                              DFTD3 V3.1  Rev 1                                
                          USING Becke-Johnson damping                          
-------------------------------------------------------------------------------
The TPSSH functional is recognized
Active option DFTDOPT                   ...         4   

molecular C6(AA) [au] = 1000.724547 


            DFT-D V3
 parameters
 s6 scaling factor         :     1.0000 
 a1 scaling factor         :     0.4529 
 s8 scaling factor         :     2.2382 
 a2 scaling factor         :     4.6550 
 ad hoc parameters k1-k3   :    16.0000     1.3333    -4.0000 

 Edisp/kcal,au: -1.171265713341  -0.001866530526 
 E6   /kcal   :  -0.351126947 
 E8   /kcal   :  -0.820138767 
 % E8         :  70.021580710 

-------------------------   ----------------
Dispersion correction           -0.001866531
-------------------------   ----------------


-------------------------   --------------------
FINAL SINGLE POINT ENERGY     -3618.671056639581
-------------------------   --------------------


                            ***************************************
                            *     ORCA property calculations      *
                            ***************************************

                                    ---------------------
                                    Active property flags
                                    ---------------------
   (+) Dipole Moment


------------------------------------------------------------------------------
                       ORCA ELECTRIC PROPERTIES CALCULATION
------------------------------------------------------------------------------

Dipole Moment Calculation                       ... on
Quadrupole Moment Calculation                   ... off
Polarizability Calculation                      ... off
GBWName                                         ... 22_CrBr.gbw
Electron density file                           ... 22_CrBr.scfp
The origin for moment calculation is the CENTER OF MASS  = ( 0.000000,  0.000000  2.358196)

-------------
DIPOLE MOMENT
-------------
                                X             Y             Z
Electronic contribution:      0.00000       0.00000       1.21109
Nuclear contribution   :      0.00000       0.00000      -3.27761
                        -----------------------------------------
Total Dipole Moment    :      0.00000       0.00000      -2.06652
                        -----------------------------------------
Magnitude (a.u.)       :      2.06652
Magnitude (Debye)      :      5.25268



--------------------
Rotational spectrum 
--------------------
 
Rotational constants in cm-1:     0.000000     0.097406     0.097406 
Rotational constants in MHz :     0.000000  2920.152240  2920.152240 

 Dipole components along the rotational axes: 
x,y,z [a.u.] :    -2.066519     0.000000     0.000000 
x,y,z [Debye]:    -5.252675     0.000000     0.000000 

 

Timings for individual modules:

Sum of individual times         ...      172.654 sec (=   2.878 min)
GTO integral calculation        ...        5.055 sec (=   0.084 min)   2.9 %
SCF iterations                  ...      167.598 sec (=   2.793 min)  97.1 %
                             ****ORCA TERMINATED NORMALLY****
TOTAL RUN TIME: 0 days 0 hours 2 minutes 53 seconds 301 msec
