
                                 *****************
                                 * O   R   C   A *
                                 *****************

           --- An Ab Initio, DFT and Semiempirical electronic structure package ---

                  #######################################################
                  #                        -***-                        #
                  #          Department of theory and spectroscopy      #
                  #               Directorship: Frank Neese             #
                  #        Max Planck Institute fuer Kohlenforschung    #
                  #                Kaiser Wilhelm Platz 1               #
                  #                 D-45470 Muelheim/Ruhr               #
                  #                      Germany                        #
                  #                                                     #
                  #                  All rights reserved                #
                  #                        -***-                        #
                  #######################################################


                         Program Version 4.2.0 -  RELEASE  -


 With contributions from (in alphabetic order):
   Daniel Aravena         : Magnetic Suceptibility
   Michael Atanasov       : Ab Initio Ligand Field Theory (pilot matlab implementation)
   Alexander A. Auer      : GIAO ZORA, VPT2
   Ute Becker             : Parallelization
   Giovanni Bistoni       : ED, misc. LED, open-shell LED, HFLED
   Martin Brehm           : Molecular dynamics
   Dmytro Bykov           : SCF Hessian
   Vijay G. Chilkuri      : MRCI spin determinant printing, contributions to CSF-ICE
   Dipayan Datta          : RHF DLPNO-CCSD density
   Achintya Kumar Dutta   : EOM-CC, STEOM-CC
   Dmitry Ganyushin       : Spin-Orbit,Spin-Spin,Magnetic field MRCI
   Miquel Garcia          : C-PCM Hessian, Gaussian charge scheme
   Yang Guo               : DLPNO-NEVPT2, CIM, IAO-localization
   Andreas Hansen         : Spin unrestricted coupled pair/coupled cluster methods
   Benjamin Helmich-Paris : CASSCF linear response (MC-RPA)
   Lee Huntington         : MR-EOM, pCC
   Robert Izsak           : Overlap fitted RIJCOSX, COSX-SCS-MP3, EOM
   Christian Kollmar      : KDIIS, OOCD, Brueckner-CCSD(T), CCSD density
   Simone Kossmann        : Meta GGA functionals, TD-DFT gradient, OOMP2, MP2 Hessian
   Martin Krupicka        : AUTO-CI
   Lucas Lang             : DCDCAS
   Dagmar Lenk            : GEPOL surface, SMD
   Dimitrios Liakos       : Extrapolation schemes; Compound Job, initial MDCI parallelization
   Dimitrios Manganas     : Further ROCIS development; embedding schemes
   Dimitrios Pantazis     : SARC Basis sets
   Taras Petrenko         : DFT Hessian,TD-DFT gradient, ASA, ECA, R-Raman, ABS, FL, XAS/XES, NRVS
   Peter Pinski           : DLPNO-MP2, DLPNO-MP2 Gradient
   Christoph Reimann      : Effective Core Potentials
   Marius Retegan         : Local ZFS, SOC
   Christoph Riplinger    : Optimizer, TS searches, QM/MM, DLPNO-CCSD(T), (RO)-DLPNO pert. Triples
   Tobias Risthaus        : Range-separated hybrids, TD-DFT gradient, RPA, STAB
   Michael Roemelt        : Original ROCIS implementation
   Masaaki Saitow         : Open-shell DLPNO-CCSD energy and density
   Barbara Sandhoefer     : DKH picture change effects
   Avijit Sen             : IP-ROCIS
   Kantharuban Sivalingam : CASSCF convergence, NEVPT2, FIC-MRCI
   Bernardo de Souza      : ESD, SOC TD-DFT
   Georgi Stoychev        : AutoAux, RI-MP2 NMR
   Willem Van den Heuvel  : Paramagnetic NMR
   Boris Wezisla          : Elementary symmetry handling
   Frank Wennmohs         : Technical directorship


 We gratefully acknowledge several colleagues who have allowed us to
 interface, adapt or use parts of their codes:
   Stefan Grimme, W. Hujo, H. Kruse,             : VdW corrections, initial TS optimization,
                  C. Bannwarth                     DFT functionals, gCP, sTDA/sTD-DF
   Ed Valeev, F. Pavosevic, A. Kumar             : LibInt (2-el integral package), F12 methods
   Garnet Chan, S. Sharma, J. Yang, R. Olivares  : DMRG
   Ulf Ekstrom                                   : XCFun DFT Library
   Mihaly Kallay                                 : mrcc  (arbitrary order and MRCC methods)
   Andreas Klamt, Michael Diedenhofen            : otool_cosmo (COSMO solvation model)
   Jiri Pittner, Ondrej Demel                    : Mk-CCSD
   Frank Weinhold                                : gennbo (NPA and NBO analysis)
   Christopher J. Cramer and Donald G. Truhlar   : smd solvation model
   Lars Goerigk                                  : TD-DFT with DH, B97 family of functionals
   V. Asgeirsson, H. Jonsson                     : NEB implementation
   FAccTs GmbH                                   : IRC, NEB, NEB-TS, Multilevel, MM, QM/MM, CI optimization
   S Lehtola, MJT Oliveira, MAL Marques          : LibXC Library


 Your calculation uses the libint2 library for the computation of 2-el integrals
 For citations please refer to: http://libint.valeyev.net

 Your ORCA version has been built with support for libXC version: 4.2.3
 For citations please refer to: https://tddft.org/programs/libxc/

 This ORCA versions uses:
   CBLAS   interface :  Fast vector & matrix operations
   LAPACKE interface :  Fast linear algebra routines
   SCALAPACK package :  Parallel linear algebra routines


Your calculation utilizes the atom-pairwise dispersion correction
with the Becke-Johnson damping scheme (D3BJ)
Cite in your paper:
S.Grimme, S.Ehrlich, L.Goerigk, J Comput Chem, (2011), 32, 1456–1465 
S.Grimme, J.Antony, S.Ehrlich and H.Krieg, J.Chem.Phys., 132, (2010), 154104 
   

----- Orbital basis set information -----
Your calculation utilizes the basis: aug-cc-pVTZ 
    H, B-Ne : Obtained from the ccRepo (grant-hill.group.shef.ac.uk/ccrepo) Feb. 2017
              R. A. Kendall, T. H. Dunning, Jr., R. J. Harrison, J. Chem. Phys. 96, 6796 (1992)
         He : Obtained from the ccRepo (grant-hill.group.shef.ac.uk/ccrepo) Feb. 2017
              D. E. Woon, T. H. Dunning, Jr., J. Chem. Phys. 100, 2975 (1994)
  Li-Be, Na : Obtained from the ccRepo (grant-hill.group.shef.ac.uk/ccrepo) Feb. 2017
              B. P. Prascher, D. E. Woon, K. A. Peterson, T. H. Dunning, Jr., A. K. Wilson, Theor. Chem. Acc. 128, 69 (2011)
         Mg : Obtained from the Peterson Research Group Website (tyr0.chem.wsu.edu/~kipeters) Feb. 2017
              B. P. Prascher, D. E. Woon, K. A. Peterson, T. H. Dunning, Jr., A. K. Wilson, Theor. Chem. Acc. 128, 69 (2011)
      Al-Ar : Obtained from the ccRepo (grant-hill.group.shef.ac.uk/ccrepo) Feb. 2017
              D. E. Woon, T. H. Dunning, Jr., J. Chem. Phys. 98, 1358 (1993)
      Sc-Zn : Obtained from the ccRepo (grant-hill.group.shef.ac.uk/ccrepo) Feb. 2017
              N. B. Balabanov, K. A. Peterson, J. Chem. Phys. 123, 064107 (2005)
              N. B. Balabanov, K. A. Peterson, J. Chem. Phys. 125, 074110 (2006)
      Ga-Kr : Obtained from the ccRepo (grant-hill.group.shef.ac.uk/ccrepo) Feb. 2017
              A. K. Wilson, D. E. Woon, K. A. Peterson, T. H. Dunning, Jr., J. Chem. Phys. 110, 7667 (1999)
     Ag, Au : Obtained from the Peterson Research Group Website (tyr0.chem.wsu.edu/~kipeters) Feb. 2017
              K. A. Peterson, C. Puzzarini, Theor. Chem. Acc. 114, 283 (2005)

----- AuxJK basis set information -----
Your calculation utilizes the auxiliary basis: def2/JK
   H-Ba, Hf-Rn: F. Weigend, J. Comput. Chem. 29, 167 (2008).

================================================================================
                                        WARNINGS
                       Please study these warnings very carefully!
================================================================================


WARNING: your system is open-shell and RHF/RKS was chosen
  ===> : WILL SWITCH to UHF/UKS


INFO   : the flag for use of LIBINT has been found!

================================================================================
                                       INPUT FILE
================================================================================
NAME = 25_MnH.in
|  1> #
|  2> # 25_MnH tpssh/aug-cc-pvtz
|  3> #
|  4> ! tpssh d3bj aug-cc-pvtz def2/jk grid4 nofinalgrid
|  5> 
|  6> *xyz 0 7
|  7>   Mn  0.00000000000000      0.00000000000000      0.13923463274405
|  8>   H   0.00000000000000      0.00000000000000      1.86076536725595
|  9> *
| 10> 
| 11> %pal
| 12> nprocs 24
| 13> end
| 14> 
| 15> 
| 16>                          ****END OF INPUT****
================================================================================

                       ****************************
                       * Single Point Calculation *
                       ****************************

---------------------------------
CARTESIAN COORDINATES (ANGSTROEM)
---------------------------------
  Mn     0.000000    0.000000    0.139235
  H      0.000000    0.000000    1.860765

----------------------------
CARTESIAN COORDINATES (A.U.)
----------------------------
  NO LB      ZA    FRAG     MASS         X           Y           Z
   0 Mn   25.0000    0    54.940    0.000000    0.000000    0.263115
   1 H     1.0000    0     1.008    0.000000    0.000000    3.516337

--------------------------------
INTERNAL COORDINATES (ANGSTROEM)
--------------------------------
 Mn     0   0   0     0.000000000000     0.00000000     0.00000000
 H      1   0   0     1.721530734512     0.00000000     0.00000000

---------------------------
INTERNAL COORDINATES (A.U.)
---------------------------
 Mn     0   0   0     0.000000000000     0.00000000     0.00000000
 H      1   0   0     3.253221619356     0.00000000     0.00000000

---------------------
BASIS SET INFORMATION
---------------------
There are 2 groups of distinct atoms

 Group   1 Type Mn  : 116s77p23d3f2g contracted to 8s7p5d3f2g pattern {19191919191911/151515151511/77711/111/11}
 Group   2 Type H   : 6s3p2d contracted to 4s3p2d pattern {3111/111/11}

Atom   0Mn   basis set group =>   1
Atom   1H    basis set group =>   2
----------------------------------
AUXILIARY/JK BASIS SET INFORMATION
----------------------------------
There are 2 groups of distinct atoms

 Group   1 Type Mn  : 19s14p12d10f7g3h1i contracted to 16s13p11d9f5g3h1i pattern {4111111111111111/2111111111111/21111111111/211111111/31111/111/1}
 Group   2 Type H   : 4s2p2d contracted to 2s2p2d pattern {31/11/11}

Atom   0Mn   basis set group =>   1
Atom   1H    basis set group =>   2


           ************************************************************
           *        Program running with 24 parallel MPI-processes    *
           *              working on a common directory               *
           ************************************************************
------------------------------------------------------------------------------
                           ORCA GTO INTEGRAL CALCULATION
------------------------------------------------------------------------------

                         BASIS SET STATISTICS AND STARTUP INFO

 # of primitive gaussian shells          ...  232
 # of primitive gaussian functions       ...  526
 # of contracted shells                  ...   34
 # of contracted basis functions         ...  116
 Highest angular momentum                ...    4
 Maximum contraction depth               ...   19
 Integral package used                   ... LIBINT
 Integral threshhold            Thresh   ...  1.000e-10
 Primitive cut-off              TCut     ...  1.000e-11


------------------------------ INTEGRAL EVALUATION ----------------------------


 * One electron integrals 
 Pre-screening matrix                    ... done
 Shell pair data                         ... done (   0.001 sec)



           ************************************************************
           *        Program running with 24 parallel MPI-processes    *
           *              working on a common directory               *
           ************************************************************
-------------------------------------------------------------------------------
                                 ORCA SCF
-------------------------------------------------------------------------------

------------
SCF SETTINGS
------------
Hamiltonian:
 Density Functional     Method          .... DFT(GTOs)
 Exchange Functional    Exchange        .... TPSS
 Correlation Functional Correlation     .... TPSS
 LDA part of GGA corr.  LDAOpt          .... PW91-LDA
 Gradients option       PostSCFGGA      .... off
 Hybrid DFT is turned on
   Fraction HF Exchange ScalHFX         ....  0.100000
   Scaling of DF-GGA-X  ScalDFX         ....  0.900000
   Scaling of DF-GGA-C  ScalDFC         ....  1.000000
   Scaling of DF-LDA-C  ScalLDAC        ....  1.000000
   Perturbative correction              ....  0.000000
   Density functional embedding theory  .... OFF
   NL short-range parameter             ....  5.200000


General Settings:
 Integral files         IntName         .... 25_MnH
 Hartree-Fock type      HFTyp           .... UHF
 Total Charge           Charge          ....    0
 Multiplicity           Mult            ....    7
 Number of Electrons    NEL             ....   26
 Basis Dimension        Dim             ....  116
 Nuclear Repulsion      ENuc            ....      7.6846901088 Eh

Convergence Acceleration:
 DIIS                   CNVDIIS         .... on
   Start iteration      DIISMaxIt       ....    12
   Startup error        DIISStart       ....  0.200000
   # of expansion vecs  DIISMaxEq       ....     5
   Bias factor          DIISBfac        ....   1.050
   Max. coefficient     DIISMaxC        ....  10.000
 Newton-Raphson         CNVNR           .... off
 SOSCF                  CNVSOSCF        .... off
 Level Shifting         CNVShift        .... on
   Level shift para.    LevelShift      ....    0.2500
   Turn off err/grad.   ShiftErr        ....    0.0010
 Zerner damping         CNVZerner       .... off
 Static damping         CNVDamp         .... on
   Fraction old density DampFac         ....    0.7000
   Max. Damping (<1)    DampMax         ....    0.9800
   Min. Damping (>=0)   DampMin         ....    0.0000
   Turn off err/grad.   DampErr         ....    0.1000
 Fernandez-Rico         CNVRico         .... off

SCF Procedure:
 Maximum # iterations   MaxIter         ....   125
 SCF integral mode      SCFMode         .... Direct
   Integral package                     .... LIBINT
 Reset frequency        DirectResetFreq ....    20
 Integral Threshold     Thresh          ....  1.000e-10 Eh
 Primitive CutOff       TCut            ....  1.000e-11 Eh

Convergence Tolerance:
 Convergence Check Mode ConvCheckMode   .... Total+1el-Energy
 Convergence forced     ConvForced      .... 0
 Energy Change          TolE            ....  1.000e-06 Eh
 1-El. energy change                    ....  1.000e-03 Eh
 DIIS Error             TolErr          ....  1.000e-06


Diagonalization of the overlap matrix:
Smallest eigenvalue                        ... 5.289e-05
Time for diagonalization                   ...    0.004 sec
Threshold for overlap eigenvalues          ... 1.000e-08
Number of eigenvalues below threshold      ... 0
Time for construction of square roots      ...    0.017 sec
Total time needed                          ...    0.021 sec

-------------------
DFT GRID GENERATION
-------------------

General Integration Accuracy     IntAcc      ...  4.670
Radial Grid Type                 RadialGrid  ... Gauss-Chebyshev
Angular Grid (max. acc.)         AngularGrid ... Lebedev-302
Angular grid pruning method      GridPruning ... 3 (G Style)
Weight generation scheme         WeightScheme... Becke
Basis function cutoff            BFCut       ...    1.0000e-10
Integration weight cutoff        WCut        ...    1.0000e-14
Grids for H and He will be reduced by one unit

# of grid points (after initial pruning)     ...  13058 (   0.0 sec)
# of grid points (after weights+screening)   ...  13023 (   0.0 sec)
nearest neighbour list constructed           ...    0.0 sec
Grid point re-assignment to atoms done       ...    0.0 sec
Grid point division into batches done        ...    0.1 sec
Reduced shell lists constructed in    0.1 sec

Total number of grid points                  ...    13023
Total number of batches                      ...      205
Average number of points per batch           ...       63
Average number of grid points per atom       ...     6512
Average number of shells per batch           ...    15.70 (46.18%)
Average number of basis functions per batch  ...    35.10 (30.26%)
Average number of large shells per batch     ...     9.80 (62.42%)
Average number of large basis fcns per batch ...    22.60 (64.39%)
Maximum spatial batch extension              ...  31.41, 28.57, 18.88 au
Average spatial batch extension              ...   1.01,  0.93,  0.72 au

Time for grid setup =    0.123 sec

------------------------------
INITIAL GUESS: MODEL POTENTIAL
------------------------------
Loading Hartree-Fock densities                     ... done
Calculating cut-offs                               ... done
Setting up the integral package                    ... done
Initializing the effective Hamiltonian             ... done
Starting the Coulomb interaction                   ... done (   0.0 sec)
Reading the grid                                   ... done
Mapping shells                                     ... done
Starting the XC term evaluation                    ... done (   0.0 sec)
  promolecular density results
     # of electrons  =     25.999501967
     EX              =    -50.857775765
     EC              =     -1.096727164
     EX+EC           =    -51.954502929
Transforming the Hamiltonian                       ... done (   0.0 sec)
Diagonalizing the Hamiltonian                      ... done (   0.0 sec)
Back transforming the eigenvectors                 ... done (   0.0 sec)
Now organizing SCF variables                       ... done
                      ------------------
                      INITIAL GUESS DONE (   0.2 sec)
                      ------------------
--------------
SCF ITERATIONS
--------------
ITER       Energy         Delta-E        Max-DP      RMS-DP      [F,P]     Damp
               ***  Starting incremental Fock matrix formation  ***
  0  -1151.5376613461   0.000000000000 0.04426825  0.00127771  0.1205797 0.7000
  1  -1151.5583787698  -0.020717423781 0.02655790  0.00060858  0.0752771 0.7000
                               ***Turning on DIIS***
  2  -1151.5658066166  -0.007427846791 0.10080450  0.00239272  0.0417346 0.0000
  3  -1151.5806512212  -0.014844604568 0.04249400  0.00049366  0.0383555 0.0000
  4  -1151.5836673831  -0.003016161889 0.02964170  0.00070178  0.0190177 0.0000
  5  -1151.5846438757  -0.000976492629 0.01765667  0.00030959  0.0072521 0.0000
  6  -1151.5849791005  -0.000335224781 0.00947994  0.00009778  0.0047019 0.0000
  7  -1151.5851339644  -0.000154863874 0.00618204  0.00006172  0.0030544 0.0000
  8  -1151.5851970956  -0.000063131199 0.00393971  0.00003753  0.0018734 0.0000
  9  -1151.5852215035  -0.000024407904 0.00240094  0.00002388  0.0011323 0.0000
 10  -1151.5852308638  -0.000009360329 0.00343106  0.00003371  0.0006966 0.0000
 11  -1151.5852357110  -0.000004847240 0.00042593  0.00001036  0.0003927 0.0000
 12  -1151.5852360074  -0.000000296382 0.00021899  0.00000500  0.0001506 0.0000
                 **** Energy Check signals convergence ****

               *****************************************************
               *                     SUCCESS                       *
               *           SCF CONVERGED AFTER  13 CYCLES          *
               *****************************************************


----------------
TOTAL SCF ENERGY
----------------

Total Energy       :        -1151.58523607 Eh          -31336.22738 eV

Components:
Nuclear Repulsion  :            7.68469011 Eh             209.11105 eV
Electronic Energy  :        -1159.26992618 Eh          -31545.33843 eV
One Electron Energy:        -1600.92552044 Eh          -43563.39813 eV
Two Electron Energy:          441.65559425 Eh           12018.05971 eV

Virial components:
Potential Energy   :        -2301.63560392 Eh          -62630.68887 eV
Kinetic Energy     :         1150.05036785 Eh           31294.46149 eV
Virial Ratio       :            2.00133461


DFT components:
N(Alpha)           :       16.000002036229 electrons
N(Beta)            :       10.000002123954 electrons
N(Total)           :       26.000004160183 electrons
E(X)               :      -46.277004346381 Eh       
E(C)               :       -1.070307068999 Eh       
E(XC)              :      -47.347311415379 Eh       
DFET-embed. en.    :        0.000000000000 Eh       

---------------
SCF CONVERGENCE
---------------

  Last Energy change         ...   -6.6184e-08  Tolerance :   1.0000e-06
  Last MAX-Density change    ...    5.7948e-05  Tolerance :   1.0000e-05
  Last RMS-Density change    ...    8.6168e-07  Tolerance :   1.0000e-06
  Last DIIS Error            ...    1.7599e-05  Tolerance :   1.0000e-06

             **** THE GBW FILE WAS UPDATED (25_MnH.gbw) ****
             **** DENSITY FILE WAS UPDATED (25_MnH.scfp) ****
             **** ENERGY FILE WAS UPDATED (25_MnH.en.tmp) ****
----------------------
UHF SPIN CONTAMINATION
----------------------

Warning: in a DFT calculation there is little theoretical justification to 
         calculate <S**2> as in Hartree-Fock theory. We will do it anyways
         but you should keep in mind that the values have only limited relevance

Expectation value of <S**2>     :    12.003914
Ideal value S*(S+1) for S=3.0   :    12.000000
Deviation                       :     0.003914

             **** THE GBW FILE WAS UPDATED (25_MnH.gbw) ****
             **** DENSITY FILE WAS UPDATED (25_MnH.scfp) ****
----------------
ORBITAL ENERGIES
----------------
                 SPIN UP ORBITALS
  NO   OCC          E(Eh)            E(eV) 
   0   1.0000    -235.299697     -6402.8303 
   1   1.0000     -27.243933      -741.3451 
   2   1.0000     -23.292434      -633.8193 
   3   1.0000     -23.292434      -633.8193 
   4   1.0000     -23.288823      -633.7211 
   5   1.0000      -3.271044       -89.0096 
   6   1.0000      -2.139281       -58.2128 
   7   1.0000      -2.139281       -58.2128 
   8   1.0000      -2.127725       -57.8983 
   9   1.0000      -0.356024        -9.6879 
  10   1.0000      -0.348452        -9.4819 
  11   1.0000      -0.348452        -9.4819 
  12   1.0000      -0.340592        -9.2680 
  13   1.0000      -0.340592        -9.2680 
  14   1.0000      -0.273409        -7.4398 
  15   1.0000      -0.160664        -4.3719 
  16   0.0000      -0.055967        -1.5229 
  17   0.0000      -0.055967        -1.5229 
  18   0.0000       0.000184         0.0050 
  19   0.0000       0.012191         0.3317 
  20   0.0000       0.024461         0.6656 
  21   0.0000       0.024461         0.6656 
  22   0.0000       0.037880         1.0308 
  23   0.0000       0.047519         1.2931 
  24   0.0000       0.047519         1.2931 
  25   0.0000       0.048043         1.3073 
  26   0.0000       0.048043         1.3073 
  27   0.0000       0.065251         1.7756 
  28   0.0000       0.094680         2.5764 
  29   0.0000       0.133813         3.6412 
  30   0.0000       0.148651         4.0450 
  31   0.0000       0.148651         4.0450 
  32   0.0000       0.173010         4.7078 
  33   0.0000       0.200471         5.4551 
  34   0.0000       0.200471         5.4551 
  35   0.0000       0.213436         5.8079 
  36   0.0000       0.213437         5.8079 
  37   0.0000       0.261706         7.1214 
  38   0.0000       0.261706         7.1214 
  39   0.0000       0.268757         7.3132 
  40   0.0000       0.397005        10.8031 
  41   0.0000       0.450450        12.2574 
  42   0.0000       0.597663        16.2632 
  43   0.0000       0.597666        16.2633 
  44   0.0000       0.607832        16.5399 
  45   0.0000       0.631162        17.1748 
  46   0.0000       0.631162        17.1748 
  47   0.0000       0.644270        17.5315 
  48   0.0000       0.644270        17.5315 
  49   0.0000       0.714085        19.4312 
  50   0.0000       0.714085        19.4312 
  51   0.0000       0.754045        20.5186 
  52   0.0000       0.818998        22.2861 
  53   0.0000       0.820585        22.3293 
  54   0.0000       0.820585        22.3293 
  55   0.0000       0.849561        23.1177 
  56   0.0000       0.849562        23.1178 
  57   0.0000       0.912086        24.8191 
  58   0.0000       0.912088        24.8192 
  59   0.0000       0.941992        25.6329 
  60   0.0000       0.941992        25.6329 
  61   0.0000       1.033004        28.1095 
  62   0.0000       1.211968        32.9793 
  63   0.0000       1.384284        37.6683 
  64   0.0000       1.384284        37.6683 
  65   0.0000       1.819882        49.5215 
  66   0.0000       2.088282        56.8250 
  67   0.0000       2.088282        56.8250 
  68   0.0000       2.120470        57.7009 
  69   0.0000       2.120475        57.7011 
  70   0.0000       2.146426        58.4072 
  71   0.0000       2.146426        58.4072 
  72   0.0000       2.290524        62.3283 
  73   0.0000       2.493904        67.8626 
  74   0.0000       2.568462        69.8914 
  75   0.0000       2.568462        69.8914 
  76   0.0000       2.583461        70.2996 
  77   0.0000       2.583551        70.3020 
  78   0.0000       2.594749        70.6067 
  79   0.0000       2.594749        70.6067 
  80   0.0000       2.642304        71.9007 
  81   0.0000       2.661474        72.4224 
  82   0.0000       2.661483        72.4226 
  83   0.0000       2.802289        76.2542 
  84   0.0000       2.802289        76.2542 
  85   0.0000       2.877747        78.3075 
  86   0.0000       3.185824        86.6907 
  87   0.0000       3.734810       101.6294 
  88   0.0000       3.734818       101.6296 
  89   0.0000       3.780093       102.8616 
  90   0.0000       3.780185       102.8641 
  91   0.0000       3.875679       105.4626 
  92   0.0000       3.875679       105.4626 
  93   0.0000       4.070469       110.7631 
  94   0.0000       4.070469       110.7631 
  95   0.0000       4.265912       116.0814 
  96   0.0000       4.265912       116.0814 
  97   0.0000       4.325163       117.6937 
  98   0.0000       4.593942       125.0075 
  99   0.0000       5.227397       142.2447 
 100   0.0000       7.284503       198.2214 
 101   0.0000       7.284503       198.2214 
 102   0.0000       7.300679       198.6616 
 103   0.0000       7.300712       198.6625 
 104   0.0000       7.353170       200.0899 
 105   0.0000       7.353170       200.0899 
 106   0.0000       7.674480       208.8332 
 107   0.0000       7.851197       213.6419 
 108   0.0000       7.851220       213.6426 
 109   0.0000       7.858243       213.8337 
 110   0.0000       7.858243       213.8337 
 111   0.0000       7.899139       214.9465 
 112   0.0000       7.899151       214.9468 
 113   0.0000       8.075233       219.7383 
 114   0.0000       8.075233       219.7383 
 115   0.0000       8.358098       227.4354 

                 SPIN DOWN ORBITALS
  NO   OCC          E(Eh)            E(eV) 
   0   1.0000    -235.297658     -6402.7748 
   1   1.0000     -27.166765      -739.2452 
   2   1.0000     -23.227209      -632.0445 
   3   1.0000     -23.227209      -632.0445 
   4   1.0000     -23.225198      -631.9898 
   5   1.0000      -3.061117       -83.2972 
   6   1.0000      -1.920472       -52.2587 
   7   1.0000      -1.920472       -52.2587 
   8   1.0000      -1.910195       -51.9791 
   9   1.0000      -0.270906        -7.3717 
  10   0.0000      -0.115473        -3.1422 
  11   0.0000      -0.100109        -2.7241 
  12   0.0000      -0.100107        -2.7241 
  13   0.0000      -0.091920        -2.5013 
  14   0.0000      -0.091920        -2.5013 
  15   0.0000      -0.067162        -1.8276 
  16   0.0000      -0.019241        -0.5236 
  17   0.0000      -0.019241        -0.5236 
  18   0.0000       0.013702         0.3728 
  19   0.0000       0.028112         0.7650 
  20   0.0000       0.038537         1.0486 
  21   0.0000       0.038537         1.0486 
  22   0.0000       0.057454         1.5634 
  23   0.0000       0.065307         1.7771 
  24   0.0000       0.065307         1.7771 
  25   0.0000       0.067207         1.8288 
  26   0.0000       0.067210         1.8289 
  27   0.0000       0.076891         2.0923 
  28   0.0000       0.124675         3.3926 
  29   0.0000       0.158226         4.3055 
  30   0.0000       0.181907         4.9499 
  31   0.0000       0.181907         4.9499 
  32   0.0000       0.198126         5.3913 
  33   0.0000       0.227411         6.1882 
  34   0.0000       0.227411         6.1882 
  35   0.0000       0.250209         6.8085 
  36   0.0000       0.250210         6.8086 
  37   0.0000       0.274794         7.4775 
  38   0.0000       0.274794         7.4775 
  39   0.0000       0.287970         7.8361 
  40   0.0000       0.434566        11.8251 
  41   0.0000       0.487244        13.2586 
  42   0.0000       0.621699        16.9173 
  43   0.0000       0.621701        16.9173 
  44   0.0000       0.634406        17.2631 
  45   0.0000       0.676378        18.4052 
  46   0.0000       0.676378        18.4052 
  47   0.0000       0.704374        19.1670 
  48   0.0000       0.704374        19.1670 
  49   0.0000       0.744691        20.2641 
  50   0.0000       0.744691        20.2641 
  51   0.0000       0.787227        21.4215 
  52   0.0000       0.872775        23.7494 
  53   0.0000       0.886661        24.1273 
  54   0.0000       0.886663        24.1273 
  55   0.0000       0.890057        24.2197 
  56   0.0000       0.890057        24.2197 
  57   0.0000       0.960493        26.1363 
  58   0.0000       0.960493        26.1363 
  59   0.0000       0.987564        26.8730 
  60   0.0000       0.987566        26.8730 
  61   0.0000       1.072245        29.1773 
  62   0.0000       1.257156        34.2089 
  63   0.0000       1.433649        39.0116 
  64   0.0000       1.433649        39.0116 
  65   0.0000       1.868392        50.8415 
  66   0.0000       2.209082        60.1122 
  67   0.0000       2.209082        60.1122 
  68   0.0000       2.239353        60.9359 
  69   0.0000       2.239358        60.9360 
  70   0.0000       2.254018        61.3350 
  71   0.0000       2.254018        61.3350 
  72   0.0000       2.386036        64.9274 
  73   0.0000       2.623158        71.3798 
  74   0.0000       2.662007        72.4369 
  75   0.0000       2.662044        72.4379 
  76   0.0000       2.680166        72.9310 
  77   0.0000       2.680166        72.9310 
  78   0.0000       2.693016        73.2807 
  79   0.0000       2.693016        73.2807 
  80   0.0000       2.740850        74.5823 
  81   0.0000       2.740873        74.5830 
  82   0.0000       2.745866        74.7188 
  83   0.0000       2.881355        78.4056 
  84   0.0000       2.881355        78.4056 
  85   0.0000       2.951895        80.3252 
  86   0.0000       3.269580        88.9698 
  87   0.0000       3.798597       103.3651 
  88   0.0000       3.798693       103.3677 
  89   0.0000       3.898306       106.0783 
  90   0.0000       3.898310       106.0784 
  91   0.0000       3.997904       108.7885 
  92   0.0000       3.997904       108.7885 
  93   0.0000       4.183759       113.8459 
  94   0.0000       4.183759       113.8459 
  95   0.0000       4.312248       117.3422 
  96   0.0000       4.312248       117.3422 
  97   0.0000       4.448088       121.0386 
  98   0.0000       4.707859       128.1074 
  99   0.0000       5.310754       144.5130 
 100   0.0000       7.506708       204.2679 
 101   0.0000       7.506708       204.2679 
 102   0.0000       7.530757       204.9223 
 103   0.0000       7.530784       204.9231 
 104   0.0000       7.577543       206.1954 
 105   0.0000       7.577543       206.1954 
 106   0.0000       7.872802       214.2298 
 107   0.0000       7.998582       217.6525 
 108   0.0000       7.998589       217.6527 
 109   0.0000       8.009650       217.9536 
 110   0.0000       8.009650       217.9536 
 111   0.0000       8.047820       218.9923 
 112   0.0000       8.047822       218.9924 
 113   0.0000       8.220957       223.7036 
 114   0.0000       8.220957       223.7036 
 115   0.0000       8.519495       231.8272 

                    ********************************
                    * MULLIKEN POPULATION ANALYSIS *
                    ********************************

--------------------------------------------
MULLIKEN ATOMIC CHARGES AND SPIN POPULATIONS
--------------------------------------------
   0 Mn:    0.243184    5.912646
   1 H :   -0.243184    0.087354
Sum of atomic charges         :   -0.0000000
Sum of atomic spin populations:    6.0000000

-----------------------------------------------------
MULLIKEN REDUCED ORBITAL CHARGES AND SPIN POPULATIONS
-----------------------------------------------------
CHARGE
  0 Mns       :     7.070295  s :     7.070295
      pz      :     4.542621  p :    12.543633
      px      :     4.000506
      py      :     4.000506
      dz2     :     1.139340  d :     5.137059
      dxz     :     0.998970
      dyz     :     0.998970
      dx2y2   :     0.999889
      dxy     :     0.999890
      f0      :     0.005506  f :     0.005565
      f+1     :     0.000009
      f-1     :     0.000009
      f+2     :     0.000021
      f-2     :     0.000021
      f+3     :     0.000000
      f-3     :     0.000000
      g0      :     0.000250  g :     0.000264
      g+1     :     0.000004
      g-1     :     0.000004
      g+2     :     0.000004
      g-2     :     0.000004
      g+3     :     0.000000
      g-3     :     0.000000
      g+4     :     0.000000
      g-4     :     0.000000
  1 H s       :     1.224826  s :     1.224826
      pz      :     0.016479  p :     0.018191
      px      :     0.000856
      py      :     0.000856
      dz2     :     0.000685  d :     0.000167
      dxz     :    -0.000345
      dyz     :    -0.000345
      dx2y2   :     0.000086
      dxy     :     0.000086

SPIN
  0 Mns       :     0.659575  s :     0.659575
      pz      :     0.420947  p :     0.421495
      px      :     0.000274
      py      :     0.000274
      dz2     :     0.835129  d :     4.832844
      dxz     :     0.998968
      dyz     :     0.998968
      dx2y2   :     0.999889
      dxy     :     0.999890
      f0      :    -0.001235  f :    -0.001190
      f+1     :     0.000002
      f-1     :     0.000002
      f+2     :     0.000021
      f-2     :     0.000021
      f+3     :     0.000000
      f-3     :     0.000000
      g0      :    -0.000091  g :    -0.000077
      g+1     :     0.000003
      g-1     :     0.000003
      g+2     :     0.000004
      g-2     :     0.000004
      g+3     :     0.000000
      g-3     :     0.000000
      g+4     :     0.000000
      g-4     :     0.000000
  1 H s       :     0.075484  s :     0.075484
      pz      :     0.009917  p :     0.011715
      px      :     0.000899
      py      :     0.000899
      dz2     :     0.000275  d :     0.000155
      dxz     :    -0.000146
      dyz     :    -0.000146
      dx2y2   :     0.000086
      dxy     :     0.000086


                     *******************************
                     * LOEWDIN POPULATION ANALYSIS *
                     *******************************

-------------------------------------------
LOEWDIN ATOMIC CHARGES AND SPIN POPULATIONS
-------------------------------------------
   0 Mn:    0.570181    5.779858
   1 H :   -0.570181    0.220142

----------------------------------------------------
LOEWDIN REDUCED ORBITAL CHARGES AND SPIN POPULATIONS
----------------------------------------------------
CHARGE
  0 Mns       :     6.783012  s :     6.783012
      pz      :     4.611696  p :    12.548791
      px      :     3.968547
      py      :     3.968547
      dz2     :     1.148486  d :     5.070006
      dxz     :     0.963898
      dyz     :     0.963898
      dx2y2   :     0.996862
      dxy     :     0.996862
      f0      :     0.023421  f :     0.026153
      f+1     :     0.001251
      f-1     :     0.001251
      f+2     :     0.000115
      f-2     :     0.000115
      f+3     :     0.000000
      f-3     :     0.000000
      g0      :     0.001537  g :     0.001858
      g+1     :     0.000146
      g-1     :     0.000146
      g+2     :     0.000014
      g-2     :     0.000014
      g+3     :     0.000000
      g-3     :     0.000000
      g+4     :     0.000000
      g-4     :     0.000000
  1 H s       :     1.114401  s :     1.114401
      pz      :     0.203998  p :     0.252854
      px      :     0.024428
      py      :     0.024428
      dz2     :     0.113450  d :     0.202926
      dxz     :     0.041729
      dyz     :     0.041729
      dx2y2   :     0.003009
      dxy     :     0.003009

SPIN
  0 Mns       :     0.532231  s :     0.532231
      pz      :     0.502349  p :     0.507784
      px      :     0.002717
      py      :     0.002717
      dz2     :     0.815194  d :     4.733883
      dxz     :     0.962483
      dyz     :     0.962483
      dx2y2   :     0.996862
      dxy     :     0.996862
      f0      :     0.003435  f :     0.005274
      f+1     :     0.000805
      f-1     :     0.000805
      f+2     :     0.000115
      f-2     :     0.000115
      f+3     :     0.000000
      f-3     :     0.000000
      g0      :     0.000402  g :     0.000687
      g+1     :     0.000128
      g-1     :     0.000128
      g+2     :     0.000014
      g-2     :     0.000014
      g+3     :     0.000000
      g-3     :     0.000000
      g+4     :     0.000000
      g-4     :     0.000000
  1 H s       :     0.085918  s :     0.085918
      pz      :     0.057274  p :     0.085284
      px      :     0.014005
      py      :     0.014005
      dz2     :     0.003198  d :     0.048939
      dxz     :     0.019862
      dyz     :     0.019862
      dx2y2   :     0.003009
      dxy     :     0.003009


                      *****************************
                      * MAYER POPULATION ANALYSIS *
                      *****************************

  NA   - Mulliken gross atomic population
  ZA   - Total nuclear charge
  QA   - Mulliken gross atomic charge
  VA   - Mayer's total valence
  BVA  - Mayer's bonded valence
  FA   - Mayer's free valence

  ATOM       NA         ZA         QA         VA         BVA        FA
  0 Mn    24.7568    25.0000     0.2432     6.7133     0.9536     5.7597
  1 H      1.2432     1.0000    -0.2432     0.9702     0.9536     0.0166

  Mayer bond orders larger than 0.100000
B(  0-Mn,  1-H ) :   0.9536 

-------
TIMINGS
-------

Total SCF time: 0 days 0 hours 1 min 23 sec 

Total time                  ....      83.154 sec
Sum of individual times     ....      82.803 sec  ( 99.6%)

Fock matrix formation       ....      82.515 sec  ( 99.2%)
  XC integration            ....       0.707 sec  (  0.9% of F)
    Basis function eval.    ....       0.054 sec  (  7.6% of XC)
    Density eval.           ....       0.051 sec  (  7.2% of XC)
    XC-Functional eval.     ....       0.016 sec  (  2.2% of XC)
    XC-Potential eval.      ....       0.141 sec  ( 19.9% of XC)
Diagonalization             ....       0.045 sec  (  0.1%)
Density matrix formation    ....       0.008 sec  (  0.0%)
Population analysis         ....       0.005 sec  (  0.0%)
Initial guess               ....       0.089 sec  (  0.1%)
Orbital Transformation      ....       0.000 sec  (  0.0%)
Orbital Orthonormalization  ....       0.000 sec  (  0.0%)
DIIS solution               ....       0.017 sec  (  0.0%)
Grid generation             ....       0.123 sec  (  0.1%)


-------------------------------------------------------------------------------
                          DFT DISPERSION CORRECTION                            
                                                                               
                              DFTD3 V3.1  Rev 1                                
                          USING Becke-Johnson damping                          
-------------------------------------------------------------------------------
The TPSSH functional is recognized
Active option DFTDOPT                   ...         4   

molecular C6(AA) [au] = 642.224730 


            DFT-D V3
 parameters
 s6 scaling factor         :     1.0000 
 a1 scaling factor         :     0.4529 
 s8 scaling factor         :     2.2382 
 a2 scaling factor         :     4.6550 
 ad hoc parameters k1-k3   :    16.0000     1.3333    -4.0000 

 Edisp/kcal,au: -0.388511695243  -0.000619132730 
 E6   /kcal   :  -0.157673029 
 E8   /kcal   :  -0.230838666 
 % E8         :  59.416143477 

-------------------------   ----------------
Dispersion correction           -0.000619133
-------------------------   ----------------


-------------------------   --------------------
FINAL SINGLE POINT ENERGY     -1151.585855206338
-------------------------   --------------------


                            ***************************************
                            *     ORCA property calculations      *
                            ***************************************

                                    ---------------------
                                    Active property flags
                                    ---------------------
   (+) Dipole Moment


------------------------------------------------------------------------------
                       ORCA ELECTRIC PROPERTIES CALCULATION
------------------------------------------------------------------------------

Dipole Moment Calculation                       ... on
Quadrupole Moment Calculation                   ... off
Polarizability Calculation                      ... off
GBWName                                         ... 25_MnH.gbw
Electron density file                           ... 25_MnH.scfp
The origin for moment calculation is the CENTER OF MASS  = ( 0.000000,  0.000000  0.321728)

-------------
DIPOLE MOMENT
-------------
                                X             Y             Z
Electronic contribution:      0.00000      -0.00000      -2.12258
Nuclear contribution   :      0.00000       0.00000       1.72930
                        -----------------------------------------
Total Dipole Moment    :      0.00000      -0.00000      -0.39328
                        -----------------------------------------
Magnitude (a.u.)       :      0.39328
Magnitude (Debye)      :      0.99963



--------------------
Rotational spectrum 
--------------------
 
Rotational constants in cm-1:     0.000000     5.746491     5.746491 
Rotational constants in MHz :     0.000000 172275.461427 172275.461427 

 Dipole components along the rotational axes: 
x,y,z [a.u.] :    -0.393278    -0.000000     0.000000 
x,y,z [Debye]:    -0.999634    -0.000000     0.000000 

 

Timings for individual modules:

Sum of individual times         ...       86.680 sec (=   1.445 min)
GTO integral calculation        ...        3.066 sec (=   0.051 min)   3.5 %
SCF iterations                  ...       83.613 sec (=   1.394 min)  96.5 %
                             ****ORCA TERMINATED NORMALLY****
TOTAL RUN TIME: 0 days 0 hours 1 minutes 27 seconds 318 msec
