
                                 *****************
                                 * O   R   C   A *
                                 *****************

           --- An Ab Initio, DFT and Semiempirical electronic structure package ---

                  #######################################################
                  #                        -***-                        #
                  #          Department of theory and spectroscopy      #
                  #               Directorship: Frank Neese             #
                  #        Max Planck Institute fuer Kohlenforschung    #
                  #                Kaiser Wilhelm Platz 1               #
                  #                 D-45470 Muelheim/Ruhr               #
                  #                      Germany                        #
                  #                                                     #
                  #                  All rights reserved                #
                  #                        -***-                        #
                  #######################################################


                         Program Version 4.2.0 -  RELEASE  -


 With contributions from (in alphabetic order):
   Daniel Aravena         : Magnetic Suceptibility
   Michael Atanasov       : Ab Initio Ligand Field Theory (pilot matlab implementation)
   Alexander A. Auer      : GIAO ZORA, VPT2
   Ute Becker             : Parallelization
   Giovanni Bistoni       : ED, misc. LED, open-shell LED, HFLED
   Martin Brehm           : Molecular dynamics
   Dmytro Bykov           : SCF Hessian
   Vijay G. Chilkuri      : MRCI spin determinant printing, contributions to CSF-ICE
   Dipayan Datta          : RHF DLPNO-CCSD density
   Achintya Kumar Dutta   : EOM-CC, STEOM-CC
   Dmitry Ganyushin       : Spin-Orbit,Spin-Spin,Magnetic field MRCI
   Miquel Garcia          : C-PCM Hessian, Gaussian charge scheme
   Yang Guo               : DLPNO-NEVPT2, CIM, IAO-localization
   Andreas Hansen         : Spin unrestricted coupled pair/coupled cluster methods
   Benjamin Helmich-Paris : CASSCF linear response (MC-RPA)
   Lee Huntington         : MR-EOM, pCC
   Robert Izsak           : Overlap fitted RIJCOSX, COSX-SCS-MP3, EOM
   Christian Kollmar      : KDIIS, OOCD, Brueckner-CCSD(T), CCSD density
   Simone Kossmann        : Meta GGA functionals, TD-DFT gradient, OOMP2, MP2 Hessian
   Martin Krupicka        : AUTO-CI
   Lucas Lang             : DCDCAS
   Dagmar Lenk            : GEPOL surface, SMD
   Dimitrios Liakos       : Extrapolation schemes; Compound Job, initial MDCI parallelization
   Dimitrios Manganas     : Further ROCIS development; embedding schemes
   Dimitrios Pantazis     : SARC Basis sets
   Taras Petrenko         : DFT Hessian,TD-DFT gradient, ASA, ECA, R-Raman, ABS, FL, XAS/XES, NRVS
   Peter Pinski           : DLPNO-MP2, DLPNO-MP2 Gradient
   Christoph Reimann      : Effective Core Potentials
   Marius Retegan         : Local ZFS, SOC
   Christoph Riplinger    : Optimizer, TS searches, QM/MM, DLPNO-CCSD(T), (RO)-DLPNO pert. Triples
   Tobias Risthaus        : Range-separated hybrids, TD-DFT gradient, RPA, STAB
   Michael Roemelt        : Original ROCIS implementation
   Masaaki Saitow         : Open-shell DLPNO-CCSD energy and density
   Barbara Sandhoefer     : DKH picture change effects
   Avijit Sen             : IP-ROCIS
   Kantharuban Sivalingam : CASSCF convergence, NEVPT2, FIC-MRCI
   Bernardo de Souza      : ESD, SOC TD-DFT
   Georgi Stoychev        : AutoAux, RI-MP2 NMR
   Willem Van den Heuvel  : Paramagnetic NMR
   Boris Wezisla          : Elementary symmetry handling
   Frank Wennmohs         : Technical directorship


 We gratefully acknowledge several colleagues who have allowed us to
 interface, adapt or use parts of their codes:
   Stefan Grimme, W. Hujo, H. Kruse,             : VdW corrections, initial TS optimization,
                  C. Bannwarth                     DFT functionals, gCP, sTDA/sTD-DF
   Ed Valeev, F. Pavosevic, A. Kumar             : LibInt (2-el integral package), F12 methods
   Garnet Chan, S. Sharma, J. Yang, R. Olivares  : DMRG
   Ulf Ekstrom                                   : XCFun DFT Library
   Mihaly Kallay                                 : mrcc  (arbitrary order and MRCC methods)
   Andreas Klamt, Michael Diedenhofen            : otool_cosmo (COSMO solvation model)
   Jiri Pittner, Ondrej Demel                    : Mk-CCSD
   Frank Weinhold                                : gennbo (NPA and NBO analysis)
   Christopher J. Cramer and Donald G. Truhlar   : smd solvation model
   Lars Goerigk                                  : TD-DFT with DH, B97 family of functionals
   V. Asgeirsson, H. Jonsson                     : NEB implementation
   FAccTs GmbH                                   : IRC, NEB, NEB-TS, Multilevel, MM, QM/MM, CI optimization
   S Lehtola, MJT Oliveira, MAL Marques          : LibXC Library


 Your calculation uses the libint2 library for the computation of 2-el integrals
 For citations please refer to: http://libint.valeyev.net

 Your ORCA version has been built with support for libXC version: 4.2.3
 For citations please refer to: https://tddft.org/programs/libxc/

 This ORCA versions uses:
   CBLAS   interface :  Fast vector & matrix operations
   LAPACKE interface :  Fast linear algebra routines
   SCALAPACK package :  Parallel linear algebra routines


Your calculation utilizes the atom-pairwise dispersion correction
with the Becke-Johnson damping scheme (D3BJ)
Cite in your paper:
S.Grimme, S.Ehrlich, L.Goerigk, J Comput Chem, (2011), 32, 1456–1465 
S.Grimme, J.Antony, S.Ehrlich and H.Krieg, J.Chem.Phys., 132, (2010), 154104 
   

----- Orbital basis set information -----
Your calculation utilizes the basis: aug-cc-pVTZ 
    H, B-Ne : Obtained from the ccRepo (grant-hill.group.shef.ac.uk/ccrepo) Feb. 2017
              R. A. Kendall, T. H. Dunning, Jr., R. J. Harrison, J. Chem. Phys. 96, 6796 (1992)
         He : Obtained from the ccRepo (grant-hill.group.shef.ac.uk/ccrepo) Feb. 2017
              D. E. Woon, T. H. Dunning, Jr., J. Chem. Phys. 100, 2975 (1994)
  Li-Be, Na : Obtained from the ccRepo (grant-hill.group.shef.ac.uk/ccrepo) Feb. 2017
              B. P. Prascher, D. E. Woon, K. A. Peterson, T. H. Dunning, Jr., A. K. Wilson, Theor. Chem. Acc. 128, 69 (2011)
         Mg : Obtained from the Peterson Research Group Website (tyr0.chem.wsu.edu/~kipeters) Feb. 2017
              B. P. Prascher, D. E. Woon, K. A. Peterson, T. H. Dunning, Jr., A. K. Wilson, Theor. Chem. Acc. 128, 69 (2011)
      Al-Ar : Obtained from the ccRepo (grant-hill.group.shef.ac.uk/ccrepo) Feb. 2017
              D. E. Woon, T. H. Dunning, Jr., J. Chem. Phys. 98, 1358 (1993)
      Sc-Zn : Obtained from the ccRepo (grant-hill.group.shef.ac.uk/ccrepo) Feb. 2017
              N. B. Balabanov, K. A. Peterson, J. Chem. Phys. 123, 064107 (2005)
              N. B. Balabanov, K. A. Peterson, J. Chem. Phys. 125, 074110 (2006)
      Ga-Kr : Obtained from the ccRepo (grant-hill.group.shef.ac.uk/ccrepo) Feb. 2017
              A. K. Wilson, D. E. Woon, K. A. Peterson, T. H. Dunning, Jr., J. Chem. Phys. 110, 7667 (1999)
     Ag, Au : Obtained from the Peterson Research Group Website (tyr0.chem.wsu.edu/~kipeters) Feb. 2017
              K. A. Peterson, C. Puzzarini, Theor. Chem. Acc. 114, 283 (2005)

----- AuxJK basis set information -----
Your calculation utilizes the auxiliary basis: def2/JK
   H-Ba, Hf-Rn: F. Weigend, J. Comput. Chem. 29, 167 (2008).

================================================================================
                                        WARNINGS
                       Please study these warnings very carefully!
================================================================================


WARNING: your system is open-shell and RHF/RKS was chosen
  ===> : WILL SWITCH to UHF/UKS


INFO   : the flag for use of LIBINT has been found!

================================================================================
                                       INPUT FILE
================================================================================
NAME = 26_MnF.in
|  1> #
|  2> # 26_MnF tpssh/aug-cc-pvtz
|  3> #
|  4> ! tpssh d3bj aug-cc-pvtz def2/jk grid4 nofinalgrid
|  5> 
|  6> *xyz 0 7
|  7>   Mn  0.00000000000000      0.00000000000000      0.08590077209256
|  8>   F   0.00000000000000      0.00000000000000      1.91409922790744
|  9> *
| 10> 
| 11> %pal
| 12> nprocs 24
| 13> end
| 14> 
| 15> 
| 16>                          ****END OF INPUT****
================================================================================

                       ****************************
                       * Single Point Calculation *
                       ****************************

---------------------------------
CARTESIAN COORDINATES (ANGSTROEM)
---------------------------------
  Mn     0.000000    0.000000    0.085901
  F      0.000000    0.000000    1.914099

----------------------------
CARTESIAN COORDINATES (A.U.)
----------------------------
  NO LB      ZA    FRAG     MASS         X           Y           Z
   0 Mn   25.0000    0    54.940    0.000000    0.000000    0.162329
   1 F     9.0000    0    18.998    0.000000    0.000000    3.617123

--------------------------------
INTERNAL COORDINATES (ANGSTROEM)
--------------------------------
 Mn     0   0   0     0.000000000000     0.00000000     0.00000000
 F      1   0   0     1.828198455815     0.00000000     0.00000000

---------------------------
INTERNAL COORDINATES (A.U.)
---------------------------
 Mn     0   0   0     0.000000000000     0.00000000     0.00000000
 F      1   0   0     3.454794399948     0.00000000     0.00000000

---------------------
BASIS SET INFORMATION
---------------------
There are 2 groups of distinct atoms

 Group   1 Type Mn  : 116s77p23d3f2g contracted to 8s7p5d3f2g pattern {19191919191911/151515151511/77711/111/11}
 Group   2 Type F   : 19s6p3d2f contracted to 5s4p3d2f pattern {88111/3111/111/11}

Atom   0Mn   basis set group =>   1
Atom   1F    basis set group =>   2
----------------------------------
AUXILIARY/JK BASIS SET INFORMATION
----------------------------------
There are 2 groups of distinct atoms

 Group   1 Type Mn  : 19s14p12d10f7g3h1i contracted to 16s13p11d9f5g3h1i pattern {4111111111111111/2111111111111/21111111111/211111111/31111/111/1}
 Group   2 Type F   : 14s10p6d2f1g contracted to 10s8p4d2f1g pattern {5111111111/31111111/3111/11/1}

Atom   0Mn   basis set group =>   1
Atom   1F    basis set group =>   2


           ************************************************************
           *        Program running with 24 parallel MPI-processes    *
           *              working on a common directory               *
           ************************************************************
------------------------------------------------------------------------------
                           ORCA GTO INTEGRAL CALCULATION
------------------------------------------------------------------------------

                         BASIS SET STATISTICS AND STARTUP INFO

 # of primitive gaussian shells          ...  251
 # of primitive gaussian functions       ...  567
 # of contracted shells                  ...   39
 # of contracted basis functions         ...  139
 Highest angular momentum                ...    4
 Maximum contraction depth               ...   19
 Integral package used                   ... LIBINT
 Integral threshhold            Thresh   ...  1.000e-10
 Primitive cut-off              TCut     ...  1.000e-11


------------------------------ INTEGRAL EVALUATION ----------------------------


 * One electron integrals 
 Pre-screening matrix                    ... done
 Shell pair data                         ... done (   0.001 sec)



           ************************************************************
           *        Program running with 24 parallel MPI-processes    *
           *              working on a common directory               *
           ************************************************************
-------------------------------------------------------------------------------
                                 ORCA SCF
-------------------------------------------------------------------------------

------------
SCF SETTINGS
------------
Hamiltonian:
 Density Functional     Method          .... DFT(GTOs)
 Exchange Functional    Exchange        .... TPSS
 Correlation Functional Correlation     .... TPSS
 LDA part of GGA corr.  LDAOpt          .... PW91-LDA
 Gradients option       PostSCFGGA      .... off
 Hybrid DFT is turned on
   Fraction HF Exchange ScalHFX         ....  0.100000
   Scaling of DF-GGA-X  ScalDFX         ....  0.900000
   Scaling of DF-GGA-C  ScalDFC         ....  1.000000
   Scaling of DF-LDA-C  ScalLDAC        ....  1.000000
   Perturbative correction              ....  0.000000
   Density functional embedding theory  .... OFF
   NL short-range parameter             ....  5.200000


General Settings:
 Integral files         IntName         .... 26_MnF
 Hartree-Fock type      HFTyp           .... UHF
 Total Charge           Charge          ....    0
 Multiplicity           Mult            ....    7
 Number of Electrons    NEL             ....   34
 Basis Dimension        Dim             ....  139
 Nuclear Repulsion      ENuc            ....     65.1268856993 Eh

Convergence Acceleration:
 DIIS                   CNVDIIS         .... on
   Start iteration      DIISMaxIt       ....    12
   Startup error        DIISStart       ....  0.200000
   # of expansion vecs  DIISMaxEq       ....     5
   Bias factor          DIISBfac        ....   1.050
   Max. coefficient     DIISMaxC        ....  10.000
 Newton-Raphson         CNVNR           .... off
 SOSCF                  CNVSOSCF        .... off
 Level Shifting         CNVShift        .... on
   Level shift para.    LevelShift      ....    0.2500
   Turn off err/grad.   ShiftErr        ....    0.0010
 Zerner damping         CNVZerner       .... off
 Static damping         CNVDamp         .... on
   Fraction old density DampFac         ....    0.7000
   Max. Damping (<1)    DampMax         ....    0.9800
   Min. Damping (>=0)   DampMin         ....    0.0000
   Turn off err/grad.   DampErr         ....    0.1000
 Fernandez-Rico         CNVRico         .... off

SCF Procedure:
 Maximum # iterations   MaxIter         ....   125
 SCF integral mode      SCFMode         .... Direct
   Integral package                     .... LIBINT
 Reset frequency        DirectResetFreq ....    20
 Integral Threshold     Thresh          ....  1.000e-10 Eh
 Primitive CutOff       TCut            ....  1.000e-11 Eh

Convergence Tolerance:
 Convergence Check Mode ConvCheckMode   .... Total+1el-Energy
 Convergence forced     ConvForced      .... 0
 Energy Change          TolE            ....  1.000e-06 Eh
 1-El. energy change                    ....  1.000e-03 Eh
 DIIS Error             TolErr          ....  1.000e-06


Diagonalization of the overlap matrix:
Smallest eigenvalue                        ... 5.155e-05
Time for diagonalization                   ...    0.006 sec
Threshold for overlap eigenvalues          ... 1.000e-08
Number of eigenvalues below threshold      ... 0
Time for construction of square roots      ...    0.002 sec
Total time needed                          ...    0.008 sec

-------------------
DFT GRID GENERATION
-------------------

General Integration Accuracy     IntAcc      ...  4.670
Radial Grid Type                 RadialGrid  ... Gauss-Chebyshev
Angular Grid (max. acc.)         AngularGrid ... Lebedev-302
Angular grid pruning method      GridPruning ... 3 (G Style)
Weight generation scheme         WeightScheme... Becke
Basis function cutoff            BFCut       ...    1.0000e-10
Integration weight cutoff        WCut        ...    1.0000e-14
Grids for H and He will be reduced by one unit

# of grid points (after initial pruning)     ...  15936 (   0.0 sec)
# of grid points (after weights+screening)   ...  15888 (   0.0 sec)
nearest neighbour list constructed           ...    0.0 sec
Grid point re-assignment to atoms done       ...    0.0 sec
Grid point division into batches done        ...    0.1 sec
Reduced shell lists constructed in    0.1 sec

Total number of grid points                  ...    15888
Total number of batches                      ...      250
Average number of points per batch           ...       63
Average number of grid points per atom       ...     7944
Average number of shells per batch           ...    15.17 (38.89%)
Average number of basis functions per batch  ...    36.00 (25.90%)
Average number of large shells per batch     ...     9.58 (63.19%)
Average number of large basis fcns per batch ...    23.25 (64.58%)
Maximum spatial batch extension              ...  28.57, 31.41, 18.58 au
Average spatial batch extension              ...   0.88,  0.94,  0.67 au

Time for grid setup =    0.151 sec

------------------------------
INITIAL GUESS: MODEL POTENTIAL
------------------------------
Loading Hartree-Fock densities                     ... done
Calculating cut-offs                               ... done
Setting up the integral package                    ... done
Initializing the effective Hamiltonian             ... done
Starting the Coulomb interaction                   ... done (   0.0 sec)
Reading the grid                                   ... done
Mapping shells                                     ... done
Starting the XC term evaluation                    ... done (   0.0 sec)
  promolecular density results
     # of electrons  =     34.000001172
     EX              =    -60.549211977
     EC              =     -1.383177405
     EX+EC           =    -61.932389382
Transforming the Hamiltonian                       ... done (   0.0 sec)
Diagonalizing the Hamiltonian                      ... done (   0.0 sec)
Back transforming the eigenvectors                 ... done (   0.0 sec)
Now organizing SCF variables                       ... done
                      ------------------
                      INITIAL GUESS DONE (   0.2 sec)
                      ------------------
--------------
SCF ITERATIONS
--------------
ITER       Energy         Delta-E        Max-DP      RMS-DP      [F,P]     Damp
               ***  Starting incremental Fock matrix formation  ***
  0  -1250.8514284788   0.000000000000 0.04760898  0.00126931  0.2982904 0.7000
  1  -1250.8988600690  -0.047431590142 0.03328501  0.00070977  0.0477324 0.7000
                               ***Turning on DIIS***
  2  -1250.9075248756  -0.008664806641 0.10754708  0.00210827  0.0347150 0.0000
  3  -1250.9482999792  -0.040775103597 0.03927583  0.00077312  0.0309629 0.0000
  4  -1250.9503705301  -0.002070550937 0.01289807  0.00027564  0.0213707 0.0000
  5  -1250.9509139886  -0.000543458503 0.00843280  0.00018569  0.0072888 0.0000
  6  -1250.9511491213  -0.000235132689 0.00558435  0.00011350  0.0032321 0.0000
  7  -1250.9511978669  -0.000048745542 0.00587801  0.00005639  0.0006853 0.0000
  8  -1250.9512104785  -0.000012611669 0.00047573  0.00000977  0.0011084 0.0000
  9  -1250.9512120945  -0.000001616000 0.00038943  0.00000436  0.0002450 0.0000
                 **** Energy Check signals convergence ****

               *****************************************************
               *                     SUCCESS                       *
               *           SCF CONVERGED AFTER  10 CYCLES          *
               *****************************************************


----------------
TOTAL SCF ENERGY
----------------

Total Energy       :        -1250.95121222 Eh          -34040.11305 eV

Components:
Nuclear Repulsion  :           65.12688570 Eh            1772.19266 eV
Electronic Energy  :        -1316.07809792 Eh          -35812.30571 eV
One Electron Energy:        -1855.57719204 Eh          -50492.82240 eV
Two Electron Energy:          539.49909413 Eh           14680.51669 eV

Virial components:
Potential Energy   :        -2499.95770293 Eh          -68027.30754 eV
Kinetic Energy     :         1249.00649071 Eh           33987.19449 eV
Virial Ratio       :            2.00155701


DFT components:
N(Alpha)           :       20.000014887141 electrons
N(Beta)            :       14.000014773310 electrons
N(Total)           :       34.000029660451 electrons
E(X)               :      -55.169707383626 Eh       
E(C)               :       -1.363938505404 Eh       
E(XC)              :      -56.533645889030 Eh       
DFET-embed. en.    :        0.000000000000 Eh       

---------------
SCF CONVERGENCE
---------------

  Last Energy change         ...   -1.2311e-07  Tolerance :   1.0000e-06
  Last MAX-Density change    ...    8.9472e-05  Tolerance :   1.0000e-05
  Last RMS-Density change    ...    1.2600e-06  Tolerance :   1.0000e-06
  Last DIIS Error            ...    2.0268e-04  Tolerance :   1.0000e-06

             **** THE GBW FILE WAS UPDATED (26_MnF.gbw) ****
             **** DENSITY FILE WAS UPDATED (26_MnF.scfp) ****
             **** ENERGY FILE WAS UPDATED (26_MnF.en.tmp) ****
----------------------
UHF SPIN CONTAMINATION
----------------------

Warning: in a DFT calculation there is little theoretical justification to 
         calculate <S**2> as in Hartree-Fock theory. We will do it anyways
         but you should keep in mind that the values have only limited relevance

Expectation value of <S**2>     :    12.002926
Ideal value S*(S+1) for S=3.0   :    12.000000
Deviation                       :     0.002926

             **** THE GBW FILE WAS UPDATED (26_MnF.gbw) ****
             **** DENSITY FILE WAS UPDATED (26_MnF.scfp) ****
----------------
ORBITAL ENERGIES
----------------
                 SPIN UP ORBITALS
  NO   OCC          E(Eh)            E(eV) 
   0   1.0000    -235.297461     -6402.7694 
   1   1.0000     -27.240327      -741.2470 
   2   1.0000     -24.531223      -667.5285 
   3   1.0000     -23.289152      -633.7301 
   4   1.0000     -23.289152      -633.7301 
   5   1.0000     -23.284871      -633.6135 
   6   1.0000      -3.269933       -88.9794 
   7   1.0000      -2.138381       -58.1883 
   8   1.0000      -2.138381       -58.1883 
   9   1.0000      -2.128125       -57.9092 
  10   1.0000      -1.072283       -29.1783 
  11   1.0000      -0.409757       -11.1500 
  12   1.0000      -0.377996       -10.2858 
  13   1.0000      -0.377996       -10.2858 
  14   1.0000      -0.348616        -9.4863 
  15   1.0000      -0.348616        -9.4863 
  16   1.0000      -0.299868        -8.1598 
  17   1.0000      -0.299868        -8.1598 
  18   1.0000      -0.292075        -7.9478 
  19   1.0000      -0.189464        -5.1556 
  20   0.0000      -0.046104        -1.2546 
  21   0.0000      -0.046104        -1.2546 
  22   0.0000      -0.001710        -0.0465 
  23   0.0000       0.001825         0.0497 
  24   0.0000       0.025973         0.7068 
  25   0.0000       0.025973         0.7068 
  26   0.0000       0.046954         1.2777 
  27   0.0000       0.047251         1.2858 
  28   0.0000       0.047252         1.2858 
  29   0.0000       0.054139         1.4732 
  30   0.0000       0.054139         1.4732 
  31   0.0000       0.065163         1.7732 
  32   0.0000       0.094405         2.5689 
  33   0.0000       0.147543         4.0148 
  34   0.0000       0.147543         4.0148 
  35   0.0000       0.177797         4.8381 
  36   0.0000       0.211385         5.7521 
  37   0.0000       0.211386         5.7521 
  38   0.0000       0.226341         6.1590 
  39   0.0000       0.230839         6.2815 
  40   0.0000       0.230839         6.2815 
  41   0.0000       0.238260         6.4834 
  42   0.0000       0.238260         6.4834 
  43   0.0000       0.286992         7.8094 
  44   0.0000       0.408898        11.1267 
  45   0.0000       0.511071        13.9070 
  46   0.0000       0.595599        16.2071 
  47   0.0000       0.595606        16.2073 
  48   0.0000       0.626481        17.0474 
  49   0.0000       0.626481        17.0474 
  50   0.0000       0.639759        17.4087 
  51   0.0000       0.639759        17.4087 
  52   0.0000       0.735067        20.0022 
  53   0.0000       0.735067        20.0022 
  54   0.0000       0.738787        20.1034 
  55   0.0000       0.824012        22.4225 
  56   0.0000       0.824012        22.4225 
  57   0.0000       0.854648        23.2562 
  58   0.0000       0.858370        23.3574 
  59   0.0000       0.858372        23.3575 
  60   0.0000       0.916691        24.9444 
  61   0.0000       0.916691        24.9444 
  62   0.0000       0.956083        26.0164 
  63   0.0000       0.998921        27.1820 
  64   0.0000       0.998921        27.1820 
  65   0.0000       1.224833        33.3294 
  66   0.0000       1.346032        36.6274 
  67   0.0000       1.380216        37.5576 
  68   0.0000       1.380216        37.5576 
  69   0.0000       2.032473        55.3064 
  70   0.0000       2.032473        55.3064 
  71   0.0000       2.085303        56.7440 
  72   0.0000       2.085303        56.7440 
  73   0.0000       2.091176        56.9038 
  74   0.0000       2.091184        56.9040 
  75   0.0000       2.115920        57.5771 
  76   0.0000       2.239006        60.9265 
  77   0.0000       2.410767        65.6003 
  78   0.0000       2.410831        65.6021 
  79   0.0000       2.484278        67.6006 
  80   0.0000       2.508940        68.2717 
  81   0.0000       2.508940        68.2717 
  82   0.0000       2.528481        68.8035 
  83   0.0000       2.528481        68.8035 
  84   0.0000       2.579222        70.1842 
  85   0.0000       2.579235        70.1845 
  86   0.0000       2.585825        70.3639 
  87   0.0000       2.585825        70.3639 
  88   0.0000       2.640058        71.8396 
  89   0.0000       2.640068        71.8399 
  90   0.0000       2.722561        74.0847 
  91   0.0000       2.764070        75.2142 
  92   0.0000       2.764070        75.2142 
  93   0.0000       2.830215        77.0141 
  94   0.0000       2.985480        81.2391 
  95   0.0000       2.985480        81.2391 
  96   0.0000       3.171893        86.3116 
  97   0.0000       3.171954        86.3133 
  98   0.0000       3.218580        87.5820 
  99   0.0000       3.667935        99.8096 
 100   0.0000       3.667935        99.8096 
 101   0.0000       3.750578       102.0584 
 102   0.0000       3.750581       102.0585 
 103   0.0000       4.014553       109.2415 
 104   0.0000       4.055437       110.3540 
 105   0.0000       4.055437       110.3540 
 106   0.0000       4.593600       124.9982 
 107   0.0000       4.880778       132.8127 
 108   0.0000       4.880778       132.8127 
 109   0.0000       5.408584       147.1750 
 110   0.0000       7.284696       198.2267 
 111   0.0000       7.284696       198.2267 
 112   0.0000       7.298670       198.6069 
 113   0.0000       7.298674       198.6070 
 114   0.0000       7.380772       200.8410 
 115   0.0000       7.380772       200.8410 
 116   0.0000       7.561814       205.7674 
 117   0.0000       7.850596       213.6256 
 118   0.0000       7.850687       213.6281 
 119   0.0000       7.857049       213.8012 
 120   0.0000       7.857049       213.8012 
 121   0.0000       7.918236       215.4662 
 122   0.0000       7.918266       215.4670 
 123   0.0000       8.127875       221.1707 
 124   0.0000       8.127875       221.1707 
 125   0.0000       8.176749       222.5006 
 126   0.0000       8.416208       229.0167 
 127   0.0000       8.416208       229.0167 
 128   0.0000       8.549882       232.6541 
 129   0.0000       8.550761       232.6780 
 130   0.0000       8.783342       239.0069 
 131   0.0000       8.783663       239.0156 
 132   0.0000       8.831984       240.3305 
 133   0.0000       8.858804       241.0603 
 134   0.0000       8.858804       241.0603 
 135   0.0000       8.945026       243.4065 
 136   0.0000       8.945026       243.4065 
 137   0.0000       9.231846       251.2113 
 138   0.0000      14.078430       383.0936 

                 SPIN DOWN ORBITALS
  NO   OCC          E(Eh)            E(eV) 
   0   1.0000    -235.295257     -6402.7095 
   1   1.0000     -27.162811      -739.1377 
   2   1.0000     -24.525657      -667.3771 
   3   1.0000     -23.223838      -631.9528 
   4   1.0000     -23.223838      -631.9528 
   5   1.0000     -23.220635      -631.8656 
   6   1.0000      -3.059827       -83.2621 
   7   1.0000      -1.919364       -52.2285 
   8   1.0000      -1.919364       -52.2285 
   9   1.0000      -1.911857       -52.0243 
  10   1.0000      -1.059404       -28.8279 
  11   1.0000      -0.367313        -9.9951 
  12   1.0000      -0.336573        -9.1586 
  13   1.0000      -0.336573        -9.1586 
  14   0.0000      -0.112583        -3.0635 
  15   0.0000      -0.099111        -2.6969 
  16   0.0000      -0.099086        -2.6963 
  17   0.0000      -0.080348        -2.1864 
  18   0.0000      -0.080348        -2.1864 
  19   0.0000      -0.055423        -1.5081 
  20   0.0000       0.003002         0.0817 
  21   0.0000       0.003002         0.0817 
  22   0.0000       0.016754         0.4559 
  23   0.0000       0.024645         0.6706 
  24   0.0000       0.046193         1.2570 
  25   0.0000       0.046194         1.2570 
  26   0.0000       0.073474         1.9993 
  27   0.0000       0.074422         2.0251 
  28   0.0000       0.074440         2.0256 
  29   0.0000       0.076446         2.0802 
  30   0.0000       0.076448         2.0803 
  31   0.0000       0.082119         2.2346 
  32   0.0000       0.135889         3.6977 
  33   0.0000       0.190706         5.1894 
  34   0.0000       0.190707         5.1894 
  35   0.0000       0.212998         5.7960 
  36   0.0000       0.239396         6.5143 
  37   0.0000       0.239396         6.5143 
  38   0.0000       0.243845         6.6354 
  39   0.0000       0.259651         7.0655 
  40   0.0000       0.259842         7.0707 
  41   0.0000       0.282535         7.6882 
  42   0.0000       0.282535         7.6882 
  43   0.0000       0.315835         8.5943 
  44   0.0000       0.459402        12.5010 
  45   0.0000       0.557028        15.1575 
  46   0.0000       0.626392        17.0450 
  47   0.0000       0.626708        17.0536 
  48   0.0000       0.678248        18.4561 
  49   0.0000       0.678248        18.4561 
  50   0.0000       0.705330        19.1930 
  51   0.0000       0.705330        19.1930 
  52   0.0000       0.766332        20.8530 
  53   0.0000       0.766332        20.8530 
  54   0.0000       0.801065        21.7981 
  55   0.0000       0.883839        24.0505 
  56   0.0000       0.889560        24.2061 
  57   0.0000       0.889560        24.2061 
  58   0.0000       0.904648        24.6167 
  59   0.0000       0.904827        24.6216 
  60   0.0000       0.986974        26.8569 
  61   0.0000       0.986985        26.8572 
  62   0.0000       0.988507        26.8986 
  63   0.0000       1.015265        27.6268 
  64   0.0000       1.015265        27.6268 
  65   0.0000       1.281645        34.8753 
  66   0.0000       1.353775        36.8381 
  67   0.0000       1.421752        38.6878 
  68   0.0000       1.421752        38.6878 
  69   0.0000       2.107766        57.3552 
  70   0.0000       2.107766        57.3552 
  71   0.0000       2.197981        59.8101 
  72   0.0000       2.198083        59.8129 
  73   0.0000       2.198194        59.8159 
  74   0.0000       2.206950        60.0542 
  75   0.0000       2.206950        60.0542 
  76   0.0000       2.285237        62.1845 
  77   0.0000       2.455201        66.8094 
  78   0.0000       2.455267        66.8112 
  79   0.0000       2.557767        69.6004 
  80   0.0000       2.557767        69.6004 
  81   0.0000       2.591590        70.5207 
  82   0.0000       2.591590        70.5207 
  83   0.0000       2.606014        70.9132 
  84   0.0000       2.652554        72.1797 
  85   0.0000       2.652555        72.1797 
  86   0.0000       2.659805        72.3770 
  87   0.0000       2.659808        72.3771 
  88   0.0000       2.702329        73.5341 
  89   0.0000       2.702329        73.5341 
  90   0.0000       2.780184        75.6527 
  91   0.0000       2.802042        76.2474 
  92   0.0000       2.802042        76.2474 
  93   0.0000       2.902044        78.9686 
  94   0.0000       3.015141        82.0462 
  95   0.0000       3.015141        82.0462 
  96   0.0000       3.213982        87.4569 
  97   0.0000       3.214033        87.4583 
  98   0.0000       3.300987        89.8244 
  99   0.0000       3.745602       101.9230 
 100   0.0000       3.745602       101.9230 
 101   0.0000       3.905239       106.2670 
 102   0.0000       3.905257       106.2674 
 103   0.0000       4.057694       110.4155 
 104   0.0000       4.172751       113.5463 
 105   0.0000       4.172751       113.5463 
 106   0.0000       4.699100       127.8690 
 107   0.0000       4.892080       133.1203 
 108   0.0000       4.892080       133.1203 
 109   0.0000       5.450803       148.3239 
 110   0.0000       7.509208       204.3359 
 111   0.0000       7.509208       204.3359 
 112   0.0000       7.525760       204.7864 
 113   0.0000       7.525774       204.7867 
 114   0.0000       7.594562       206.6585 
 115   0.0000       7.594562       206.6585 
 116   0.0000       7.758120       211.1092 
 117   0.0000       7.999318       217.6725 
 118   0.0000       7.999381       217.6742 
 119   0.0000       8.004673       217.8182 
 120   0.0000       8.004673       217.8182 
 121   0.0000       8.055453       219.2000 
 122   0.0000       8.055501       219.2013 
 123   0.0000       8.263728       224.8675 
 124   0.0000       8.263728       224.8675 
 125   0.0000       8.292231       225.6431 
 126   0.0000       8.427677       229.3288 
 127   0.0000       8.427677       229.3288 
 128   0.0000       8.570182       233.2065 
 129   0.0000       8.570981       233.2282 
 130   0.0000       8.796403       239.3623 
 131   0.0000       8.796742       239.3715 
 132   0.0000       8.864166       241.2062 
 133   0.0000       8.875475       241.5139 
 134   0.0000       8.875475       241.5139 
 135   0.0000       8.970959       244.1122 
 136   0.0000       8.970959       244.1122 
 137   0.0000       9.269247       252.2290 
 138   0.0000      14.095010       383.5447 

                    ********************************
                    * MULLIKEN POPULATION ANALYSIS *
                    ********************************

--------------------------------------------
MULLIKEN ATOMIC CHARGES AND SPIN POPULATIONS
--------------------------------------------
   0 Mn:    0.614646    5.871621
   1 F :   -0.614646    0.128379
Sum of atomic charges         :    0.0000000
Sum of atomic spin populations:    6.0000000

-----------------------------------------------------
MULLIKEN REDUCED ORBITAL CHARGES AND SPIN POPULATIONS
-----------------------------------------------------
CHARGE
  0 Mns       :     6.921136  s :     6.921136
      pz      :     4.222885  p :    12.287333
      px      :     4.032224
      py      :     4.032224
      dz2     :     1.062553  d :     5.156660
      dxz     :     1.047250
      dyz     :     1.047250
      dx2y2   :     0.999804
      dxy     :     0.999803
      f0      :     0.007645  f :     0.016934
      f+1     :     0.004615
      f-1     :     0.004615
      f+2     :     0.000030
      f-2     :     0.000030
      f+3     :     0.000000
      f-3     :     0.000000
      g0      :     0.001684  g :     0.003291
      g+1     :     0.000801
      g-1     :     0.000801
      g+2     :     0.000002
      g-2     :     0.000002
      g+3     :     0.000000
      g-3     :     0.000000
      g+4     :     0.000000
      g-4     :     0.000000
  1 F s       :     3.989554  s :     3.989554
      pz      :     1.791635  p :     5.613175
      px      :     1.910770
      py      :     1.910770
      dz2     :     0.002333  d :     0.010463
      dxz     :     0.003936
      dyz     :     0.003936
      dx2y2   :     0.000129
      dxy     :     0.000129
      f0      :     0.000576  f :     0.001453
      f+1     :     0.000403
      f-1     :     0.000403
      f+2     :     0.000035
      f-2     :     0.000035
      f+3     :     0.000000
      f-3     :     0.000000

SPIN
  0 Mns       :     0.855173  s :     0.855173
      pz      :     0.190618  p :     0.215846
      px      :     0.012614
      py      :     0.012614
      dz2     :     0.896417  d :     4.798837
      dxz     :     0.951406
      dyz     :     0.951406
      dx2y2   :     0.999804
      dxy     :     0.999803
      f0      :     0.000370  f :     0.001848
      f+1     :     0.000709
      f-1     :     0.000709
      f+2     :     0.000030
      f-2     :     0.000030
      f+3     :    -0.000000
      f-3     :    -0.000000
      g0      :    -0.000060  g :    -0.000083
      g+1     :    -0.000014
      g-1     :    -0.000014
      g+2     :     0.000002
      g-2     :     0.000002
      g+3     :     0.000000
      g-3     :     0.000000
      g+4     :    -0.000000
      g-4     :     0.000000
  1 F s       :     0.004178  s :     0.004178
      pz      :     0.053053  p :     0.124866
      px      :     0.035907
      py      :     0.035907
      dz2     :     0.000119  d :    -0.000964
      dxz     :    -0.000670
      dyz     :    -0.000670
      dx2y2   :     0.000129
      dxy     :     0.000129
      f0      :     0.000130  f :     0.000299
      f+1     :     0.000049
      f-1     :     0.000049
      f+2     :     0.000035
      f-2     :     0.000035
      f+3     :     0.000000
      f-3     :     0.000000


                     *******************************
                     * LOEWDIN POPULATION ANALYSIS *
                     *******************************

-------------------------------------------
LOEWDIN ATOMIC CHARGES AND SPIN POPULATIONS
-------------------------------------------
   0 Mn:    0.436234    5.744478
   1 F :   -0.436234    0.255522

----------------------------------------------------
LOEWDIN REDUCED ORBITAL CHARGES AND SPIN POPULATIONS
----------------------------------------------------
CHARGE
  0 Mns       :     6.715530  s :     6.715530
      pz      :     4.309064  p :    12.389035
      px      :     4.039985
      py      :     4.039985
      dz2     :     1.137976  d :     5.240889
      dxz     :     1.053793
      dyz     :     1.053793
      dx2y2   :     0.997664
      dxy     :     0.997663
      f0      :     0.085668  f :     0.193044
      f+1     :     0.053577
      f-1     :     0.053577
      f+2     :     0.000111
      f-2     :     0.000111
      f+3     :     0.000000
      f-3     :     0.000000
      g0      :     0.012681  g :     0.025268
      g+1     :     0.006275
      g-1     :     0.006275
      g+2     :     0.000019
      g-2     :     0.000019
      g+3     :     0.000000
      g-3     :     0.000000
      g+4     :     0.000000
      g-4     :     0.000000
  1 F s       :     3.738409  s :     3.738409
      pz      :     1.892428  p :     5.506153
      px      :     1.806862
      py      :     1.806862
      dz2     :     0.091651  d :     0.159840
      dxz     :     0.032485
      dyz     :     0.032485
      dx2y2   :     0.001609
      dxy     :     0.001609
      f0      :     0.016592  f :     0.031833
      f+1     :     0.007023
      f-1     :     0.007023
      f+2     :     0.000597
      f-2     :     0.000597
      f+3     :     0.000000
      f-3     :     0.000000

SPIN
  0 Mns       :     0.750475  s :     0.750475
      pz      :     0.242752  p :     0.281589
      px      :     0.019419
      py      :     0.019419
      dz2     :     0.868881  d :     4.695334
      dxz     :     0.915563
      dyz     :     0.915563
      dx2y2   :     0.997664
      dxy     :     0.997663
      f0      :     0.003555  f :     0.014394
      f+1     :     0.005308
      f-1     :     0.005308
      f+2     :     0.000111
      f-2     :     0.000111
      f+3     :    -0.000000
      f-3     :    -0.000000
      g0      :     0.001026  g :     0.002686
      g+1     :     0.000811
      g-1     :     0.000811
      g+2     :     0.000019
      g-2     :     0.000019
      g+3     :     0.000000
      g-3     :     0.000000
      g+4     :    -0.000000
      g-4     :     0.000000
  1 F s       :     0.031348  s :     0.031348
      pz      :     0.091648  p :     0.160803
      px      :     0.034577
      py      :     0.034577
      dz2     :     0.006539  d :     0.047936
      dxz     :     0.019090
      dyz     :     0.019090
      dx2y2   :     0.001609
      dxy     :     0.001609
      f0      :     0.003776  f :     0.015434
      f+1     :     0.005232
      f-1     :     0.005232
      f+2     :     0.000597
      f-2     :     0.000597
      f+3     :     0.000000
      f-3     :     0.000000


                      *****************************
                      * MAYER POPULATION ANALYSIS *
                      *****************************

  NA   - Mulliken gross atomic population
  ZA   - Total nuclear charge
  QA   - Mulliken gross atomic charge
  VA   - Mayer's total valence
  BVA  - Mayer's bonded valence
  FA   - Mayer's free valence

  ATOM       NA         ZA         QA         VA         BVA        FA
  0 Mn    24.3854    25.0000     0.6146     6.4173     0.7098     5.7075
  1 F      9.6146     9.0000    -0.6146     0.7176     0.7098     0.0077

  Mayer bond orders larger than 0.100000
B(  0-Mn,  1-F ) :   0.7098 

-------
TIMINGS
-------

Total SCF time: 0 days 0 hours 1 min 10 sec 

Total time                  ....      70.889 sec
Sum of individual times     ....      70.539 sec  ( 99.5%)

Fock matrix formation       ....      70.205 sec  ( 99.0%)
  XC integration            ....       0.562 sec  (  0.8% of F)
    Basis function eval.    ....       0.055 sec  (  9.7% of XC)
    Density eval.           ....       0.057 sec  ( 10.2% of XC)
    XC-Functional eval.     ....       0.015 sec  (  2.6% of XC)
    XC-Potential eval.      ....       0.156 sec  ( 27.8% of XC)
Diagonalization             ....       0.055 sec  (  0.1%)
Density matrix formation    ....       0.007 sec  (  0.0%)
Population analysis         ....       0.006 sec  (  0.0%)
Initial guess               ....       0.097 sec  (  0.1%)
Orbital Transformation      ....       0.000 sec  (  0.0%)
Orbital Orthonormalization  ....       0.000 sec  (  0.0%)
DIIS solution               ....       0.018 sec  (  0.0%)
Grid generation             ....       0.151 sec  (  0.2%)


-------------------------------------------------------------------------------
                          DFT DISPERSION CORRECTION                            
                                                                               
                              DFTD3 V3.1  Rev 1                                
                          USING Becke-Johnson damping                          
-------------------------------------------------------------------------------
The TPSSH functional is recognized
Active option DFTDOPT                   ...         4   

molecular C6(AA) [au] = 361.386732 


            DFT-D V3
 parameters
 s6 scaling factor         :     1.0000 
 a1 scaling factor         :     0.4529 
 s8 scaling factor         :     2.2382 
 a2 scaling factor         :     4.6550 
 ad hoc parameters k1-k3   :    16.0000     1.3333    -4.0000 

 Edisp/kcal,au: -0.317267772861  -0.000505598325 
 E6   /kcal   :  -0.120474204 
 E8   /kcal   :  -0.196793569 
 % E8         :  62.027594970 

-------------------------   ----------------
Dispersion correction           -0.000505598
-------------------------   ----------------


-------------------------   --------------------
FINAL SINGLE POINT ENERGY     -1250.951717815969
-------------------------   --------------------


                            ***************************************
                            *     ORCA property calculations      *
                            ***************************************

                                    ---------------------
                                    Active property flags
                                    ---------------------
   (+) Dipole Moment


------------------------------------------------------------------------------
                       ORCA ELECTRIC PROPERTIES CALCULATION
------------------------------------------------------------------------------

Dipole Moment Calculation                       ... on
Quadrupole Moment Calculation                   ... off
Polarizability Calculation                      ... off
GBWName                                         ... 26_MnF.gbw
Electron density file                           ... 26_MnF.scfp
The origin for moment calculation is the CENTER OF MASS  = ( 0.000000,  0.000000  1.050021)

-------------
DIPOLE MOMENT
-------------
                                X             Y             Z
Electronic contribution:     -0.00000      -0.00000      -1.79645
Nuclear contribution   :      0.00000       0.00000       0.91162
                        -----------------------------------------
Total Dipole Moment    :     -0.00000      -0.00000      -0.88484
                        -----------------------------------------
Magnitude (a.u.)       :      0.88484
Magnitude (Debye)      :      2.24907



--------------------
Rotational spectrum 
--------------------
 
Rotational constants in cm-1:     0.000000     0.357290     0.357290 
Rotational constants in MHz :     0.000000 10711.297675 10711.297675 

 Dipole components along the rotational axes: 
x,y,z [a.u.] :    -0.884836    -0.000000    -0.000000 
x,y,z [Debye]:    -2.249074    -0.000000    -0.000000 

 

Timings for individual modules:

Sum of individual times         ...       74.533 sec (=   1.242 min)
GTO integral calculation        ...        3.186 sec (=   0.053 min)   4.3 %
SCF iterations                  ...       71.347 sec (=   1.189 min)  95.7 %
                             ****ORCA TERMINATED NORMALLY****
TOTAL RUN TIME: 0 days 0 hours 1 minutes 15 seconds 158 msec
