
                                 *****************
                                 * O   R   C   A *
                                 *****************

           --- An Ab Initio, DFT and Semiempirical electronic structure package ---

                  #######################################################
                  #                        -***-                        #
                  #          Department of theory and spectroscopy      #
                  #               Directorship: Frank Neese             #
                  #        Max Planck Institute fuer Kohlenforschung    #
                  #                Kaiser Wilhelm Platz 1               #
                  #                 D-45470 Muelheim/Ruhr               #
                  #                      Germany                        #
                  #                                                     #
                  #                  All rights reserved                #
                  #                        -***-                        #
                  #######################################################


                         Program Version 4.2.0 -  RELEASE  -


 With contributions from (in alphabetic order):
   Daniel Aravena         : Magnetic Suceptibility
   Michael Atanasov       : Ab Initio Ligand Field Theory (pilot matlab implementation)
   Alexander A. Auer      : GIAO ZORA, VPT2
   Ute Becker             : Parallelization
   Giovanni Bistoni       : ED, misc. LED, open-shell LED, HFLED
   Martin Brehm           : Molecular dynamics
   Dmytro Bykov           : SCF Hessian
   Vijay G. Chilkuri      : MRCI spin determinant printing, contributions to CSF-ICE
   Dipayan Datta          : RHF DLPNO-CCSD density
   Achintya Kumar Dutta   : EOM-CC, STEOM-CC
   Dmitry Ganyushin       : Spin-Orbit,Spin-Spin,Magnetic field MRCI
   Miquel Garcia          : C-PCM Hessian, Gaussian charge scheme
   Yang Guo               : DLPNO-NEVPT2, CIM, IAO-localization
   Andreas Hansen         : Spin unrestricted coupled pair/coupled cluster methods
   Benjamin Helmich-Paris : CASSCF linear response (MC-RPA)
   Lee Huntington         : MR-EOM, pCC
   Robert Izsak           : Overlap fitted RIJCOSX, COSX-SCS-MP3, EOM
   Christian Kollmar      : KDIIS, OOCD, Brueckner-CCSD(T), CCSD density
   Simone Kossmann        : Meta GGA functionals, TD-DFT gradient, OOMP2, MP2 Hessian
   Martin Krupicka        : AUTO-CI
   Lucas Lang             : DCDCAS
   Dagmar Lenk            : GEPOL surface, SMD
   Dimitrios Liakos       : Extrapolation schemes; Compound Job, initial MDCI parallelization
   Dimitrios Manganas     : Further ROCIS development; embedding schemes
   Dimitrios Pantazis     : SARC Basis sets
   Taras Petrenko         : DFT Hessian,TD-DFT gradient, ASA, ECA, R-Raman, ABS, FL, XAS/XES, NRVS
   Peter Pinski           : DLPNO-MP2, DLPNO-MP2 Gradient
   Christoph Reimann      : Effective Core Potentials
   Marius Retegan         : Local ZFS, SOC
   Christoph Riplinger    : Optimizer, TS searches, QM/MM, DLPNO-CCSD(T), (RO)-DLPNO pert. Triples
   Tobias Risthaus        : Range-separated hybrids, TD-DFT gradient, RPA, STAB
   Michael Roemelt        : Original ROCIS implementation
   Masaaki Saitow         : Open-shell DLPNO-CCSD energy and density
   Barbara Sandhoefer     : DKH picture change effects
   Avijit Sen             : IP-ROCIS
   Kantharuban Sivalingam : CASSCF convergence, NEVPT2, FIC-MRCI
   Bernardo de Souza      : ESD, SOC TD-DFT
   Georgi Stoychev        : AutoAux, RI-MP2 NMR
   Willem Van den Heuvel  : Paramagnetic NMR
   Boris Wezisla          : Elementary symmetry handling
   Frank Wennmohs         : Technical directorship


 We gratefully acknowledge several colleagues who have allowed us to
 interface, adapt or use parts of their codes:
   Stefan Grimme, W. Hujo, H. Kruse,             : VdW corrections, initial TS optimization,
                  C. Bannwarth                     DFT functionals, gCP, sTDA/sTD-DF
   Ed Valeev, F. Pavosevic, A. Kumar             : LibInt (2-el integral package), F12 methods
   Garnet Chan, S. Sharma, J. Yang, R. Olivares  : DMRG
   Ulf Ekstrom                                   : XCFun DFT Library
   Mihaly Kallay                                 : mrcc  (arbitrary order and MRCC methods)
   Andreas Klamt, Michael Diedenhofen            : otool_cosmo (COSMO solvation model)
   Jiri Pittner, Ondrej Demel                    : Mk-CCSD
   Frank Weinhold                                : gennbo (NPA and NBO analysis)
   Christopher J. Cramer and Donald G. Truhlar   : smd solvation model
   Lars Goerigk                                  : TD-DFT with DH, B97 family of functionals
   V. Asgeirsson, H. Jonsson                     : NEB implementation
   FAccTs GmbH                                   : IRC, NEB, NEB-TS, Multilevel, MM, QM/MM, CI optimization
   S Lehtola, MJT Oliveira, MAL Marques          : LibXC Library


 Your calculation uses the libint2 library for the computation of 2-el integrals
 For citations please refer to: http://libint.valeyev.net

 Your ORCA version has been built with support for libXC version: 4.2.3
 For citations please refer to: https://tddft.org/programs/libxc/

 This ORCA versions uses:
   CBLAS   interface :  Fast vector & matrix operations
   LAPACKE interface :  Fast linear algebra routines
   SCALAPACK package :  Parallel linear algebra routines


Your calculation utilizes the atom-pairwise dispersion correction
with the Becke-Johnson damping scheme (D3BJ)
Cite in your paper:
S.Grimme, S.Ehrlich, L.Goerigk, J Comput Chem, (2011), 32, 1456–1465 
S.Grimme, J.Antony, S.Ehrlich and H.Krieg, J.Chem.Phys., 132, (2010), 154104 
   

----- Orbital basis set information -----
Your calculation utilizes the basis: aug-cc-pVTZ 
    H, B-Ne : Obtained from the ccRepo (grant-hill.group.shef.ac.uk/ccrepo) Feb. 2017
              R. A. Kendall, T. H. Dunning, Jr., R. J. Harrison, J. Chem. Phys. 96, 6796 (1992)
         He : Obtained from the ccRepo (grant-hill.group.shef.ac.uk/ccrepo) Feb. 2017
              D. E. Woon, T. H. Dunning, Jr., J. Chem. Phys. 100, 2975 (1994)
  Li-Be, Na : Obtained from the ccRepo (grant-hill.group.shef.ac.uk/ccrepo) Feb. 2017
              B. P. Prascher, D. E. Woon, K. A. Peterson, T. H. Dunning, Jr., A. K. Wilson, Theor. Chem. Acc. 128, 69 (2011)
         Mg : Obtained from the Peterson Research Group Website (tyr0.chem.wsu.edu/~kipeters) Feb. 2017
              B. P. Prascher, D. E. Woon, K. A. Peterson, T. H. Dunning, Jr., A. K. Wilson, Theor. Chem. Acc. 128, 69 (2011)
      Al-Ar : Obtained from the ccRepo (grant-hill.group.shef.ac.uk/ccrepo) Feb. 2017
              D. E. Woon, T. H. Dunning, Jr., J. Chem. Phys. 98, 1358 (1993)
      Sc-Zn : Obtained from the ccRepo (grant-hill.group.shef.ac.uk/ccrepo) Feb. 2017
              N. B. Balabanov, K. A. Peterson, J. Chem. Phys. 123, 064107 (2005)
              N. B. Balabanov, K. A. Peterson, J. Chem. Phys. 125, 074110 (2006)
      Ga-Kr : Obtained from the ccRepo (grant-hill.group.shef.ac.uk/ccrepo) Feb. 2017
              A. K. Wilson, D. E. Woon, K. A. Peterson, T. H. Dunning, Jr., J. Chem. Phys. 110, 7667 (1999)
     Ag, Au : Obtained from the Peterson Research Group Website (tyr0.chem.wsu.edu/~kipeters) Feb. 2017
              K. A. Peterson, C. Puzzarini, Theor. Chem. Acc. 114, 283 (2005)

----- AuxJK basis set information -----
Your calculation utilizes the auxiliary basis: def2/JK
   H-Ba, Hf-Rn: F. Weigend, J. Comput. Chem. 29, 167 (2008).

================================================================================
                                        WARNINGS
                       Please study these warnings very carefully!
================================================================================


WARNING: your system is open-shell and RHF/RKS was chosen
  ===> : WILL SWITCH to UHF/UKS


INFO   : the flag for use of LIBINT has been found!

================================================================================
                                       INPUT FILE
================================================================================
NAME = 27_MnCl.in
|  1> #
|  2> # 27_MnCl tpssh/aug-cc-pvtz
|  3> #
|  4> ! tpssh d3bj aug-cc-pvtz def2/jk grid4 nofinalgrid
|  5> 
|  6> *xyz 0 7
|  7>   Mn  0.00000000000000      0.00000000000000     -0.11585879372688
|  8>   Cl  0.00000000000000      0.00000000000000      2.11585879372688
|  9> *
| 10> 
| 11> %pal
| 12> nprocs 24
| 13> end
| 14> 
| 15> 
| 16>                          ****END OF INPUT****
================================================================================

                       ****************************
                       * Single Point Calculation *
                       ****************************

---------------------------------
CARTESIAN COORDINATES (ANGSTROEM)
---------------------------------
  Mn     0.000000    0.000000   -0.115859
  Cl     0.000000    0.000000    2.115859

----------------------------
CARTESIAN COORDINATES (A.U.)
----------------------------
  NO LB      ZA    FRAG     MASS         X           Y           Z
   0 Mn   25.0000    0    54.940    0.000000    0.000000   -0.218941
   1 Cl   17.0000    0    35.453    0.000000    0.000000    3.998394

--------------------------------
INTERNAL COORDINATES (ANGSTROEM)
--------------------------------
 Mn     0   0   0     0.000000000000     0.00000000     0.00000000
 Cl     1   0   0     2.231717587454     0.00000000     0.00000000

---------------------------
INTERNAL COORDINATES (A.U.)
---------------------------
 Mn     0   0   0     0.000000000000     0.00000000     0.00000000
 Cl     1   0   0     4.217335048543     0.00000000     0.00000000

---------------------
BASIS SET INFORMATION
---------------------
There are 2 groups of distinct atoms

 Group   1 Type Mn  : 116s77p23d3f2g contracted to 8s7p5d3f2g pattern {19191919191911/151515151511/77711/111/11}
 Group   2 Type Cl  : 42s17p3d2f contracted to 6s5p3d2f pattern {131313111/77111/111/11}

Atom   0Mn   basis set group =>   1
Atom   1Cl   basis set group =>   2
----------------------------------
AUXILIARY/JK BASIS SET INFORMATION
----------------------------------
There are 2 groups of distinct atoms

 Group   1 Type Mn  : 19s14p12d10f7g3h1i contracted to 16s13p11d9f5g3h1i pattern {4111111111111111/2111111111111/21111111111/211111111/31111/111/1}
 Group   2 Type Cl  : 16s12p10d4f1g contracted to 13s11p9d4f1g pattern {4111111111111/21111111111/211111111/1111/1}

Atom   0Mn   basis set group =>   1
Atom   1Cl   basis set group =>   2


           ************************************************************
           *        Program running with 24 parallel MPI-processes    *
           *              working on a common directory               *
           ************************************************************
------------------------------------------------------------------------------
                           ORCA GTO INTEGRAL CALCULATION
------------------------------------------------------------------------------

                         BASIS SET STATISTICS AND STARTUP INFO

 # of primitive gaussian shells          ...  285
 # of primitive gaussian functions       ...  623
 # of contracted shells                  ...   41
 # of contracted basis functions         ...  143
 Highest angular momentum                ...    4
 Maximum contraction depth               ...   19
 Integral package used                   ... LIBINT
 Integral threshhold            Thresh   ...  1.000e-10
 Primitive cut-off              TCut     ...  1.000e-11


------------------------------ INTEGRAL EVALUATION ----------------------------


 * One electron integrals 
 Pre-screening matrix                    ... done
 Shell pair data                         ... done (   0.001 sec)



           ************************************************************
           *        Program running with 24 parallel MPI-processes    *
           *              working on a common directory               *
           ************************************************************
-------------------------------------------------------------------------------
                                 ORCA SCF
-------------------------------------------------------------------------------

------------
SCF SETTINGS
------------
Hamiltonian:
 Density Functional     Method          .... DFT(GTOs)
 Exchange Functional    Exchange        .... TPSS
 Correlation Functional Correlation     .... TPSS
 LDA part of GGA corr.  LDAOpt          .... PW91-LDA
 Gradients option       PostSCFGGA      .... off
 Hybrid DFT is turned on
   Fraction HF Exchange ScalHFX         ....  0.100000
   Scaling of DF-GGA-X  ScalDFX         ....  0.900000
   Scaling of DF-GGA-C  ScalDFC         ....  1.000000
   Scaling of DF-LDA-C  ScalLDAC        ....  1.000000
   Perturbative correction              ....  0.000000
   Density functional embedding theory  .... OFF
   NL short-range parameter             ....  5.200000


General Settings:
 Integral files         IntName         .... 27_MnCl
 Hartree-Fock type      HFTyp           .... UHF
 Total Charge           Charge          ....    0
 Multiplicity           Mult            ....    7
 Number of Electrons    NEL             ....   42
 Basis Dimension        Dim             ....  143
 Nuclear Repulsion      ENuc            ....    100.7745401084 Eh

Convergence Acceleration:
 DIIS                   CNVDIIS         .... on
   Start iteration      DIISMaxIt       ....    12
   Startup error        DIISStart       ....  0.200000
   # of expansion vecs  DIISMaxEq       ....     5
   Bias factor          DIISBfac        ....   1.050
   Max. coefficient     DIISMaxC        ....  10.000
 Newton-Raphson         CNVNR           .... off
 SOSCF                  CNVSOSCF        .... off
 Level Shifting         CNVShift        .... on
   Level shift para.    LevelShift      ....    0.2500
   Turn off err/grad.   ShiftErr        ....    0.0010
 Zerner damping         CNVZerner       .... off
 Static damping         CNVDamp         .... on
   Fraction old density DampFac         ....    0.7000
   Max. Damping (<1)    DampMax         ....    0.9800
   Min. Damping (>=0)   DampMin         ....    0.0000
   Turn off err/grad.   DampErr         ....    0.1000
 Fernandez-Rico         CNVRico         .... off

SCF Procedure:
 Maximum # iterations   MaxIter         ....   125
 SCF integral mode      SCFMode         .... Direct
   Integral package                     .... LIBINT
 Reset frequency        DirectResetFreq ....    20
 Integral Threshold     Thresh          ....  1.000e-10 Eh
 Primitive CutOff       TCut            ....  1.000e-11 Eh

Convergence Tolerance:
 Convergence Check Mode ConvCheckMode   .... Total+1el-Energy
 Convergence forced     ConvForced      .... 0
 Energy Change          TolE            ....  1.000e-06 Eh
 1-El. energy change                    ....  1.000e-03 Eh
 DIIS Error             TolErr          ....  1.000e-06


Diagonalization of the overlap matrix:
Smallest eigenvalue                        ... 8.475e-05
Time for diagonalization                   ...    0.005 sec
Threshold for overlap eigenvalues          ... 1.000e-08
Number of eigenvalues below threshold      ... 0
Time for construction of square roots      ...    0.003 sec
Total time needed                          ...    0.008 sec

-------------------
DFT GRID GENERATION
-------------------

General Integration Accuracy     IntAcc      ...  4.670
Radial Grid Type                 RadialGrid  ... Gauss-Chebyshev
Angular Grid (max. acc.)         AngularGrid ... Lebedev-302
Angular grid pruning method      GridPruning ... 3 (G Style)
Weight generation scheme         WeightScheme... Becke
Basis function cutoff            BFCut       ...    1.0000e-10
Integration weight cutoff        WCut        ...    1.0000e-14
Grids for H and He will be reduced by one unit

# of grid points (after initial pruning)     ...  16402 (   0.0 sec)
# of grid points (after weights+screening)   ...  16375 (   0.0 sec)
nearest neighbour list constructed           ...    0.0 sec
Grid point re-assignment to atoms done       ...    0.0 sec
Grid point division into batches done        ...    0.1 sec
Reduced shell lists constructed in    0.1 sec

Total number of grid points                  ...    16375
Total number of batches                      ...      257
Average number of points per batch           ...       63
Average number of grid points per atom       ...     8188
Average number of shells per batch           ...    14.75 (35.98%)
Average number of basis functions per batch  ...    35.42 (24.77%)
Average number of large shells per batch     ...     8.08 (54.80%)
Average number of large basis fcns per batch ...    20.08 (56.71%)
Maximum spatial batch extension              ...  24.49, 24.19, 18.13 au
Average spatial batch extension              ...   0.85,  0.83,  0.66 au

Time for grid setup =    0.179 sec

------------------------------
INITIAL GUESS: MODEL POTENTIAL
------------------------------
Loading Hartree-Fock densities                     ... done
Calculating cut-offs                               ... done
Setting up the integral package                    ... done
Initializing the effective Hamiltonian             ... done
Starting the Coulomb interaction                   ... done (   0.0 sec)
Reading the grid                                   ... done
Mapping shells                                     ... done
Starting the XC term evaluation                    ... done (   0.0 sec)
  promolecular density results
     # of electrons  =     41.999983765
     EX              =    -77.968956153
     EC              =     -1.740255341
     EX+EC           =    -79.709211494
Transforming the Hamiltonian                       ... done (   0.0 sec)
Diagonalizing the Hamiltonian                      ... done (   0.0 sec)
Back transforming the eigenvectors                 ... done (   0.0 sec)
Now organizing SCF variables                       ... done
                      ------------------
                      INITIAL GUESS DONE (   0.3 sec)
                      ------------------
--------------
SCF ITERATIONS
--------------
ITER       Energy         Delta-E        Max-DP      RMS-DP      [F,P]     Damp
               ***  Starting incremental Fock matrix formation  ***
  0  -1611.2665892126   0.000000000000 0.04357124  0.00106370  0.1001564 0.7000
  1  -1611.2919018292  -0.025312616589 0.03670706  0.00056849  0.0447962 0.7000
                               ***Turning on DIIS***
  2  -1611.2988996075  -0.006997778369 0.09726705  0.00192784  0.0219709 0.0000
  3  -1611.3192738080  -0.020374200433 0.02085830  0.00042302  0.0207787 0.0000
  4  -1611.3218682122  -0.002594404269 0.01542778  0.00033661  0.0160301 0.0000
  5  -1611.3227831826  -0.000914970385 0.01211957  0.00024545  0.0062449 0.0000
  6  -1611.3230618209  -0.000278638258 0.00427706  0.00009119  0.0038915 0.0000
  7  -1611.3231608963  -0.000099075444 0.00164198  0.00004098  0.0011517 0.0000
  8  -1611.3231840193  -0.000023122970 0.00269710  0.00003498  0.0005591 0.0000
  9  -1611.3231942830  -0.000010263726 0.00026095  0.00000523  0.0003081 0.0000
 10  -1611.3231947390  -0.000000455968 0.00011488  0.00000234  0.0001181 0.0000
 11  -1611.3231948050  -0.000000066026 0.00004618  0.00000100  0.0000266 0.0000
                 **** Energy Check signals convergence ****

               *****************************************************
               *                     SUCCESS                       *
               *           SCF CONVERGED AFTER  12 CYCLES          *
               *****************************************************


----------------
TOTAL SCF ENERGY
----------------

Total Energy       :        -1611.32319481 Eh          -43846.33324 eV

Components:
Nuclear Repulsion  :          100.77454011 Eh            2742.21465 eV
Electronic Energy  :        -1712.09773492 Eh          -46588.54788 eV
One Electron Energy:        -2422.29875419 Eh          -65914.10011 eV
Two Electron Energy:          710.20101927 Eh           19325.55223 eV

Virial components:
Potential Energy   :        -3219.89138564 Eh          -87617.69900 eV
Kinetic Energy     :         1608.56819084 Eh           43771.36577 eV
Virial Ratio       :            2.00171271


DFT components:
N(Alpha)           :       24.000000946021 electrons
N(Beta)            :       18.000000939184 electrons
N(Total)           :       42.000001885205 electrons
E(X)               :      -70.854759481986 Eh       
E(C)               :       -1.720801311790 Eh       
E(XC)              :      -72.575560793777 Eh       
DFET-embed. en.    :        0.000000000000 Eh       

---------------
SCF CONVERGENCE
---------------

  Last Energy change         ...   -3.5434e-09  Tolerance :   1.0000e-06
  Last MAX-Density change    ...    2.9114e-05  Tolerance :   1.0000e-05
  Last RMS-Density change    ...    4.9876e-07  Tolerance :   1.0000e-06
  Last DIIS Error            ...    7.3870e-06  Tolerance :   1.0000e-06

             **** THE GBW FILE WAS UPDATED (27_MnCl.gbw) ****
             **** DENSITY FILE WAS UPDATED (27_MnCl.scfp) ****
             **** ENERGY FILE WAS UPDATED (27_MnCl.en.tmp) ****
----------------------
UHF SPIN CONTAMINATION
----------------------

Warning: in a DFT calculation there is little theoretical justification to 
         calculate <S**2> as in Hartree-Fock theory. We will do it anyways
         but you should keep in mind that the values have only limited relevance

Expectation value of <S**2>     :    12.004333
Ideal value S*(S+1) for S=3.0   :    12.000000
Deviation                       :     0.004333

             **** THE GBW FILE WAS UPDATED (27_MnCl.gbw) ****
             **** DENSITY FILE WAS UPDATED (27_MnCl.scfp) ****
----------------
ORBITAL ENERGIES
----------------
                 SPIN UP ORBITALS
  NO   OCC          E(Eh)            E(eV) 
   0   1.0000    -235.314994     -6403.2465 
   1   1.0000    -101.367793     -2758.3579 
   2   1.0000     -27.257901      -741.7252 
   3   1.0000     -23.306352      -634.1981 
   4   1.0000     -23.306352      -634.1981 
   5   1.0000     -23.303166      -634.1114 
   6   1.0000      -9.346912      -254.3424 
   7   1.0000      -7.091166      -192.9605 
   8   1.0000      -7.089129      -192.9050 
   9   1.0000      -7.089129      -192.9050 
  10   1.0000      -3.286453       -89.4289 
  11   1.0000      -2.153927       -58.6113 
  12   1.0000      -2.153927       -58.6113 
  13   1.0000      -2.145537       -58.3830 
  14   1.0000      -0.758370       -20.6363 
  15   1.0000      -0.384494       -10.4626 
  16   1.0000      -0.366717        -9.9789 
  17   1.0000      -0.366717        -9.9789 
  18   1.0000      -0.362790        -9.8720 
  19   1.0000      -0.362790        -9.8720 
  20   1.0000      -0.306559        -8.3419 
  21   1.0000      -0.283013        -7.7012 
  22   1.0000      -0.283013        -7.7012 
  23   1.0000      -0.192097        -5.2272 
  24   0.0000      -0.052684        -1.4336 
  25   0.0000      -0.052684        -1.4336 
  26   0.0000      -0.003473        -0.0945 
  27   0.0000      -0.000209        -0.0057 
  28   0.0000       0.022205         0.6042 
  29   0.0000       0.022205         0.6042 
  30   0.0000       0.043883         1.1941 
  31   0.0000       0.043884         1.1942 
  32   0.0000       0.043967         1.1964 
  33   0.0000       0.053253         1.4491 
  34   0.0000       0.053253         1.4491 
  35   0.0000       0.057603         1.5675 
  36   0.0000       0.086502         2.3538 
  37   0.0000       0.116443         3.1686 
  38   0.0000       0.119164         3.2426 
  39   0.0000       0.119164         3.2426 
  40   0.0000       0.146298         3.9810 
  41   0.0000       0.146298         3.9810 
  42   0.0000       0.162491         4.4216 
  43   0.0000       0.197756         5.3812 
  44   0.0000       0.197759         5.3813 
  45   0.0000       0.210362         5.7243 
  46   0.0000       0.210362         5.7243 
  47   0.0000       0.235170         6.3993 
  48   0.0000       0.261841         7.1251 
  49   0.0000       0.261841         7.1251 
  50   0.0000       0.293336         7.9821 
  51   0.0000       0.343413         9.3447 
  52   0.0000       0.343413         9.3447 
  53   0.0000       0.372669        10.1408 
  54   0.0000       0.442765        12.0482 
  55   0.0000       0.571364        15.5476 
  56   0.0000       0.571364        15.5476 
  57   0.0000       0.615316        16.7436 
  58   0.0000       0.615316        16.7436 
  59   0.0000       0.634904        17.2766 
  60   0.0000       0.634904        17.2766 
  61   0.0000       0.642721        17.4893 
  62   0.0000       0.657948        17.9037 
  63   0.0000       0.657952        17.9038 
  64   0.0000       0.740694        20.1553 
  65   0.0000       0.740699        20.1554 
  66   0.0000       0.750994        20.4356 
  67   0.0000       0.750994        20.4356 
  68   0.0000       0.760941        20.7062 
  69   0.0000       0.806421        21.9438 
  70   0.0000       0.806421        21.9438 
  71   0.0000       0.818305        22.2672 
  72   0.0000       0.863402        23.4944 
  73   0.0000       0.863468        23.4962 
  74   0.0000       0.863470        23.4962 
  75   0.0000       0.936506        25.4836 
  76   0.0000       0.936506        25.4836 
  77   0.0000       1.008885        27.4532 
  78   0.0000       1.014437        27.6042 
  79   0.0000       1.014437        27.6042 
  80   0.0000       1.146429        31.1959 
  81   0.0000       1.146434        31.1960 
  82   0.0000       1.290920        35.1277 
  83   0.0000       1.468507        39.9601 
  84   0.0000       1.468507        39.9601 
  85   0.0000       1.792161        48.7672 
  86   0.0000       2.077962        56.5442 
  87   0.0000       2.077962        56.5442 
  88   0.0000       2.111271        57.4506 
  89   0.0000       2.111274        57.4507 
  90   0.0000       2.118169        57.6383 
  91   0.0000       2.118169        57.6383 
  92   0.0000       2.160824        58.7990 
  93   0.0000       2.221224        60.4426 
  94   0.0000       2.221465        60.4491 
  95   0.0000       2.343867        63.7799 
  96   0.0000       2.343867        63.7799 
  97   0.0000       2.377767        64.7023 
  98   0.0000       2.406721        65.4902 
  99   0.0000       2.406721        65.4902 
 100   0.0000       2.486451        67.6598 
 101   0.0000       2.558407        69.6178 
 102   0.0000       2.558407        69.6178 
 103   0.0000       2.570658        69.9512 
 104   0.0000       2.570913        69.9581 
 105   0.0000       2.575801        70.0911 
 106   0.0000       2.575801        70.0911 
 107   0.0000       2.630056        71.5675 
 108   0.0000       2.666776        72.5667 
 109   0.0000       2.666788        72.5670 
 110   0.0000       2.745982        74.7220 
 111   0.0000       2.778424        75.6048 
 112   0.0000       2.778424        75.6048 
 113   0.0000       2.799105        76.1675 
 114   0.0000       2.799105        76.1675 
 115   0.0000       2.844714        77.4086 
 116   0.0000       2.844757        77.4098 
 117   0.0000       3.007054        81.8261 
 118   0.0000       3.074594        83.6640 
 119   0.0000       3.074594        83.6640 
 120   0.0000       3.483314        94.7858 
 121   0.0000       3.732183       101.5579 
 122   0.0000       3.732210       101.5586 
 123   0.0000       3.963476       107.8517 
 124   0.0000       3.963476       107.8517 
 125   0.0000       4.803110       130.6993 
 126   0.0000       5.970555       162.4671 
 127   0.0000       7.271010       197.8543 
 128   0.0000       7.271010       197.8543 
 129   0.0000       7.291615       198.4149 
 130   0.0000       7.291748       198.4186 
 131   0.0000       7.336553       199.6377 
 132   0.0000       7.336553       199.6377 
 133   0.0000       7.471485       203.3094 
 134   0.0000       7.837405       213.2666 
 135   0.0000       7.837607       213.2721 
 136   0.0000       7.846335       213.5096 
 137   0.0000       7.846335       213.5096 
 138   0.0000       7.888137       214.6471 
 139   0.0000       7.888225       214.6495 
 140   0.0000       8.008211       217.9145 
 141   0.0000       8.008211       217.9145 
 142   0.0000       8.130603       221.2449 

                 SPIN DOWN ORBITALS
  NO   OCC          E(Eh)            E(eV) 
   0   1.0000    -235.312854     -6403.1883 
   1   1.0000    -101.366609     -2758.3257 
   2   1.0000     -27.180391      -739.6160 
   3   1.0000     -23.241080      -632.4219 
   4   1.0000     -23.241080      -632.4219 
   5   1.0000     -23.238933      -632.3635 
   6   1.0000      -9.345853      -254.3136 
   7   1.0000      -7.089267      -192.9088 
   8   1.0000      -7.087741      -192.8672 
   9   1.0000      -7.087741      -192.8672 
  10   1.0000      -3.076017       -83.7027 
  11   1.0000      -1.934488       -52.6401 
  12   1.0000      -1.934488       -52.6401 
  13   1.0000      -1.928491       -52.4769 
  14   1.0000      -0.750307       -20.4169 
  15   1.0000      -0.333177        -9.0662 
  16   1.0000      -0.293276        -7.9805 
  17   1.0000      -0.293276        -7.9805 
  18   0.0000      -0.126583        -3.4445 
  19   0.0000      -0.113181        -3.0798 
  20   0.0000      -0.113179        -3.0798 
  21   0.0000      -0.104677        -2.8484 
  22   0.0000      -0.104677        -2.8484 
  23   0.0000      -0.085012        -2.3133 
  24   0.0000      -0.010343        -0.2814 
  25   0.0000      -0.010343        -0.2814 
  26   0.0000       0.009265         0.2521 
  27   0.0000       0.021769         0.5924 
  28   0.0000       0.035861         0.9758 
  29   0.0000       0.035862         0.9758 
  30   0.0000       0.065149         1.7728 
  31   0.0000       0.065156         1.7730 
  32   0.0000       0.066901         1.8205 
  33   0.0000       0.069013         1.8779 
  34   0.0000       0.072673         1.9775 
  35   0.0000       0.072674         1.9776 
  36   0.0000       0.117413         3.1950 
  37   0.0000       0.128553         3.4981 
  38   0.0000       0.128625         3.5001 
  39   0.0000       0.128625         3.5001 
  40   0.0000       0.179314         4.8794 
  41   0.0000       0.179315         4.8794 
  42   0.0000       0.199930         5.4404 
  43   0.0000       0.224548         6.1103 
  44   0.0000       0.224553         6.1104 
  45   0.0000       0.240776         6.5519 
  46   0.0000       0.240777         6.5519 
  47   0.0000       0.243230         6.6186 
  48   0.0000       0.277467         7.5502 
  49   0.0000       0.277483         7.5507 
  50   0.0000       0.321864         8.7584 
  51   0.0000       0.356163         9.6917 
  52   0.0000       0.356163         9.6917 
  53   0.0000       0.384627        10.4662 
  54   0.0000       0.489550        13.3213 
  55   0.0000       0.578944        15.7539 
  56   0.0000       0.578944        15.7539 
  57   0.0000       0.658949        17.9309 
  58   0.0000       0.658949        17.9309 
  59   0.0000       0.673782        18.3345 
  60   0.0000       0.687695        18.7131 
  61   0.0000       0.687696        18.7131 
  62   0.0000       0.688165        18.7259 
  63   0.0000       0.688167        18.7260 
  64   0.0000       0.745426        20.2841 
  65   0.0000       0.745431        20.2842 
  66   0.0000       0.769805        20.9475 
  67   0.0000       0.769805        20.9475 
  68   0.0000       0.787518        21.4295 
  69   0.0000       0.855135        23.2694 
  70   0.0000       0.867023        23.5929 
  71   0.0000       0.867023        23.5929 
  72   0.0000       0.899455        24.4754 
  73   0.0000       0.954681        25.9782 
  74   0.0000       0.954693        25.9785 
  75   0.0000       0.973911        26.5015 
  76   0.0000       0.973911        26.5015 
  77   0.0000       1.018426        27.7128 
  78   0.0000       1.018426        27.7128 
  79   0.0000       1.027551        27.9611 
  80   0.0000       1.162789        31.6411 
  81   0.0000       1.162797        31.6413 
  82   0.0000       1.327641        36.1269 
  83   0.0000       1.502641        40.8889 
  84   0.0000       1.502641        40.8889 
  85   0.0000       1.829869        49.7933 
  86   0.0000       2.183448        59.4146 
  87   0.0000       2.183448        59.4146 
  88   0.0000       2.197686        59.8021 
  89   0.0000       2.197686        59.8021 
  90   0.0000       2.200738        59.8851 
  91   0.0000       2.200889        59.8892 
  92   0.0000       2.243807        61.0571 
  93   0.0000       2.252657        61.2979 
  94   0.0000       2.252759        61.3007 
  95   0.0000       2.380202        64.7686 
  96   0.0000       2.380202        64.7686 
  97   0.0000       2.394158        65.1484 
  98   0.0000       2.434628        66.2496 
  99   0.0000       2.434628        66.2496 
 100   0.0000       2.614514        71.1445 
 101   0.0000       2.652219        72.1705 
 102   0.0000       2.652357        72.1743 
 103   0.0000       2.655446        72.2583 
 104   0.0000       2.655446        72.2583 
 105   0.0000       2.679276        72.9068 
 106   0.0000       2.679276        72.9068 
 107   0.0000       2.697033        73.3900 
 108   0.0000       2.732308        74.3499 
 109   0.0000       2.732311        74.3500 
 110   0.0000       2.789330        75.9015 
 111   0.0000       2.789330        75.9015 
 112   0.0000       2.817571        76.6700 
 113   0.0000       2.834576        77.1327 
 114   0.0000       2.834576        77.1327 
 115   0.0000       2.860335        77.8337 
 116   0.0000       2.860374        77.8347 
 117   0.0000       3.041158        82.7541 
 118   0.0000       3.125191        85.0408 
 119   0.0000       3.125191        85.0408 
 120   0.0000       3.577006        97.3353 
 121   0.0000       3.887475       105.7836 
 122   0.0000       3.887482       105.7838 
 123   0.0000       4.105420       111.7141 
 124   0.0000       4.105420       111.7141 
 125   0.0000       4.909444       133.5928 
 126   0.0000       5.990245       163.0029 
 127   0.0000       7.496082       203.9788 
 128   0.0000       7.496082       203.9788 
 129   0.0000       7.518329       204.5841 
 130   0.0000       7.518452       204.5875 
 131   0.0000       7.560892       205.7423 
 132   0.0000       7.560892       205.7423 
 133   0.0000       7.689031       209.2292 
 134   0.0000       7.986640       217.3275 
 135   0.0000       7.986815       217.3323 
 136   0.0000       7.995801       217.5768 
 137   0.0000       7.995801       217.5768 
 138   0.0000       8.035008       218.6437 
 139   0.0000       8.035033       218.6444 
 140   0.0000       8.153128       221.8579 
 141   0.0000       8.153128       221.8579 
 142   0.0000       8.274941       225.1726 

                    ********************************
                    * MULLIKEN POPULATION ANALYSIS *
                    ********************************

--------------------------------------------
MULLIKEN ATOMIC CHARGES AND SPIN POPULATIONS
--------------------------------------------
   0 Mn:    0.457530    5.872777
   1 Cl:   -0.457530    0.127223
Sum of atomic charges         :   -0.0000000
Sum of atomic spin populations:    6.0000000

-----------------------------------------------------
MULLIKEN REDUCED ORBITAL CHARGES AND SPIN POPULATIONS
-----------------------------------------------------
CHARGE
  0 Mns       :     6.975235  s :     6.975235
      pz      :     4.284489  p :    12.372370
      px      :     4.043941
      py      :     4.043941
      dz2     :     1.070385  d :     5.174010
      dxz     :     1.052173
      dyz     :     1.052173
      dx2y2   :     0.999639
      dxy     :     0.999639
      f0      :     0.006610  f :     0.019900
      f+1     :     0.006639
      f-1     :     0.006639
      f+2     :     0.000006
      f-2     :     0.000006
      f+3     :     0.000000
      f-3     :     0.000000
      g0      :     0.000326  g :     0.000955
      g+1     :     0.000314
      g-1     :     0.000314
      g+2     :     0.000001
      g-2     :     0.000001
      g+3     :     0.000000
      g-3     :     0.000000
      g+4     :     0.000000
      g-4     :     0.000000
  1 Cls       :     5.967215  s :     5.967215
      pz      :     3.688284  p :    11.464783
      px      :     3.888250
      py      :     3.888250
      dz2     :     0.007425  d :     0.023532
      dxz     :     0.007843
      dyz     :     0.007843
      dx2y2   :     0.000211
      dxy     :     0.000211
      f0      :     0.000031  f :     0.001999
      f+1     :     0.000841
      f-1     :     0.000841
      f+2     :     0.000143
      f-2     :     0.000143
      f+3     :     0.000000
      f-3     :     0.000000

SPIN
  0 Mns       :     0.824977  s :     0.824977
      pz      :     0.215372  p :     0.243134
      px      :     0.013881
      py      :     0.013881
      dz2     :     0.910316  d :     4.805528
      dxz     :     0.947967
      dyz     :     0.947967
      dx2y2   :     0.999639
      dxy     :     0.999639
      f0      :    -0.000426  f :    -0.000679
      f+1     :    -0.000133
      f-1     :    -0.000133
      f+2     :     0.000006
      f-2     :     0.000006
      f+3     :     0.000000
      f-3     :     0.000000
      g0      :    -0.000081  g :    -0.000182
      g+1     :    -0.000051
      g-1     :    -0.000051
      g+2     :     0.000001
      g-2     :     0.000001
      g+3     :     0.000000
      g-3     :     0.000000
      g+4     :     0.000000
      g-4     :     0.000000
  1 Cls       :     0.002856  s :     0.002856
      pz      :     0.045072  p :     0.121205
      px      :     0.038067
      py      :     0.038067
      dz2     :     0.001830  d :     0.002870
      dxz     :     0.000309
      dyz     :     0.000309
      dx2y2   :     0.000211
      dxy     :     0.000211
      f0      :     0.000085  f :     0.000291
      f+1     :    -0.000040
      f-1     :    -0.000040
      f+2     :     0.000143
      f-2     :     0.000143
      f+3     :    -0.000000
      f-3     :    -0.000000


                     *******************************
                     * LOEWDIN POPULATION ANALYSIS *
                     *******************************

-------------------------------------------
LOEWDIN ATOMIC CHARGES AND SPIN POPULATIONS
-------------------------------------------
   0 Mn:    0.102833    5.729562
   1 Cl:   -0.102833    0.270438

----------------------------------------------------
LOEWDIN REDUCED ORBITAL CHARGES AND SPIN POPULATIONS
----------------------------------------------------
CHARGE
  0 Mns       :     6.761549  s :     6.761549
      pz      :     4.456492  p :    12.588014
      px      :     4.065761
      py      :     4.065761
      dz2     :     1.190151  d :     5.379154
      dxz     :     1.097049
      dyz     :     1.097049
      dx2y2   :     0.997452
      dxy     :     0.997452
      f0      :     0.065199  f :     0.160626
      f+1     :     0.047654
      f-1     :     0.047654
      f+2     :     0.000059
      f-2     :     0.000059
      f+3     :     0.000000
      f-3     :     0.000000
      g0      :     0.003828  g :     0.007825
      g+1     :     0.001992
      g-1     :     0.001992
      g+2     :     0.000006
      g-2     :     0.000006
      g+3     :     0.000000
      g-3     :     0.000000
      g+4     :     0.000000
      g-4     :     0.000000
  1 Cls       :     5.647922  s :     5.647922
      pz      :     3.730449  p :    11.221099
      px      :     3.745325
      py      :     3.745325
      dz2     :     0.106442  d :     0.160630
      dxz     :     0.025979
      dyz     :     0.025979
      dx2y2   :     0.001115
      dxy     :     0.001115
      f0      :     0.037968  f :     0.073181
      f+1     :     0.016239
      f-1     :     0.016239
      f+2     :     0.001368
      f-2     :     0.001368
      f+3     :     0.000000
      f-3     :     0.000000

SPIN
  0 Mns       :     0.679348  s :     0.679348
      pz      :     0.278561  p :     0.318548
      px      :     0.019993
      py      :     0.019993
      dz2     :     0.890031  d :     4.722597
      dxz     :     0.918831
      dyz     :     0.918831
      dx2y2   :     0.997452
      dxy     :     0.997452
      f0      :     0.002815  f :     0.008463
      f+1     :     0.002765
      f-1     :     0.002765
      f+2     :     0.000059
      f-2     :     0.000059
      f+3     :     0.000000
      f-3     :     0.000000
      g0      :     0.000278  g :     0.000607
      g+1     :     0.000158
      g-1     :     0.000158
      g+2     :     0.000006
      g-2     :     0.000006
      g+3     :     0.000000
      g-3     :     0.000000
      g+4     :     0.000000
      g-4     :     0.000000
  1 Cls       :     0.028186  s :     0.028186
      pz      :     0.095216  p :     0.163638
      px      :     0.034211
      py      :     0.034211
      dz2     :     0.020906  d :     0.049727
      dxz     :     0.013296
      dyz     :     0.013296
      dx2y2   :     0.001115
      dxy     :     0.001115
      f0      :     0.004660  f :     0.028886
      f+1     :     0.010746
      f-1     :     0.010746
      f+2     :     0.001368
      f-2     :     0.001368
      f+3     :    -0.000000
      f-3     :    -0.000000


                      *****************************
                      * MAYER POPULATION ANALYSIS *
                      *****************************

  NA   - Mulliken gross atomic population
  ZA   - Total nuclear charge
  QA   - Mulliken gross atomic charge
  VA   - Mayer's total valence
  BVA  - Mayer's bonded valence
  FA   - Mayer's free valence

  ATOM       NA         ZA         QA         VA         BVA        FA
  0 Mn    24.5425    25.0000     0.4575     6.6069     0.9386     5.6683
  1 Cl    17.4575    17.0000    -0.4575     0.9496     0.9386     0.0110

  Mayer bond orders larger than 0.100000
B(  0-Mn,  1-Cl) :   0.9386 

-------
TIMINGS
-------

Total SCF time: 0 days 0 hours 1 min 45 sec 

Total time                  ....     105.646 sec
Sum of individual times     ....     105.298 sec  ( 99.7%)

Fock matrix formation       ....     104.905 sec  ( 99.3%)
  XC integration            ....       0.648 sec  (  0.6% of F)
    Basis function eval.    ....       0.074 sec  ( 11.4% of XC)
    Density eval.           ....       0.073 sec  ( 11.2% of XC)
    XC-Functional eval.     ....       0.018 sec  (  2.7% of XC)
    XC-Potential eval.      ....       0.196 sec  ( 30.2% of XC)
Diagonalization             ....       0.066 sec  (  0.1%)
Density matrix formation    ....       0.009 sec  (  0.0%)
Population analysis         ....       0.007 sec  (  0.0%)
Initial guess               ....       0.112 sec  (  0.1%)
Orbital Transformation      ....       0.000 sec  (  0.0%)
Orbital Orthonormalization  ....       0.000 sec  (  0.0%)
DIIS solution               ....       0.022 sec  (  0.0%)
Grid generation             ....       0.179 sec  (  0.2%)


-------------------------------------------------------------------------------
                          DFT DISPERSION CORRECTION                            
                                                                               
                              DFTD3 V3.1  Rev 1                                
                          USING Becke-Johnson damping                          
-------------------------------------------------------------------------------
The TPSSH functional is recognized
Active option DFTDOPT                   ...         4   

molecular C6(AA) [au] = 679.521016 


            DFT-D V3
 parameters
 s6 scaling factor         :     1.0000 
 a1 scaling factor         :     0.4529 
 s8 scaling factor         :     2.2382 
 a2 scaling factor         :     4.6550 
 ad hoc parameters k1-k3   :    16.0000     1.3333    -4.0000 

 Edisp/kcal,au: -0.899381608782  -0.001433255672 
 E6   /kcal   :  -0.286950731 
 E8   /kcal   :  -0.612430877 
 % E8         :  68.094663190 

-------------------------   ----------------
Dispersion correction           -0.001433256
-------------------------   ----------------


-------------------------   --------------------
FINAL SINGLE POINT ENERGY     -1611.324628064215
-------------------------   --------------------


                            ***************************************
                            *     ORCA property calculations      *
                            ***************************************

                                    ---------------------
                                    Active property flags
                                    ---------------------
   (+) Dipole Moment


------------------------------------------------------------------------------
                       ORCA ELECTRIC PROPERTIES CALCULATION
------------------------------------------------------------------------------

Dipole Moment Calculation                       ... on
Quadrupole Moment Calculation                   ... off
Polarizability Calculation                      ... off
GBWName                                         ... 27_MnCl.gbw
Electron density file                           ... 27_MnCl.scfp
The origin for moment calculation is the CENTER OF MASS  = ( 0.000000,  0.000000  1.435138)

-------------
DIPOLE MOMENT
-------------
                                X             Y             Z
Electronic contribution:     -0.00000      -0.00000      -3.24358
Nuclear contribution   :      0.00000       0.00000       2.22337
                        -----------------------------------------
Total Dipole Moment    :     -0.00000      -0.00000      -1.02021
                        -----------------------------------------
Magnitude (a.u.)       :      1.02021
Magnitude (Debye)      :      2.59316



--------------------
Rotational spectrum 
--------------------
 
Rotational constants in cm-1:     0.000000     0.157077     0.157077 
Rotational constants in MHz :     0.000000  4709.038991  4709.038991 

 Dipole components along the rotational axes: 
x,y,z [a.u.] :    -1.020206    -0.000000    -0.000000 
x,y,z [Debye]:    -2.593158    -0.000000    -0.000000 

 

Timings for individual modules:

Sum of individual times         ...      109.733 sec (=   1.829 min)
GTO integral calculation        ...        3.625 sec (=   0.060 min)   3.3 %
SCF iterations                  ...      106.108 sec (=   1.768 min)  96.7 %
                             ****ORCA TERMINATED NORMALLY****
TOTAL RUN TIME: 0 days 0 hours 1 minutes 50 seconds 388 msec
