
                                 *****************
                                 * O   R   C   A *
                                 *****************

           --- An Ab Initio, DFT and Semiempirical electronic structure package ---

                  #######################################################
                  #                        -***-                        #
                  #          Department of theory and spectroscopy      #
                  #               Directorship: Frank Neese             #
                  #        Max Planck Institute fuer Kohlenforschung    #
                  #                Kaiser Wilhelm Platz 1               #
                  #                 D-45470 Muelheim/Ruhr               #
                  #                      Germany                        #
                  #                                                     #
                  #                  All rights reserved                #
                  #                        -***-                        #
                  #######################################################


                         Program Version 4.2.0 -  RELEASE  -


 With contributions from (in alphabetic order):
   Daniel Aravena         : Magnetic Suceptibility
   Michael Atanasov       : Ab Initio Ligand Field Theory (pilot matlab implementation)
   Alexander A. Auer      : GIAO ZORA, VPT2
   Ute Becker             : Parallelization
   Giovanni Bistoni       : ED, misc. LED, open-shell LED, HFLED
   Martin Brehm           : Molecular dynamics
   Dmytro Bykov           : SCF Hessian
   Vijay G. Chilkuri      : MRCI spin determinant printing, contributions to CSF-ICE
   Dipayan Datta          : RHF DLPNO-CCSD density
   Achintya Kumar Dutta   : EOM-CC, STEOM-CC
   Dmitry Ganyushin       : Spin-Orbit,Spin-Spin,Magnetic field MRCI
   Miquel Garcia          : C-PCM Hessian, Gaussian charge scheme
   Yang Guo               : DLPNO-NEVPT2, CIM, IAO-localization
   Andreas Hansen         : Spin unrestricted coupled pair/coupled cluster methods
   Benjamin Helmich-Paris : CASSCF linear response (MC-RPA)
   Lee Huntington         : MR-EOM, pCC
   Robert Izsak           : Overlap fitted RIJCOSX, COSX-SCS-MP3, EOM
   Christian Kollmar      : KDIIS, OOCD, Brueckner-CCSD(T), CCSD density
   Simone Kossmann        : Meta GGA functionals, TD-DFT gradient, OOMP2, MP2 Hessian
   Martin Krupicka        : AUTO-CI
   Lucas Lang             : DCDCAS
   Dagmar Lenk            : GEPOL surface, SMD
   Dimitrios Liakos       : Extrapolation schemes; Compound Job, initial MDCI parallelization
   Dimitrios Manganas     : Further ROCIS development; embedding schemes
   Dimitrios Pantazis     : SARC Basis sets
   Taras Petrenko         : DFT Hessian,TD-DFT gradient, ASA, ECA, R-Raman, ABS, FL, XAS/XES, NRVS
   Peter Pinski           : DLPNO-MP2, DLPNO-MP2 Gradient
   Christoph Reimann      : Effective Core Potentials
   Marius Retegan         : Local ZFS, SOC
   Christoph Riplinger    : Optimizer, TS searches, QM/MM, DLPNO-CCSD(T), (RO)-DLPNO pert. Triples
   Tobias Risthaus        : Range-separated hybrids, TD-DFT gradient, RPA, STAB
   Michael Roemelt        : Original ROCIS implementation
   Masaaki Saitow         : Open-shell DLPNO-CCSD energy and density
   Barbara Sandhoefer     : DKH picture change effects
   Avijit Sen             : IP-ROCIS
   Kantharuban Sivalingam : CASSCF convergence, NEVPT2, FIC-MRCI
   Bernardo de Souza      : ESD, SOC TD-DFT
   Georgi Stoychev        : AutoAux, RI-MP2 NMR
   Willem Van den Heuvel  : Paramagnetic NMR
   Boris Wezisla          : Elementary symmetry handling
   Frank Wennmohs         : Technical directorship


 We gratefully acknowledge several colleagues who have allowed us to
 interface, adapt or use parts of their codes:
   Stefan Grimme, W. Hujo, H. Kruse,             : VdW corrections, initial TS optimization,
                  C. Bannwarth                     DFT functionals, gCP, sTDA/sTD-DF
   Ed Valeev, F. Pavosevic, A. Kumar             : LibInt (2-el integral package), F12 methods
   Garnet Chan, S. Sharma, J. Yang, R. Olivares  : DMRG
   Ulf Ekstrom                                   : XCFun DFT Library
   Mihaly Kallay                                 : mrcc  (arbitrary order and MRCC methods)
   Andreas Klamt, Michael Diedenhofen            : otool_cosmo (COSMO solvation model)
   Jiri Pittner, Ondrej Demel                    : Mk-CCSD
   Frank Weinhold                                : gennbo (NPA and NBO analysis)
   Christopher J. Cramer and Donald G. Truhlar   : smd solvation model
   Lars Goerigk                                  : TD-DFT with DH, B97 family of functionals
   V. Asgeirsson, H. Jonsson                     : NEB implementation
   FAccTs GmbH                                   : IRC, NEB, NEB-TS, Multilevel, MM, QM/MM, CI optimization
   S Lehtola, MJT Oliveira, MAL Marques          : LibXC Library


 Your calculation uses the libint2 library for the computation of 2-el integrals
 For citations please refer to: http://libint.valeyev.net

 Your ORCA version has been built with support for libXC version: 4.2.3
 For citations please refer to: https://tddft.org/programs/libxc/

 This ORCA versions uses:
   CBLAS   interface :  Fast vector & matrix operations
   LAPACKE interface :  Fast linear algebra routines
   SCALAPACK package :  Parallel linear algebra routines


Your calculation utilizes the atom-pairwise dispersion correction
with the Becke-Johnson damping scheme (D3BJ)
Cite in your paper:
S.Grimme, S.Ehrlich, L.Goerigk, J Comput Chem, (2011), 32, 1456–1465 
S.Grimme, J.Antony, S.Ehrlich and H.Krieg, J.Chem.Phys., 132, (2010), 154104 
   

----- Orbital basis set information -----
Your calculation utilizes the basis: aug-cc-pVTZ 
    H, B-Ne : Obtained from the ccRepo (grant-hill.group.shef.ac.uk/ccrepo) Feb. 2017
              R. A. Kendall, T. H. Dunning, Jr., R. J. Harrison, J. Chem. Phys. 96, 6796 (1992)
         He : Obtained from the ccRepo (grant-hill.group.shef.ac.uk/ccrepo) Feb. 2017
              D. E. Woon, T. H. Dunning, Jr., J. Chem. Phys. 100, 2975 (1994)
  Li-Be, Na : Obtained from the ccRepo (grant-hill.group.shef.ac.uk/ccrepo) Feb. 2017
              B. P. Prascher, D. E. Woon, K. A. Peterson, T. H. Dunning, Jr., A. K. Wilson, Theor. Chem. Acc. 128, 69 (2011)
         Mg : Obtained from the Peterson Research Group Website (tyr0.chem.wsu.edu/~kipeters) Feb. 2017
              B. P. Prascher, D. E. Woon, K. A. Peterson, T. H. Dunning, Jr., A. K. Wilson, Theor. Chem. Acc. 128, 69 (2011)
      Al-Ar : Obtained from the ccRepo (grant-hill.group.shef.ac.uk/ccrepo) Feb. 2017
              D. E. Woon, T. H. Dunning, Jr., J. Chem. Phys. 98, 1358 (1993)
      Sc-Zn : Obtained from the ccRepo (grant-hill.group.shef.ac.uk/ccrepo) Feb. 2017
              N. B. Balabanov, K. A. Peterson, J. Chem. Phys. 123, 064107 (2005)
              N. B. Balabanov, K. A. Peterson, J. Chem. Phys. 125, 074110 (2006)
      Ga-Kr : Obtained from the ccRepo (grant-hill.group.shef.ac.uk/ccrepo) Feb. 2017
              A. K. Wilson, D. E. Woon, K. A. Peterson, T. H. Dunning, Jr., J. Chem. Phys. 110, 7667 (1999)
     Ag, Au : Obtained from the Peterson Research Group Website (tyr0.chem.wsu.edu/~kipeters) Feb. 2017
              K. A. Peterson, C. Puzzarini, Theor. Chem. Acc. 114, 283 (2005)

----- AuxJK basis set information -----
Your calculation utilizes the auxiliary basis: def2/JK
   H-Ba, Hf-Rn: F. Weigend, J. Comput. Chem. 29, 167 (2008).

================================================================================
                                        WARNINGS
                       Please study these warnings very carefully!
================================================================================


WARNING: your system is open-shell and RHF/RKS was chosen
  ===> : WILL SWITCH to UHF/UKS


INFO   : the flag for use of LIBINT has been found!

================================================================================
                                       INPUT FILE
================================================================================
NAME = 28_MnBr.in
|  1> #
|  2> # 28_MnBr tpssh/aug-cc-pvtz
|  3> #
|  4> ! tpssh d3bj aug-cc-pvtz def2/jk grid4 nofinalgrid
|  5> 
|  6> *xyz 0 7
|  7>   Mn  0.00000000000000      0.00000000000000     -0.18897622296313
|  8>   Br  0.00000000000000      0.00000000000000      2.18897622296313
|  9> *
| 10> 
| 11> %pal
| 12> nprocs 24
| 13> end
| 14> 
| 15> 
| 16>                          ****END OF INPUT****
================================================================================

                       ****************************
                       * Single Point Calculation *
                       ****************************

---------------------------------
CARTESIAN COORDINATES (ANGSTROEM)
---------------------------------
  Mn     0.000000    0.000000   -0.188976
  Br     0.000000    0.000000    2.188976

----------------------------
CARTESIAN COORDINATES (A.U.)
----------------------------
  NO LB      ZA    FRAG     MASS         X           Y           Z
   0 Mn   25.0000    0    54.940    0.000000    0.000000   -0.357113
   1 Br   35.0000    0    79.900    0.000000    0.000000    4.136566

--------------------------------
INTERNAL COORDINATES (ANGSTROEM)
--------------------------------
 Mn     0   0   0     0.000000000000     0.00000000     0.00000000
 Br     1   0   0     2.377952445926     0.00000000     0.00000000

---------------------------
INTERNAL COORDINATES (A.U.)
---------------------------
 Mn     0   0   0     0.000000000000     0.00000000     0.00000000
 Br     1   0   0     4.493678882289     0.00000000     0.00000000

---------------------
BASIS SET INFORMATION
---------------------
There are 2 groups of distinct atoms

 Group   1 Type Mn  : 116s77p23d3f2g contracted to 8s7p5d3f2g pattern {19191919191911/151515151511/77711/111/11}
 Group   2 Type Br  : 75s36p10d2f contracted to 7s6p4d2f pattern {18181818111/111111111/7111/11}

Atom   0Mn   basis set group =>   1
Atom   1Br   basis set group =>   2
----------------------------------
AUXILIARY/JK BASIS SET INFORMATION
----------------------------------
There are 2 groups of distinct atoms

 Group   1 Type Mn  : 19s14p12d10f7g3h1i contracted to 16s13p11d9f5g3h1i pattern {4111111111111111/2111111111111/21111111111/211111111/31111/111/1}
 Group   2 Type Br  : 20s14p13d10f7g3h contracted to 17s13p12d9f6g3h pattern {41111111111111111/2111111111111/211111111111/211111111/211111/111}

Atom   0Mn   basis set group =>   1
Atom   1Br   basis set group =>   2


           ************************************************************
           *        Program running with 24 parallel MPI-processes    *
           *              working on a common directory               *
           ************************************************************
------------------------------------------------------------------------------
                           ORCA GTO INTEGRAL CALCULATION
------------------------------------------------------------------------------

                         BASIS SET STATISTICS AND STARTUP INFO

 # of primitive gaussian shells          ...  344
 # of primitive gaussian functions       ...  748
 # of contracted shells                  ...   44
 # of contracted basis functions         ...  152
 Highest angular momentum                ...    4
 Maximum contraction depth               ...   19
 Integral package used                   ... LIBINT
 Integral threshhold            Thresh   ...  1.000e-10
 Primitive cut-off              TCut     ...  1.000e-11


------------------------------ INTEGRAL EVALUATION ----------------------------


 * One electron integrals 
 Pre-screening matrix                    ... done
 Shell pair data                         ... done (   0.002 sec)



           ************************************************************
           *        Program running with 24 parallel MPI-processes    *
           *              working on a common directory               *
           ************************************************************
-------------------------------------------------------------------------------
                                 ORCA SCF
-------------------------------------------------------------------------------

------------
SCF SETTINGS
------------
Hamiltonian:
 Density Functional     Method          .... DFT(GTOs)
 Exchange Functional    Exchange        .... TPSS
 Correlation Functional Correlation     .... TPSS
 LDA part of GGA corr.  LDAOpt          .... PW91-LDA
 Gradients option       PostSCFGGA      .... off
 Hybrid DFT is turned on
   Fraction HF Exchange ScalHFX         ....  0.100000
   Scaling of DF-GGA-X  ScalDFX         ....  0.900000
   Scaling of DF-GGA-C  ScalDFC         ....  1.000000
   Scaling of DF-LDA-C  ScalLDAC        ....  1.000000
   Perturbative correction              ....  0.000000
   Density functional embedding theory  .... OFF
   NL short-range parameter             ....  5.200000


General Settings:
 Integral files         IntName         .... 28_MnBr
 Hartree-Fock type      HFTyp           .... UHF
 Total Charge           Charge          ....    0
 Multiplicity           Mult            ....    7
 Number of Electrons    NEL             ....   60
 Basis Dimension        Dim             ....  152
 Nuclear Repulsion      ENuc            ....    194.7179633704 Eh

Convergence Acceleration:
 DIIS                   CNVDIIS         .... on
   Start iteration      DIISMaxIt       ....    12
   Startup error        DIISStart       ....  0.200000
   # of expansion vecs  DIISMaxEq       ....     5
   Bias factor          DIISBfac        ....   1.050
   Max. coefficient     DIISMaxC        ....  10.000
 Newton-Raphson         CNVNR           .... off
 SOSCF                  CNVSOSCF        .... off
 Level Shifting         CNVShift        .... on
   Level shift para.    LevelShift      ....    0.2500
   Turn off err/grad.   ShiftErr        ....    0.0010
 Zerner damping         CNVZerner       .... off
 Static damping         CNVDamp         .... on
   Fraction old density DampFac         ....    0.7000
   Max. Damping (<1)    DampMax         ....    0.9800
   Min. Damping (>=0)   DampMin         ....    0.0000
   Turn off err/grad.   DampErr         ....    0.1000
 Fernandez-Rico         CNVRico         .... off

SCF Procedure:
 Maximum # iterations   MaxIter         ....   125
 SCF integral mode      SCFMode         .... Direct
   Integral package                     .... LIBINT
 Reset frequency        DirectResetFreq ....    20
 Integral Threshold     Thresh          ....  1.000e-10 Eh
 Primitive CutOff       TCut            ....  1.000e-11 Eh

Convergence Tolerance:
 Convergence Check Mode ConvCheckMode   .... Total+1el-Energy
 Convergence forced     ConvForced      .... 0
 Energy Change          TolE            ....  1.000e-06 Eh
 1-El. energy change                    ....  1.000e-03 Eh
 DIIS Error             TolErr          ....  1.000e-06


Diagonalization of the overlap matrix:
Smallest eigenvalue                        ... 7.389e-05
Time for diagonalization                   ...    0.006 sec
Threshold for overlap eigenvalues          ... 1.000e-08
Number of eigenvalues below threshold      ... 0
Time for construction of square roots      ...    0.003 sec
Total time needed                          ...    0.009 sec

-------------------
DFT GRID GENERATION
-------------------

General Integration Accuracy     IntAcc      ...  4.670
Radial Grid Type                 RadialGrid  ... Gauss-Chebyshev
Angular Grid (max. acc.)         AngularGrid ... Lebedev-302
Angular grid pruning method      GridPruning ... 3 (G Style)
Weight generation scheme         WeightScheme... Becke
Basis function cutoff            BFCut       ...    1.0000e-10
Integration weight cutoff        WCut        ...    1.0000e-14
Grids for H and He will be reduced by one unit

# of grid points (after initial pruning)     ...  19280 (   0.0 sec)
# of grid points (after weights+screening)   ...  19254 (   0.0 sec)
nearest neighbour list constructed           ...    0.0 sec
Grid point re-assignment to atoms done       ...    0.0 sec
Grid point division into batches done        ...    0.1 sec
Reduced shell lists constructed in    0.1 sec

Total number of grid points                  ...    19254
Total number of batches                      ...      301
Average number of points per batch           ...       63
Average number of grid points per atom       ...     9627
Average number of shells per batch           ...    16.43 (37.34%)
Average number of basis functions per batch  ...    40.71 (26.79%)
Average number of large shells per batch     ...     9.79 (59.57%)
Average number of large basis fcns per batch ...    24.64 (60.53%)
Maximum spatial batch extension              ...  24.49, 24.19, 17.83 au
Average spatial batch extension              ...   0.84,  0.83,  0.67 au

Time for grid setup =    0.201 sec

------------------------------
INITIAL GUESS: MODEL POTENTIAL
------------------------------
Loading Hartree-Fock densities                     ... done
Calculating cut-offs                               ... done
Setting up the integral package                    ... done
Initializing the effective Hamiltonian             ... done
Starting the Coulomb interaction                   ... done (   0.0 sec)
Reading the grid                                   ... done
Mapping shells                                     ... done
Starting the XC term evaluation                    ... done (   0.0 sec)
  promolecular density results
     # of electrons  =     59.999970598
     EX              =   -139.874439892
     EC              =     -2.792664124
     EX+EC           =   -142.667104016
Transforming the Hamiltonian                       ... done (   0.0 sec)
Diagonalizing the Hamiltonian                      ... done (   0.0 sec)
Back transforming the eigenvectors                 ... done (   0.0 sec)
Now organizing SCF variables                       ... done
                      ------------------
                      INITIAL GUESS DONE (   0.3 sec)
                      ------------------
--------------
SCF ITERATIONS
--------------
ITER       Energy         Delta-E        Max-DP      RMS-DP      [F,P]     Damp
               ***  Starting incremental Fock matrix formation  ***
  0  -3725.1619592179   0.000000000000 0.03834159  0.00087093  0.0898302 0.7000
  1  -3725.1793582285  -0.017399010580 0.03377577  0.00049078  0.0320890 0.7000
                               ***Turning on DIIS***
  2  -3725.1855205879  -0.006162359365 0.08798847  0.00167704  0.0203516 0.0000
  3  -3725.2031665303  -0.017645942449 0.01654506  0.00033410  0.0154957 0.0000
  4  -3725.2051736285  -0.002007098157 0.01247427  0.00025368  0.0134814 0.0000
  5  -3725.2059325115  -0.000758883038 0.01096703  0.00021754  0.0043294 0.0000
  6  -3725.2062136148  -0.000281103325 0.00383663  0.00008030  0.0028531 0.0000
  7  -3725.2063073301  -0.000093715245 0.00172150  0.00003665  0.0011656 0.0000
  8  -3725.2063357661  -0.000028436081 0.00262883  0.00004000  0.0006720 0.0000
  9  -3725.2063503211  -0.000014554998 0.00034099  0.00000837  0.0006259 0.0000
 10  -3725.2063518601  -0.000001538980 0.00021152  0.00000430  0.0001733 0.0000
 11  -3725.2063520011  -0.000000140938 0.00008057  0.00000130  0.0000395 0.0000
                 **** Energy Check signals convergence ****

               *****************************************************
               *                     SUCCESS                       *
               *           SCF CONVERGED AFTER  12 CYCLES          *
               *****************************************************


----------------
TOTAL SCF ENERGY
----------------

Total Energy       :        -3725.20635201 Eh         -101368.01829 eV

Components:
Nuclear Repulsion  :          194.71796337 Eh            5298.54516 eV
Electronic Energy  :        -3919.92431538 Eh         -106666.56344 eV
One Electron Energy:        -5557.01541402 Eh         -151214.07699 eV
Two Electron Energy:         1637.09109864 Eh           44547.51355 eV

Virial components:
Potential Energy   :        -7445.15916182 Eh         -202593.08043 eV
Kinetic Energy     :         3719.95280981 Eh          101225.06214 eV
Virial Ratio       :            2.00141226


DFT components:
N(Alpha)           :       33.000004342525 electrons
N(Beta)            :       27.000003404035 electrons
N(Total)           :       60.000007746560 electrons
E(X)               :     -126.566018433034 Eh       
E(C)               :       -2.771847727109 Eh       
E(XC)              :     -129.337866160143 Eh       
DFET-embed. en.    :        0.000000000000 Eh       

---------------
SCF CONVERGENCE
---------------

  Last Energy change         ...   -7.4829e-09  Tolerance :   1.0000e-06
  Last MAX-Density change    ...    1.6014e-05  Tolerance :   1.0000e-05
  Last RMS-Density change    ...    3.4475e-07  Tolerance :   1.0000e-06
  Last DIIS Error            ...    7.5760e-06  Tolerance :   1.0000e-06

             **** THE GBW FILE WAS UPDATED (28_MnBr.gbw) ****
             **** DENSITY FILE WAS UPDATED (28_MnBr.scfp) ****
             **** ENERGY FILE WAS UPDATED (28_MnBr.en.tmp) ****
----------------------
UHF SPIN CONTAMINATION
----------------------

Warning: in a DFT calculation there is little theoretical justification to 
         calculate <S**2> as in Hartree-Fock theory. We will do it anyways
         but you should keep in mind that the values have only limited relevance

Expectation value of <S**2>     :    12.004982
Ideal value S*(S+1) for S=3.0   :    12.000000
Deviation                       :     0.004982

             **** THE GBW FILE WAS UPDATED (28_MnBr.gbw) ****
             **** DENSITY FILE WAS UPDATED (28_MnBr.scfp) ****
----------------
ORBITAL ENERGIES
----------------
                 SPIN UP ORBITALS
  NO   OCC          E(Eh)            E(eV) 
   0   1.0000    -482.535379    -13130.4552 
   1   1.0000    -235.317857     -6403.3244 
   2   1.0000     -62.248882     -1693.8782 
   3   1.0000     -56.033264     -1524.7426 
   4   1.0000     -56.032495     -1524.7217 
   5   1.0000     -56.032495     -1524.7217 
   6   1.0000     -27.260635      -741.7996 
   7   1.0000     -23.309009      -634.2704 
   8   1.0000     -23.309009      -634.2704 
   9   1.0000     -23.306088      -634.1909 
  10   1.0000      -8.591498      -233.7865 
  11   1.0000      -6.406352      -174.3257 
  12   1.0000      -6.403871      -174.2582 
  13   1.0000      -6.403871      -174.2582 
  14   1.0000      -3.289014       -89.4986 
  15   1.0000      -2.531873       -68.8958 
  16   1.0000      -2.531054       -68.8735 
  17   1.0000      -2.531054       -68.8735 
  18   1.0000      -2.529104       -68.8204 
  19   1.0000      -2.529062       -68.8193 
  20   1.0000      -2.156269       -58.6750 
  21   1.0000      -2.156269       -58.6750 
  22   1.0000      -2.148361       -58.4599 
  23   1.0000      -0.718833       -19.5604 
  24   1.0000      -0.376881       -10.2555 
  25   1.0000      -0.365472        -9.9450 
  26   1.0000      -0.365472        -9.9450 
  27   1.0000      -0.364910        -9.9297 
  28   1.0000      -0.364908        -9.9297 
  29   1.0000      -0.304163        -8.2767 
  30   1.0000      -0.269136        -7.3236 
  31   1.0000      -0.269136        -7.3236 
  32   1.0000      -0.191622        -5.2143 
  33   0.0000      -0.054868        -1.4930 
  34   0.0000      -0.054868        -1.4930 
  35   0.0000      -0.005544        -0.1509 
  36   0.0000      -0.001027        -0.0280 
  37   0.0000       0.020929         0.5695 
  38   0.0000       0.020929         0.5695 
  39   0.0000       0.042108         1.1458 
  40   0.0000       0.042494         1.1563 
  41   0.0000       0.042496         1.1564 
  42   0.0000       0.050946         1.3863 
  43   0.0000       0.054870         1.4931 
  44   0.0000       0.054870         1.4931 
  45   0.0000       0.084158         2.2900 
  46   0.0000       0.092986         2.5303 
  47   0.0000       0.092986         2.5303 
  48   0.0000       0.097870         2.6632 
  49   0.0000       0.143562         3.9065 
  50   0.0000       0.143562         3.9065 
  51   0.0000       0.152797         4.1578 
  52   0.0000       0.179892         4.8951 
  53   0.0000       0.179893         4.8951 
  54   0.0000       0.186189         5.0665 
  55   0.0000       0.202852         5.5199 
  56   0.0000       0.202852         5.5199 
  57   0.0000       0.220015         5.9869 
  58   0.0000       0.220015         5.9869 
  59   0.0000       0.269976         7.3464 
  60   0.0000       0.295383         8.0378 
  61   0.0000       0.295383         8.0378 
  62   0.0000       0.335991         9.1428 
  63   0.0000       0.420028        11.4295 
  64   0.0000       0.444882        12.1058 
  65   0.0000       0.444882        12.1058 
  66   0.0000       0.566657        15.4195 
  67   0.0000       0.594023        16.1642 
  68   0.0000       0.596118        16.2212 
  69   0.0000       0.596118        16.2212 
  70   0.0000       0.599569        16.3151 
  71   0.0000       0.599569        16.3151 
  72   0.0000       0.608146        16.5485 
  73   0.0000       0.608146        16.5485 
  74   0.0000       0.633337        17.2340 
  75   0.0000       0.633338        17.2340 
  76   0.0000       0.653706        17.7882 
  77   0.0000       0.653706        17.7882 
  78   0.0000       0.740649        20.1541 
  79   0.0000       0.797158        21.6918 
  80   0.0000       0.797158        21.6918 
  81   0.0000       0.822154        22.3720 
  82   0.0000       0.822154        22.3720 
  83   0.0000       0.822842        22.3907 
  84   0.0000       0.835940        22.7471 
  85   0.0000       0.835940        22.7471 
  86   0.0000       0.857569        23.3356 
  87   0.0000       0.857570        23.3357 
  88   0.0000       0.898101        24.4386 
  89   0.0000       0.942784        25.6544 
  90   0.0000       0.942785        25.6545 
  91   0.0000       1.113039        30.2873 
  92   0.0000       1.245720        33.8978 
  93   0.0000       1.245720        33.8978 
  94   0.0000       1.554577        42.3022 
  95   0.0000       1.864882        50.7460 
  96   0.0000       1.864882        50.7460 
  97   0.0000       1.983053        53.9616 
  98   0.0000       1.987888        54.0932 
  99   0.0000       1.987923        54.0941 
 100   0.0000       2.025836        55.1258 
 101   0.0000       2.025836        55.1258 
 102   0.0000       2.034124        55.3513 
 103   0.0000       2.034124        55.3513 
 104   0.0000       2.059073        56.0302 
 105   0.0000       2.059119        56.0315 
 106   0.0000       2.079354        56.5821 
 107   0.0000       2.084788        56.7300 
 108   0.0000       2.084788        56.7300 
 109   0.0000       2.129306        57.9414 
 110   0.0000       2.129306        57.9414 
 111   0.0000       2.138542        58.1927 
 112   0.0000       2.138554        58.1930 
 113   0.0000       2.173795        59.1520 
 114   0.0000       2.235503        60.8311 
 115   0.0000       2.235503        60.8311 
 116   0.0000       2.427057        66.0436 
 117   0.0000       2.542929        69.1966 
 118   0.0000       2.562805        69.7375 
 119   0.0000       2.562805        69.7375 
 120   0.0000       2.569749        69.9264 
 121   0.0000       2.569767        69.9269 
 122   0.0000       2.581255        70.2395 
 123   0.0000       2.581255        70.2395 
 124   0.0000       2.643713        71.9391 
 125   0.0000       2.643716        71.9392 
 126   0.0000       2.769843        75.3713 
 127   0.0000       2.845483        77.4295 
 128   0.0000       2.845483        77.4295 
 129   0.0000       3.137027        85.3629 
 130   0.0000       3.726999       101.4168 
 131   0.0000       3.727002       101.4169 
 132   0.0000       3.900699       106.1434 
 133   0.0000       3.900699       106.1434 
 134   0.0000       4.166865       113.3862 
 135   0.0000       4.690648       127.6390 
 136   0.0000       7.268893       197.7966 
 137   0.0000       7.268893       197.7966 
 138   0.0000       7.290616       198.3878 
 139   0.0000       7.290797       198.3927 
 140   0.0000       7.330810       199.4815 
 141   0.0000       7.330810       199.4815 
 142   0.0000       7.403747       201.4662 
 143   0.0000       7.835412       213.2124 
 144   0.0000       7.835869       213.2248 
 145   0.0000       7.843094       213.4214 
 146   0.0000       7.843094       213.4214 
 147   0.0000       7.871818       214.2030 
 148   0.0000       7.871835       214.2035 
 149   0.0000       7.961202       216.6353 
 150   0.0000       7.961202       216.6353 
 151   0.0000       8.042444       218.8460 

                 SPIN DOWN ORBITALS
  NO   OCC          E(Eh)            E(eV) 
   0   1.0000    -482.534938    -13130.4432 
   1   1.0000    -235.315735     -6403.2667 
   2   1.0000     -62.248701     -1693.8733 
   3   1.0000     -56.032750     -1524.7286 
   4   1.0000     -56.032174     -1524.7130 
   5   1.0000     -56.032174     -1524.7130 
   6   1.0000     -27.183156      -739.6913 
   7   1.0000     -23.243774      -632.4953 
   8   1.0000     -23.243774      -632.4953 
   9   1.0000     -23.241880      -632.4437 
  10   1.0000      -8.590841      -233.7687 
  11   1.0000      -6.405422      -174.3004 
  12   1.0000      -6.403201      -174.2400 
  13   1.0000      -6.403201      -174.2400 
  14   1.0000      -3.078585       -83.7725 
  15   1.0000      -2.530935       -68.8703 
  16   1.0000      -2.530175       -68.8496 
  17   1.0000      -2.530175       -68.8496 
  18   1.0000      -2.528389       -68.8009 
  19   1.0000      -2.528347       -68.7998 
  20   1.0000      -1.936815       -52.7034 
  21   1.0000      -1.936815       -52.7034 
  22   1.0000      -1.931263       -52.5524 
  23   1.0000      -0.711864       -19.3708 
  24   1.0000      -0.317179        -8.6309 
  25   1.0000      -0.275565        -7.4985 
  26   1.0000      -0.275565        -7.4985 
  27   0.0000      -0.128361        -3.4929 
  28   0.0000      -0.115291        -3.1372 
  29   0.0000      -0.115290        -3.1372 
  30   0.0000      -0.109078        -2.9682 
  31   0.0000      -0.109078        -2.9682 
  32   0.0000      -0.091070        -2.4782 
  33   0.0000      -0.014478        -0.3940 
  34   0.0000      -0.014478        -0.3940 
  35   0.0000       0.006374         0.1734 
  36   0.0000       0.019854         0.5403 
  37   0.0000       0.033103         0.9008 
  38   0.0000       0.033103         0.9008 
  39   0.0000       0.058419         1.5897 
  40   0.0000       0.061773         1.6809 
  41   0.0000       0.061784         1.6812 
  42   0.0000       0.066428         1.8076 
  43   0.0000       0.071514         1.9460 
  44   0.0000       0.071514         1.9460 
  45   0.0000       0.101945         2.7741 
  46   0.0000       0.102701         2.7946 
  47   0.0000       0.102701         2.7946 
  48   0.0000       0.118578         3.2267 
  49   0.0000       0.174224         4.7409 
  50   0.0000       0.174224         4.7409 
  51   0.0000       0.178375         4.8538 
  52   0.0000       0.189846         5.1660 
  53   0.0000       0.189848         5.1660 
  54   0.0000       0.203675         5.5423 
  55   0.0000       0.229670         6.2496 
  56   0.0000       0.229670         6.2496 
  57   0.0000       0.250562         6.8181 
  58   0.0000       0.250568         6.8183 
  59   0.0000       0.290459         7.9038 
  60   0.0000       0.308603         8.3975 
  61   0.0000       0.308603         8.3975 
  62   0.0000       0.352169         9.5830 
  63   0.0000       0.450104        12.2480 
  64   0.0000       0.450104        12.2480 
  65   0.0000       0.459827        12.5125 
  66   0.0000       0.585177        15.9235 
  67   0.0000       0.609602        16.5881 
  68   0.0000       0.610230        16.6052 
  69   0.0000       0.610234        16.6053 
  70   0.0000       0.610742        16.6191 
  71   0.0000       0.610742        16.6191 
  72   0.0000       0.648657        17.6509 
  73   0.0000       0.648657        17.6509 
  74   0.0000       0.649734        17.6802 
  75   0.0000       0.649739        17.6803 
  76   0.0000       0.710850        19.3432 
  77   0.0000       0.710850        19.3432 
  78   0.0000       0.784936        21.3592 
  79   0.0000       0.804094        21.8805 
  80   0.0000       0.804094        21.8805 
  81   0.0000       0.850591        23.1458 
  82   0.0000       0.850591        23.1458 
  83   0.0000       0.857289        23.3280 
  84   0.0000       0.893510        24.3136 
  85   0.0000       0.893510        24.3136 
  86   0.0000       0.922213        25.0947 
  87   0.0000       0.922216        25.0948 
  88   0.0000       0.927365        25.2349 
  89   0.0000       0.990244        26.9459 
  90   0.0000       0.990254        26.9462 
  91   0.0000       1.147630        31.2286 
  92   0.0000       1.289135        35.0791 
  93   0.0000       1.289135        35.0791 
  94   0.0000       1.593853        43.3709 
  95   0.0000       1.870427        50.8969 
  96   0.0000       1.870427        50.8969 
  97   0.0000       1.992763        54.2258 
  98   0.0000       1.992788        54.2265 
  99   0.0000       1.994104        54.2623 
 100   0.0000       2.035685        55.3938 
 101   0.0000       2.035685        55.3938 
 102   0.0000       2.056521        55.9608 
 103   0.0000       2.056521        55.9608 
 104   0.0000       2.075667        56.4818 
 105   0.0000       2.075716        56.4831 
 106   0.0000       2.113018        57.4981 
 107   0.0000       2.139354        58.2148 
 108   0.0000       2.139354        58.2148 
 109   0.0000       2.199433        59.8496 
 110   0.0000       2.199433        59.8496 
 111   0.0000       2.229534        60.6687 
 112   0.0000       2.241768        61.0016 
 113   0.0000       2.241783        61.0020 
 114   0.0000       2.327751        63.3413 
 115   0.0000       2.327751        63.3413 
 116   0.0000       2.525548        68.7236 
 117   0.0000       2.651330        72.1464 
 118   0.0000       2.651500        72.1510 
 119   0.0000       2.651546        72.1522 
 120   0.0000       2.666052        72.5470 
 121   0.0000       2.666052        72.5470 
 122   0.0000       2.688658        73.1621 
 123   0.0000       2.688658        73.1621 
 124   0.0000       2.719878        74.0116 
 125   0.0000       2.719888        74.0119 
 126   0.0000       2.839051        77.2545 
 127   0.0000       2.920592        79.4733 
 128   0.0000       2.920592        79.4733 
 129   0.0000       3.243989        88.2734 
 130   0.0000       3.882181       105.6395 
 131   0.0000       3.882186       105.6397 
 132   0.0000       4.045999       110.0972 
 133   0.0000       4.045999       110.0972 
 134   0.0000       4.180671       113.7618 
 135   0.0000       4.814241       131.0022 
 136   0.0000       7.494116       203.9253 
 137   0.0000       7.494116       203.9253 
 138   0.0000       7.517002       204.5480 
 139   0.0000       7.517153       204.5521 
 140   0.0000       7.555168       205.5866 
 141   0.0000       7.555168       205.5866 
 142   0.0000       7.625639       207.5042 
 143   0.0000       7.984800       217.2774 
 144   0.0000       7.985132       217.2865 
 145   0.0000       7.992438       217.4853 
 146   0.0000       7.992438       217.4853 
 147   0.0000       8.018938       218.2064 
 148   0.0000       8.018984       218.2077 
 149   0.0000       8.107013       220.6031 
 150   0.0000       8.107013       220.6031 
 151   0.0000       8.186578       222.7681 

                    ********************************
                    * MULLIKEN POPULATION ANALYSIS *
                    ********************************

--------------------------------------------
MULLIKEN ATOMIC CHARGES AND SPIN POPULATIONS
--------------------------------------------
   0 Mn:    0.419817    5.865083
   1 Br:   -0.419817    0.134917
Sum of atomic charges         :   -0.0000000
Sum of atomic spin populations:    6.0000000

-----------------------------------------------------
MULLIKEN REDUCED ORBITAL CHARGES AND SPIN POPULATIONS
-----------------------------------------------------
CHARGE
  0 Mns       :     6.998396  s :     6.998396
      pz      :     4.288171  p :    12.383522
      px      :     4.047676
      py      :     4.047676
      dz2     :     1.067034  d :     5.179221
      dxz     :     1.056424
      dyz     :     1.056424
      dx2y2   :     0.999670
      dxy     :     0.999670
      f0      :     0.005349  f :     0.018366
      f+1     :     0.006503
      f-1     :     0.006503
      f+2     :     0.000006
      f-2     :     0.000006
      f+3     :     0.000000
      f-3     :     0.000000
      g0      :     0.000253  g :     0.000677
      g+1     :     0.000211
      g-1     :     0.000211
      g+2     :     0.000001
      g-2     :     0.000001
      g+3     :     0.000000
      g-3     :     0.000000
      g+4     :     0.000000
      g-4     :     0.000000
  1 Brs       :     8.002214  s :     8.002214
      pz      :     5.630181  p :    17.391805
      px      :     5.880812
      py      :     5.880812
      dz2     :     2.008457  d :    10.023295
      dxz     :     2.007260
      dyz     :     2.007260
      dx2y2   :     2.000159
      dxy     :     2.000159
      f0      :    -0.000055  f :     0.002502
      f+1     :     0.001114
      f-1     :     0.001114
      f+2     :     0.000165
      f-2     :     0.000165
      f+3     :     0.000000
      f-3     :     0.000000

SPIN
  0 Mns       :     0.807364  s :     0.807364
      pz      :     0.221645  p :     0.250479
      px      :     0.014417
      py      :     0.014417
      dz2     :     0.916674  d :     4.808664
      dxz     :     0.946325
      dyz     :     0.946325
      dx2y2   :     0.999670
      dxy     :     0.999670
      f0      :    -0.000496  f :    -0.001282
      f+1     :    -0.000397
      f-1     :    -0.000397
      f+2     :     0.000004
      f-2     :     0.000004
      f+3     :    -0.000000
      f-3     :    -0.000000
      g0      :    -0.000054  g :    -0.000142
      g+1     :    -0.000044
      g-1     :    -0.000044
      g+2     :     0.000001
      g-2     :     0.000001
      g+3     :     0.000000
      g-3     :     0.000000
      g+4     :     0.000000
      g-4     :     0.000000
  1 Brs       :     0.004683  s :     0.004683
      pz      :     0.047954  p :     0.127176
      px      :     0.039611
      py      :     0.039611
      dz2     :     0.002240  d :     0.002691
      dxz     :     0.000065
      dyz     :     0.000065
      dx2y2   :     0.000161
      dxy     :     0.000161
      f0      :    -0.000009  f :     0.000367
      f+1     :     0.000023
      f-1     :     0.000023
      f+2     :     0.000165
      f-2     :     0.000165
      f+3     :     0.000000
      f-3     :     0.000000


                     *******************************
                     * LOEWDIN POPULATION ANALYSIS *
                     *******************************

-------------------------------------------
LOEWDIN ATOMIC CHARGES AND SPIN POPULATIONS
-------------------------------------------
   0 Mn:    0.025516    5.721017
   1 Br:   -0.025516    0.278983

----------------------------------------------------
LOEWDIN REDUCED ORBITAL CHARGES AND SPIN POPULATIONS
----------------------------------------------------
CHARGE
  0 Mns       :     6.776990  s :     6.776990
      pz      :     4.485611  p :    12.635205
      px      :     4.074797
      py      :     4.074797
      dz2     :     1.199091  d :     5.420437
      dxz     :     1.112816
      dyz     :     1.112816
      dx2y2   :     0.997857
      dxy     :     0.997857
      f0      :     0.056842  f :     0.136956
      f+1     :     0.040014
      f-1     :     0.040014
      f+2     :     0.000043
      f-2     :     0.000043
      f+3     :     0.000000
      f-3     :     0.000000
      g0      :     0.002378  g :     0.004895
      g+1     :     0.001255
      g-1     :     0.001255
      g+2     :     0.000003
      g-2     :     0.000003
      g+3     :     0.000000
      g-3     :     0.000000
      g+4     :     0.000000
      g-4     :     0.000000
  1 Brs       :     7.657202  s :     7.657202
      pz      :     5.673272  p :    17.141993
      px      :     5.734361
      py      :     5.734361
      dz2     :     2.110186  d :    10.153806
      dxz     :     2.020963
      dyz     :     2.020963
      dx2y2   :     2.000847
      dxy     :     2.000847
      f0      :     0.038429  f :     0.072515
      f+1     :     0.015793
      f-1     :     0.015793
      f+2     :     0.001249
      f-2     :     0.001249
      f+3     :     0.000000
      f-3     :     0.000000

SPIN
  0 Mns       :     0.651662  s :     0.651662
      pz      :     0.284297  p :     0.324233
      px      :     0.019968
      py      :     0.019968
      dz2     :     0.898850  d :     4.738414
      dxz     :     0.921928
      dyz     :     0.921928
      dx2y2   :     0.997855
      dxy     :     0.997855
      f0      :     0.002525  f :     0.006376
      f+1     :     0.001889
      f-1     :     0.001889
      f+2     :     0.000037
      f-2     :     0.000037
      f+3     :    -0.000000
      f-3     :    -0.000000
      g0      :     0.000176  g :     0.000332
      g+1     :     0.000075
      g-1     :     0.000075
      g+2     :     0.000003
      g-2     :     0.000003
      g+3     :     0.000000
      g-3     :     0.000000
      g+4     :     0.000000
      g-4     :     0.000000
  1 Brs       :     0.031102  s :     0.031102
      pz      :     0.097801  p :     0.169227
      px      :     0.035713
      py      :     0.035713
      dz2     :     0.028926  d :     0.051117
      dxz     :     0.010240
      dyz     :     0.010240
      dx2y2   :     0.000856
      dxy     :     0.000856
      f0      :     0.004661  f :     0.027537
      f+1     :     0.010189
      f-1     :     0.010189
      f+2     :     0.001249
      f-2     :     0.001249
      f+3     :     0.000000
      f-3     :     0.000000


                      *****************************
                      * MAYER POPULATION ANALYSIS *
                      *****************************

  NA   - Mulliken gross atomic population
  ZA   - Total nuclear charge
  QA   - Mulliken gross atomic charge
  VA   - Mayer's total valence
  BVA  - Mayer's bonded valence
  FA   - Mayer's free valence

  ATOM       NA         ZA         QA         VA         BVA        FA
  0 Mn    24.5802    25.0000     0.4198     6.6337     0.9940     5.6397
  1 Br    35.4198    35.0000    -0.4198     1.0081     0.9940     0.0141

  Mayer bond orders larger than 0.100000
B(  0-Mn,  1-Br) :   0.9940 

-------
TIMINGS
-------

Total SCF time: 0 days 0 hours 2 min 26 sec 

Total time                  ....     146.278 sec
Sum of individual times     ....     145.891 sec  ( 99.7%)

Fock matrix formation       ....     145.461 sec  ( 99.4%)
  XC integration            ....       0.804 sec  (  0.6% of F)
    Basis function eval.    ....       0.094 sec  ( 11.7% of XC)
    Density eval.           ....       0.093 sec  ( 11.6% of XC)
    XC-Functional eval.     ....       0.021 sec  (  2.7% of XC)
    XC-Potential eval.      ....       0.232 sec  ( 28.8% of XC)
Diagonalization             ....       0.072 sec  (  0.0%)
Density matrix formation    ....       0.010 sec  (  0.0%)
Population analysis         ....       0.007 sec  (  0.0%)
Initial guess               ....       0.112 sec  (  0.1%)
Orbital Transformation      ....       0.000 sec  (  0.0%)
Orbital Orthonormalization  ....       0.000 sec  (  0.0%)
DIIS solution               ....       0.028 sec  (  0.0%)
Grid generation             ....       0.201 sec  (  0.1%)


-------------------------------------------------------------------------------
                          DFT DISPERSION CORRECTION                            
                                                                               
                              DFTD3 V3.1  Rev 1                                
                          USING Becke-Johnson damping                          
-------------------------------------------------------------------------------
The TPSSH functional is recognized
Active option DFTDOPT                   ...         4   

molecular C6(AA) [au] = 873.679407 


            DFT-D V3
 parameters
 s6 scaling factor         :     1.0000 
 a1 scaling factor         :     0.4529 
 s8 scaling factor         :     2.2382 
 a2 scaling factor         :     4.6550 
 ad hoc parameters k1-k3   :    16.0000     1.3333    -4.0000 

 Edisp/kcal,au: -1.014498079704  -0.001616705426 
 E6   /kcal   :  -0.298883817 
 E8   /kcal   :  -0.715614263 
 % E8         :  70.538749893 

-------------------------   ----------------
Dispersion correction           -0.001616705
-------------------------   ----------------


-------------------------   --------------------
FINAL SINGLE POINT ENERGY     -3725.207968713969
-------------------------   --------------------


                            ***************************************
                            *     ORCA property calculations      *
                            ***************************************

                                    ---------------------
                                    Active property flags
                                    ---------------------
   (+) Dipole Moment


------------------------------------------------------------------------------
                       ORCA ELECTRIC PROPERTIES CALCULATION
------------------------------------------------------------------------------

Dipole Moment Calculation                       ... on
Quadrupole Moment Calculation                   ... off
Polarizability Calculation                      ... off
GBWName                                         ... 28_MnBr.gbw
Electron density file                           ... 28_MnBr.scfp
The origin for moment calculation is the CENTER OF MASS  = ( 0.000000,  0.000000  2.305635)

-------------
DIPOLE MOMENT
-------------
                                X             Y             Z
Electronic contribution:      0.00000       0.00000       1.45312
Nuclear contribution   :      0.00000       0.00000      -2.48612
                        -----------------------------------------
Total Dipole Moment    :      0.00000       0.00000      -1.03300
                        -----------------------------------------
Magnitude (a.u.)       :      1.03300
Magnitude (Debye)      :      2.62568



--------------------
Rotational spectrum 
--------------------
 
Rotational constants in cm-1:     0.000000     0.091574     0.091574 
Rotational constants in MHz :     0.000000  2745.330169  2745.330169 

 Dipole components along the rotational axes: 
x,y,z [a.u.] :    -1.033001     0.000000     0.000000 
x,y,z [Debye]:    -2.625680     0.000000     0.000000 

 

Timings for individual modules:

Sum of individual times         ...      151.780 sec (=   2.530 min)
GTO integral calculation        ...        5.050 sec (=   0.084 min)   3.3 %
SCF iterations                  ...      146.731 sec (=   2.446 min)  96.7 %
                             ****ORCA TERMINATED NORMALLY****
TOTAL RUN TIME: 0 days 0 hours 2 minutes 32 seconds 434 msec
