
                                 *****************
                                 * O   R   C   A *
                                 *****************

           --- An Ab Initio, DFT and Semiempirical electronic structure package ---

                  #######################################################
                  #                        -***-                        #
                  #          Department of theory and spectroscopy      #
                  #               Directorship: Frank Neese             #
                  #        Max Planck Institute fuer Kohlenforschung    #
                  #                Kaiser Wilhelm Platz 1               #
                  #                 D-45470 Muelheim/Ruhr               #
                  #                      Germany                        #
                  #                                                     #
                  #                  All rights reserved                #
                  #                        -***-                        #
                  #######################################################


                         Program Version 4.2.0 -  RELEASE  -


 With contributions from (in alphabetic order):
   Daniel Aravena         : Magnetic Suceptibility
   Michael Atanasov       : Ab Initio Ligand Field Theory (pilot matlab implementation)
   Alexander A. Auer      : GIAO ZORA, VPT2
   Ute Becker             : Parallelization
   Giovanni Bistoni       : ED, misc. LED, open-shell LED, HFLED
   Martin Brehm           : Molecular dynamics
   Dmytro Bykov           : SCF Hessian
   Vijay G. Chilkuri      : MRCI spin determinant printing, contributions to CSF-ICE
   Dipayan Datta          : RHF DLPNO-CCSD density
   Achintya Kumar Dutta   : EOM-CC, STEOM-CC
   Dmitry Ganyushin       : Spin-Orbit,Spin-Spin,Magnetic field MRCI
   Miquel Garcia          : C-PCM Hessian, Gaussian charge scheme
   Yang Guo               : DLPNO-NEVPT2, CIM, IAO-localization
   Andreas Hansen         : Spin unrestricted coupled pair/coupled cluster methods
   Benjamin Helmich-Paris : CASSCF linear response (MC-RPA)
   Lee Huntington         : MR-EOM, pCC
   Robert Izsak           : Overlap fitted RIJCOSX, COSX-SCS-MP3, EOM
   Christian Kollmar      : KDIIS, OOCD, Brueckner-CCSD(T), CCSD density
   Simone Kossmann        : Meta GGA functionals, TD-DFT gradient, OOMP2, MP2 Hessian
   Martin Krupicka        : AUTO-CI
   Lucas Lang             : DCDCAS
   Dagmar Lenk            : GEPOL surface, SMD
   Dimitrios Liakos       : Extrapolation schemes; Compound Job, initial MDCI parallelization
   Dimitrios Manganas     : Further ROCIS development; embedding schemes
   Dimitrios Pantazis     : SARC Basis sets
   Taras Petrenko         : DFT Hessian,TD-DFT gradient, ASA, ECA, R-Raman, ABS, FL, XAS/XES, NRVS
   Peter Pinski           : DLPNO-MP2, DLPNO-MP2 Gradient
   Christoph Reimann      : Effective Core Potentials
   Marius Retegan         : Local ZFS, SOC
   Christoph Riplinger    : Optimizer, TS searches, QM/MM, DLPNO-CCSD(T), (RO)-DLPNO pert. Triples
   Tobias Risthaus        : Range-separated hybrids, TD-DFT gradient, RPA, STAB
   Michael Roemelt        : Original ROCIS implementation
   Masaaki Saitow         : Open-shell DLPNO-CCSD energy and density
   Barbara Sandhoefer     : DKH picture change effects
   Avijit Sen             : IP-ROCIS
   Kantharuban Sivalingam : CASSCF convergence, NEVPT2, FIC-MRCI
   Bernardo de Souza      : ESD, SOC TD-DFT
   Georgi Stoychev        : AutoAux, RI-MP2 NMR
   Willem Van den Heuvel  : Paramagnetic NMR
   Boris Wezisla          : Elementary symmetry handling
   Frank Wennmohs         : Technical directorship


 We gratefully acknowledge several colleagues who have allowed us to
 interface, adapt or use parts of their codes:
   Stefan Grimme, W. Hujo, H. Kruse,             : VdW corrections, initial TS optimization,
                  C. Bannwarth                     DFT functionals, gCP, sTDA/sTD-DF
   Ed Valeev, F. Pavosevic, A. Kumar             : LibInt (2-el integral package), F12 methods
   Garnet Chan, S. Sharma, J. Yang, R. Olivares  : DMRG
   Ulf Ekstrom                                   : XCFun DFT Library
   Mihaly Kallay                                 : mrcc  (arbitrary order and MRCC methods)
   Andreas Klamt, Michael Diedenhofen            : otool_cosmo (COSMO solvation model)
   Jiri Pittner, Ondrej Demel                    : Mk-CCSD
   Frank Weinhold                                : gennbo (NPA and NBO analysis)
   Christopher J. Cramer and Donald G. Truhlar   : smd solvation model
   Lars Goerigk                                  : TD-DFT with DH, B97 family of functionals
   V. Asgeirsson, H. Jonsson                     : NEB implementation
   FAccTs GmbH                                   : IRC, NEB, NEB-TS, Multilevel, MM, QM/MM, CI optimization
   S Lehtola, MJT Oliveira, MAL Marques          : LibXC Library


 Your calculation uses the libint2 library for the computation of 2-el integrals
 For citations please refer to: http://libint.valeyev.net

 Your ORCA version has been built with support for libXC version: 4.2.3
 For citations please refer to: https://tddft.org/programs/libxc/

 This ORCA versions uses:
   CBLAS   interface :  Fast vector & matrix operations
   LAPACKE interface :  Fast linear algebra routines
   SCALAPACK package :  Parallel linear algebra routines


Your calculation utilizes the atom-pairwise dispersion correction
with the Becke-Johnson damping scheme (D3BJ)
Cite in your paper:
S.Grimme, S.Ehrlich, L.Goerigk, J Comput Chem, (2011), 32, 1456–1465 
S.Grimme, J.Antony, S.Ehrlich and H.Krieg, J.Chem.Phys., 132, (2010), 154104 
   

----- Orbital basis set information -----
Your calculation utilizes the basis: aug-cc-pVTZ 
    H, B-Ne : Obtained from the ccRepo (grant-hill.group.shef.ac.uk/ccrepo) Feb. 2017
              R. A. Kendall, T. H. Dunning, Jr., R. J. Harrison, J. Chem. Phys. 96, 6796 (1992)
         He : Obtained from the ccRepo (grant-hill.group.shef.ac.uk/ccrepo) Feb. 2017
              D. E. Woon, T. H. Dunning, Jr., J. Chem. Phys. 100, 2975 (1994)
  Li-Be, Na : Obtained from the ccRepo (grant-hill.group.shef.ac.uk/ccrepo) Feb. 2017
              B. P. Prascher, D. E. Woon, K. A. Peterson, T. H. Dunning, Jr., A. K. Wilson, Theor. Chem. Acc. 128, 69 (2011)
         Mg : Obtained from the Peterson Research Group Website (tyr0.chem.wsu.edu/~kipeters) Feb. 2017
              B. P. Prascher, D. E. Woon, K. A. Peterson, T. H. Dunning, Jr., A. K. Wilson, Theor. Chem. Acc. 128, 69 (2011)
      Al-Ar : Obtained from the ccRepo (grant-hill.group.shef.ac.uk/ccrepo) Feb. 2017
              D. E. Woon, T. H. Dunning, Jr., J. Chem. Phys. 98, 1358 (1993)
      Sc-Zn : Obtained from the ccRepo (grant-hill.group.shef.ac.uk/ccrepo) Feb. 2017
              N. B. Balabanov, K. A. Peterson, J. Chem. Phys. 123, 064107 (2005)
              N. B. Balabanov, K. A. Peterson, J. Chem. Phys. 125, 074110 (2006)
      Ga-Kr : Obtained from the ccRepo (grant-hill.group.shef.ac.uk/ccrepo) Feb. 2017
              A. K. Wilson, D. E. Woon, K. A. Peterson, T. H. Dunning, Jr., J. Chem. Phys. 110, 7667 (1999)
     Ag, Au : Obtained from the Peterson Research Group Website (tyr0.chem.wsu.edu/~kipeters) Feb. 2017
              K. A. Peterson, C. Puzzarini, Theor. Chem. Acc. 114, 283 (2005)

----- AuxJK basis set information -----
Your calculation utilizes the auxiliary basis: def2/JK
   H-Ba, Hf-Rn: F. Weigend, J. Comput. Chem. 29, 167 (2008).

================================================================================
                                        WARNINGS
                       Please study these warnings very carefully!
================================================================================


WARNING: your system is open-shell and RHF/RKS was chosen
  ===> : WILL SWITCH to UHF/UKS


INFO   : the flag for use of LIBINT has been found!

================================================================================
                                       INPUT FILE
================================================================================
NAME = 30_MnS.in
|  1> #
|  2> # 30_MnS tpssh/aug-cc-pvtz
|  3> #
|  4> ! tpssh d3bj aug-cc-pvtz def2/jk grid4 nofinalgrid
|  5> 
|  6> *xyz 0 6
|  7>   Mn  0.00000000000000      0.00000000000000     -0.02260858554296
|  8>   S   0.00000000000000      0.00000000000000      2.02260858554296
|  9> *
| 10> 
| 11> %pal
| 12> nprocs 24
| 13> end
| 14> 
| 15> 
| 16>                          ****END OF INPUT****
================================================================================

                       ****************************
                       * Single Point Calculation *
                       ****************************

---------------------------------
CARTESIAN COORDINATES (ANGSTROEM)
---------------------------------
  Mn     0.000000    0.000000   -0.022609
  S      0.000000    0.000000    2.022609

----------------------------
CARTESIAN COORDINATES (A.U.)
----------------------------
  NO LB      ZA    FRAG     MASS         X           Y           Z
   0 Mn   25.0000    0    54.940    0.000000    0.000000   -0.042724
   1 S    16.0000    0    32.060    0.000000    0.000000    3.822176

--------------------------------
INTERNAL COORDINATES (ANGSTROEM)
--------------------------------
 Mn     0   0   0     0.000000000000     0.00000000     0.00000000
 S      1   0   0     2.045217171086     0.00000000     0.00000000

---------------------------
INTERNAL COORDINATES (A.U.)
---------------------------
 Mn     0   0   0     0.000000000000     0.00000000     0.00000000
 S      1   0   0     3.864900337746     0.00000000     0.00000000

---------------------
BASIS SET INFORMATION
---------------------
There are 2 groups of distinct atoms

 Group   1 Type Mn  : 116s77p23d3f2g contracted to 8s7p5d3f2g pattern {19191919191911/151515151511/77711/111/11}
 Group   2 Type S   : 42s17p3d2f contracted to 6s5p3d2f pattern {131313111/77111/111/11}

Atom   0Mn   basis set group =>   1
Atom   1S    basis set group =>   2
----------------------------------
AUXILIARY/JK BASIS SET INFORMATION
----------------------------------
There are 2 groups of distinct atoms

 Group   1 Type Mn  : 19s14p12d10f7g3h1i contracted to 16s13p11d9f5g3h1i pattern {4111111111111111/2111111111111/21111111111/211111111/31111/111/1}
 Group   2 Type S   : 16s12p10d4f1g contracted to 13s11p9d4f1g pattern {4111111111111/21111111111/211111111/1111/1}

Atom   0Mn   basis set group =>   1
Atom   1S    basis set group =>   2


           ************************************************************
           *        Program running with 24 parallel MPI-processes    *
           *              working on a common directory               *
           ************************************************************
------------------------------------------------------------------------------
                           ORCA GTO INTEGRAL CALCULATION
------------------------------------------------------------------------------

                         BASIS SET STATISTICS AND STARTUP INFO

 # of primitive gaussian shells          ...  285
 # of primitive gaussian functions       ...  623
 # of contracted shells                  ...   41
 # of contracted basis functions         ...  143
 Highest angular momentum                ...    4
 Maximum contraction depth               ...   19
 Integral package used                   ... LIBINT
 Integral threshhold            Thresh   ...  1.000e-10
 Primitive cut-off              TCut     ...  1.000e-11


------------------------------ INTEGRAL EVALUATION ----------------------------


 * One electron integrals 
 Pre-screening matrix                    ... done
 Shell pair data                         ... done (   0.001 sec)



           ************************************************************
           *        Program running with 24 parallel MPI-processes    *
           *              working on a common directory               *
           ************************************************************
-------------------------------------------------------------------------------
                                 ORCA SCF
-------------------------------------------------------------------------------

------------
SCF SETTINGS
------------
Hamiltonian:
 Density Functional     Method          .... DFT(GTOs)
 Exchange Functional    Exchange        .... TPSS
 Correlation Functional Correlation     .... TPSS
 LDA part of GGA corr.  LDAOpt          .... PW91-LDA
 Gradients option       PostSCFGGA      .... off
 Hybrid DFT is turned on
   Fraction HF Exchange ScalHFX         ....  0.100000
   Scaling of DF-GGA-X  ScalDFX         ....  0.900000
   Scaling of DF-GGA-C  ScalDFC         ....  1.000000
   Scaling of DF-LDA-C  ScalLDAC        ....  1.000000
   Perturbative correction              ....  0.000000
   Density functional embedding theory  .... OFF
   NL short-range parameter             ....  5.200000


General Settings:
 Integral files         IntName         .... 30_MnS
 Hartree-Fock type      HFTyp           .... UHF
 Total Charge           Charge          ....    0
 Multiplicity           Mult            ....    6
 Number of Electrons    NEL             ....   41
 Basis Dimension        Dim             ....  143
 Nuclear Repulsion      ENuc            ....    103.4955535835 Eh

Convergence Acceleration:
 DIIS                   CNVDIIS         .... on
   Start iteration      DIISMaxIt       ....    12
   Startup error        DIISStart       ....  0.200000
   # of expansion vecs  DIISMaxEq       ....     5
   Bias factor          DIISBfac        ....   1.050
   Max. coefficient     DIISMaxC        ....  10.000
 Newton-Raphson         CNVNR           .... off
 SOSCF                  CNVSOSCF        .... off
 Level Shifting         CNVShift        .... on
   Level shift para.    LevelShift      ....    0.2500
   Turn off err/grad.   ShiftErr        ....    0.0010
 Zerner damping         CNVZerner       .... off
 Static damping         CNVDamp         .... on
   Fraction old density DampFac         ....    0.7000
   Max. Damping (<1)    DampMax         ....    0.9800
   Min. Damping (>=0)   DampMin         ....    0.0000
   Turn off err/grad.   DampErr         ....    0.1000
 Fernandez-Rico         CNVRico         .... off

SCF Procedure:
 Maximum # iterations   MaxIter         ....   125
 SCF integral mode      SCFMode         .... Direct
   Integral package                     .... LIBINT
 Reset frequency        DirectResetFreq ....    20
 Integral Threshold     Thresh          ....  1.000e-10 Eh
 Primitive CutOff       TCut            ....  1.000e-11 Eh

Convergence Tolerance:
 Convergence Check Mode ConvCheckMode   .... Total+1el-Energy
 Convergence forced     ConvForced      .... 0
 Energy Change          TolE            ....  1.000e-06 Eh
 1-El. energy change                    ....  1.000e-03 Eh
 DIIS Error             TolErr          ....  1.000e-06


Diagonalization of the overlap matrix:
Smallest eigenvalue                        ... 6.120e-05
Time for diagonalization                   ...    0.005 sec
Threshold for overlap eigenvalues          ... 1.000e-08
Number of eigenvalues below threshold      ... 0
Time for construction of square roots      ...    0.002 sec
Total time needed                          ...    0.007 sec

-------------------
DFT GRID GENERATION
-------------------

General Integration Accuracy     IntAcc      ...  4.670
Radial Grid Type                 RadialGrid  ... Gauss-Chebyshev
Angular Grid (max. acc.)         AngularGrid ... Lebedev-302
Angular grid pruning method      GridPruning ... 3 (G Style)
Weight generation scheme         WeightScheme... Becke
Basis function cutoff            BFCut       ...    1.0000e-10
Integration weight cutoff        WCut        ...    1.0000e-14
Grids for H and He will be reduced by one unit

# of grid points (after initial pruning)     ...  16510 (   0.0 sec)
# of grid points (after weights+screening)   ...  16481 (   0.0 sec)
nearest neighbour list constructed           ...    0.0 sec
Grid point re-assignment to atoms done       ...    0.0 sec
Grid point division into batches done        ...    0.1 sec
Reduced shell lists constructed in    0.1 sec

Total number of grid points                  ...    16481
Total number of batches                      ...      259
Average number of points per batch           ...       63
Average number of grid points per atom       ...     8240
Average number of shells per batch           ...    15.83 (38.62%)
Average number of basis functions per batch  ...    39.83 (27.86%)
Average number of large shells per batch     ...     8.67 (54.74%)
Average number of large basis fcns per batch ...    21.50 (53.97%)
Maximum spatial batch extension              ...  24.49, 24.19, 17.58 au
Average spatial batch extension              ...   0.84,  0.83,  0.64 au

Time for grid setup =    0.150 sec

------------------------------
INITIAL GUESS: MODEL POTENTIAL
------------------------------
Loading Hartree-Fock densities                     ... done
Calculating cut-offs                               ... done
Setting up the integral package                    ... done
Initializing the effective Hamiltonian             ... done
Starting the Coulomb interaction                   ... done (   0.0 sec)
Reading the grid                                   ... done
Mapping shells                                     ... done
Starting the XC term evaluation                    ... done (   0.0 sec)
  promolecular density results
     # of electrons  =     40.999994885
     EX              =    -75.480000248
     EC              =     -1.693816944
     EX+EC           =    -77.173817192
Transforming the Hamiltonian                       ... done (   0.0 sec)
Diagonalizing the Hamiltonian                      ... done (   0.0 sec)
Back transforming the eigenvectors                 ... done (   0.0 sec)
Now organizing SCF variables                       ... done
                      ------------------
                      INITIAL GUESS DONE (   0.2 sec)
                      ------------------
--------------
SCF ITERATIONS
--------------
ITER       Energy         Delta-E        Max-DP      RMS-DP      [F,P]     Damp
               ***  Starting incremental Fock matrix formation  ***
  0  -1549.1727197292   0.000000000000 0.06609002  0.00112875  0.1325152 0.7000
  1  -1549.2200752264  -0.047355497213 0.03633946  0.00096507  0.0517762 0.7000
                               ***Turning on DIIS***
  2  -1549.2332235322  -0.013148305819 0.07915286  0.00189770  0.0462057 0.0000
  3  -1549.2586470822  -0.025423549984 0.06834085  0.00136632  0.0920234 0.0000
  4  -1549.2725394109  -0.013892328637 0.01199049  0.00027329  0.0401849 0.0000
  5  -1549.2767095945  -0.004170183640 0.01225320  0.00025375  0.0205752 0.0000
  6  -1549.2783581556  -0.001648561044 0.00995131  0.00015495  0.0104998 0.0000
  7  -1549.2790088642  -0.000650708630 0.00518690  0.00009750  0.0024041 0.0000
  8  -1549.2791905693  -0.000181705071 0.00449606  0.00005585  0.0027867 0.0000
  9  -1549.2792917433  -0.000101174037 0.00351959  0.00005239  0.0014060 0.0000
 10  -1549.2793505100  -0.000058766717 0.00277416  0.00003762  0.0010859 0.0000
 11  -1549.2793795471  -0.000029037114 0.00431174  0.00004798  0.0005418 0.0000
 12  -1549.2793982556  -0.000018708483 0.00063263  0.00001224  0.0010690 0.0000
 13  -1549.2794018214  -0.000003565797 0.00088193  0.00001075  0.0002790 0.0000
 14  -1549.2794025219  -0.000000700546 0.00022857  0.00000321  0.0002086 0.0000
                 **** Energy Check signals convergence ****

               *****************************************************
               *                     SUCCESS                       *
               *           SCF CONVERGED AFTER  15 CYCLES          *
               *****************************************************


----------------
TOTAL SCF ENERGY
----------------

Total Energy       :        -1549.27940257 Eh          -42158.03582 eV

Components:
Nuclear Repulsion  :          103.49555358 Eh            2816.25719 eV
Electronic Energy  :        -1652.77495616 Eh          -44974.29301 eV
One Electron Energy:        -2343.40088621 Eh          -63767.17997 eV
Two Electron Energy:          690.62593006 Eh           18792.88697 eV

Virial components:
Potential Energy   :        -3095.86537098 Eh          -84242.77956 eV
Kinetic Energy     :         1546.58596840 Eh           42084.74375 eV
Virial Ratio       :            2.00174154


DFT components:
N(Alpha)           :       23.000002639018 electrons
N(Beta)            :       18.000002477438 electrons
N(Total)           :       41.000005116456 electrons
E(X)               :      -68.573942335193 Eh       
E(C)               :       -1.691296583843 Eh       
E(XC)              :      -70.265238919035 Eh       
DFET-embed. en.    :        0.000000000000 Eh       

---------------
SCF CONVERGENCE
---------------

  Last Energy change         ...   -5.1673e-08  Tolerance :   1.0000e-06
  Last MAX-Density change    ...    2.8562e-04  Tolerance :   1.0000e-05
  Last RMS-Density change    ...    3.0232e-06  Tolerance :   1.0000e-06
  Last DIIS Error            ...    1.4187e-04  Tolerance :   1.0000e-06

             **** THE GBW FILE WAS UPDATED (30_MnS.gbw) ****
             **** DENSITY FILE WAS UPDATED (30_MnS.scfp) ****
             **** ENERGY FILE WAS UPDATED (30_MnS.en.tmp) ****
----------------------
UHF SPIN CONTAMINATION
----------------------

Warning: in a DFT calculation there is little theoretical justification to 
         calculate <S**2> as in Hartree-Fock theory. We will do it anyways
         but you should keep in mind that the values have only limited relevance

Expectation value of <S**2>     :     8.831999
Ideal value S*(S+1) for S=2.5   :     8.750000
Deviation                       :     0.081999

             **** THE GBW FILE WAS UPDATED (30_MnS.gbw) ****
             **** DENSITY FILE WAS UPDATED (30_MnS.scfp) ****
----------------
ORBITAL ENERGIES
----------------
                 SPIN UP ORBITALS
  NO   OCC          E(Eh)            E(eV) 
   0   1.0000    -235.278716     -6402.2593 
   1   1.0000     -88.690481     -2413.3907 
   2   1.0000     -27.213616      -740.5201 
   3   1.0000     -23.264149      -633.0497 
   4   1.0000     -23.264149      -633.0497 
   5   1.0000     -23.257882      -632.8792 
   6   1.0000      -7.815962      -212.6831 
   7   1.0000      -5.763648      -156.8368 
   8   1.0000      -5.762962      -156.8182 
   9   1.0000      -5.762962      -156.8182 
  10   1.0000      -3.235396       -88.0396 
  11   1.0000      -2.104610       -57.2694 
  12   1.0000      -2.104610       -57.2694 
  13   1.0000      -2.094849       -57.0037 
  14   1.0000      -0.608244       -16.5512 
  15   1.0000      -0.327486        -8.9114 
  16   1.0000      -0.327486        -8.9114 
  17   1.0000      -0.327095        -8.9007 
  18   1.0000      -0.319769        -8.7014 
  19   1.0000      -0.319769        -8.7014 
  20   1.0000      -0.243086        -6.6147 
  21   1.0000      -0.204108        -5.5541 
  22   1.0000      -0.204108        -5.5541 
  23   0.0000      -0.127079        -3.4580 
  24   0.0000      -0.034606        -0.9417 
  25   0.0000      -0.034606        -0.9417 
  26   0.0000       0.000408         0.0111 
  27   0.0000       0.008106         0.2206 
  28   0.0000       0.025339         0.6895 
  29   0.0000       0.025339         0.6895 
  30   0.0000       0.046975         1.2783 
  31   0.0000       0.046976         1.2783 
  32   0.0000       0.051312         1.3963 
  33   0.0000       0.059269         1.6128 
  34   0.0000       0.059269         1.6128 
  35   0.0000       0.069088         1.8800 
  36   0.0000       0.088745         2.4149 
  37   0.0000       0.106478         2.8974 
  38   0.0000       0.106478         2.8974 
  39   0.0000       0.114035         3.1031 
  40   0.0000       0.153314         4.1719 
  41   0.0000       0.153314         4.1719 
  42   0.0000       0.195987         5.3331 
  43   0.0000       0.195988         5.3331 
  44   0.0000       0.197486         5.3739 
  45   0.0000       0.227839         6.1998 
  46   0.0000       0.229124         6.2348 
  47   0.0000       0.229124         6.2348 
  48   0.0000       0.239327         6.5124 
  49   0.0000       0.239328         6.5124 
  50   0.0000       0.294784         8.0215 
  51   0.0000       0.315261         8.5787 
  52   0.0000       0.315261         8.5787 
  53   0.0000       0.397314        10.8115 
  54   0.0000       0.442477        12.0404 
  55   0.0000       0.519464        14.1353 
  56   0.0000       0.519464        14.1353 
  57   0.0000       0.593469        16.1491 
  58   0.0000       0.593474        16.1492 
  59   0.0000       0.598345        16.2818 
  60   0.0000       0.603110        16.4115 
  61   0.0000       0.603110        16.4115 
  62   0.0000       0.608115        16.5477 
  63   0.0000       0.608115        16.5477 
  64   0.0000       0.671857        18.2821 
  65   0.0000       0.671859        18.2822 
  66   0.0000       0.679333        18.4856 
  67   0.0000       0.679333        18.4856 
  68   0.0000       0.722845        19.6696 
  69   0.0000       0.771863        21.0035 
  70   0.0000       0.777304        21.1515 
  71   0.0000       0.777304        21.1515 
  72   0.0000       0.783046        21.3078 
  73   0.0000       0.783046        21.3078 
  74   0.0000       0.849172        23.1071 
  75   0.0000       0.849174        23.1072 
  76   0.0000       0.893772        24.3208 
  77   0.0000       0.926119        25.2010 
  78   0.0000       0.926119        25.2010 
  79   0.0000       0.978193        26.6180 
  80   0.0000       1.007831        27.4245 
  81   0.0000       1.007832        27.4245 
  82   0.0000       1.267168        34.4814 
  83   0.0000       1.359210        36.9860 
  84   0.0000       1.359210        36.9860 
  85   0.0000       1.761114        47.9223 
  86   0.0000       1.809503        49.2391 
  87   0.0000       1.809620        49.2423 
  88   0.0000       1.926845        52.4321 
  89   0.0000       1.926845        52.4321 
  90   0.0000       2.007170        54.6179 
  91   0.0000       2.007170        54.6179 
  92   0.0000       2.050576        55.7990 
  93   0.0000       2.063343        56.1464 
  94   0.0000       2.063350        56.1466 
  95   0.0000       2.098116        57.0926 
  96   0.0000       2.098116        57.0926 
  97   0.0000       2.115975        57.5786 
  98   0.0000       2.156112        58.6708 
  99   0.0000       2.156112        58.6708 
 100   0.0000       2.156859        58.6911 
 101   0.0000       2.156859        58.6911 
 102   0.0000       2.247661        61.1620 
 103   0.0000       2.247672        61.1623 
 104   0.0000       2.294352        62.4325 
 105   0.0000       2.424779        65.9816 
 106   0.0000       2.424779        65.9816 
 107   0.0000       2.511310        68.3362 
 108   0.0000       2.595417        70.6249 
 109   0.0000       2.595460        70.6261 
 110   0.0000       2.610689        71.0405 
 111   0.0000       2.610689        71.0405 
 112   0.0000       2.614753        71.1511 
 113   0.0000       2.614753        71.1511 
 114   0.0000       2.752571        74.9013 
 115   0.0000       2.752574        74.9013 
 116   0.0000       2.824593        76.8611 
 117   0.0000       3.042216        82.7829 
 118   0.0000       3.136749        85.3553 
 119   0.0000       3.136749        85.3553 
 120   0.0000       3.565774        97.0297 
 121   0.0000       3.781646       102.9038 
 122   0.0000       3.781666       102.9044 
 123   0.0000       4.169808       113.4662 
 124   0.0000       4.169808       113.4662 
 125   0.0000       5.120702       139.3414 
 126   0.0000       5.309390       144.4758 
 127   0.0000       7.321083       199.2168 
 128   0.0000       7.321083       199.2168 
 129   0.0000       7.354016       200.1129 
 130   0.0000       7.354036       200.1135 
 131   0.0000       7.413073       201.7200 
 132   0.0000       7.413073       201.7200 
 133   0.0000       7.650561       208.1823 
 134   0.0000       7.880615       214.4424 
 135   0.0000       7.880924       214.4508 
 136   0.0000       7.894373       214.8168 
 137   0.0000       7.894373       214.8168 
 138   0.0000       7.951252       216.3646 
 139   0.0000       7.951316       216.3663 
 140   0.0000       8.112584       220.7546 
 141   0.0000       8.112584       220.7546 
 142   0.0000       8.246765       224.4059 

                 SPIN DOWN ORBITALS
  NO   OCC          E(Eh)            E(eV) 
   0   1.0000    -235.277288     -6402.2205 
   1   1.0000     -88.690213     -2413.3834 
   2   1.0000     -27.145078      -738.6551 
   3   1.0000     -23.205351      -631.4497 
   4   1.0000     -23.204451      -631.4252 
   5   1.0000     -23.204451      -631.4252 
   6   1.0000      -7.815698      -212.6760 
   7   1.0000      -5.766919      -156.9258 
   8   1.0000      -5.760783      -156.7589 
   9   1.0000      -5.760783      -156.7589 
  10   1.0000      -3.049972       -82.9940 
  11   1.0000      -1.913614       -52.0721 
  12   1.0000      -1.906112       -51.8680 
  13   1.0000      -1.906112       -51.8680 
  14   1.0000      -0.604323       -16.4445 
  15   1.0000      -0.269600        -7.3362 
  16   1.0000      -0.225402        -6.1335 
  17   1.0000      -0.225402        -6.1335 
  18   0.0000      -0.115487        -3.1426 
  19   0.0000      -0.086944        -2.3659 
  20   0.0000      -0.086944        -2.3659 
  21   0.0000      -0.084568        -2.3012 
  22   0.0000      -0.084568        -2.3012 
  23   0.0000      -0.071444        -1.9441 
  24   0.0000      -0.000755        -0.0205 
  25   0.0000      -0.000755        -0.0205 
  26   0.0000       0.012806         0.3485 
  27   0.0000       0.016675         0.4537 
  28   0.0000       0.038251         1.0409 
  29   0.0000       0.038251         1.0409 
  30   0.0000       0.062616         1.7039 
  31   0.0000       0.062620         1.7040 
  32   0.0000       0.062623         1.7041 
  33   0.0000       0.072086         1.9616 
  34   0.0000       0.072086         1.9616 
  35   0.0000       0.077771         2.1162 
  36   0.0000       0.110231         2.9995 
  37   0.0000       0.112715         3.0671 
  38   0.0000       0.112715         3.0671 
  39   0.0000       0.123648         3.3646 
  40   0.0000       0.180880         4.9220 
  41   0.0000       0.180881         4.9220 
  42   0.0000       0.215126         5.8539 
  43   0.0000       0.215127         5.8539 
  44   0.0000       0.222226         6.0471 
  45   0.0000       0.237502         6.4628 
  46   0.0000       0.256855         6.9894 
  47   0.0000       0.256855         6.9894 
  48   0.0000       0.265614         7.2277 
  49   0.0000       0.265619         7.2279 
  50   0.0000       0.307263         8.3611 
  51   0.0000       0.324809         8.8385 
  52   0.0000       0.324809         8.8385 
  53   0.0000       0.413505        11.2520 
  54   0.0000       0.481646        13.1063 
  55   0.0000       0.528885        14.3917 
  56   0.0000       0.528885        14.3917 
  57   0.0000       0.604465        16.4483 
  58   0.0000       0.604468        16.4484 
  59   0.0000       0.612078        16.6555 
  60   0.0000       0.612078        16.6555 
  61   0.0000       0.615762        16.7557 
  62   0.0000       0.643385        17.5074 
  63   0.0000       0.643385        17.5074 
  64   0.0000       0.693917        18.8824 
  65   0.0000       0.693919        18.8825 
  66   0.0000       0.726581        19.7713 
  67   0.0000       0.733405        19.9570 
  68   0.0000       0.733405        19.9570 
  69   0.0000       0.796509        21.6741 
  70   0.0000       0.796509        21.6741 
  71   0.0000       0.817264        22.2389 
  72   0.0000       0.839814        22.8525 
  73   0.0000       0.839814        22.8525 
  74   0.0000       0.909955        24.7611 
  75   0.0000       0.909958        24.7612 
  76   0.0000       0.919526        25.0216 
  77   0.0000       0.944407        25.6986 
  78   0.0000       0.944407        25.6986 
  79   0.0000       0.991070        26.9684 
  80   0.0000       1.060890        28.8683 
  81   0.0000       1.060894        28.8684 
  82   0.0000       1.300044        35.3760 
  83   0.0000       1.403925        38.2028 
  84   0.0000       1.403925        38.2028 
  85   0.0000       1.795066        48.8462 
  86   0.0000       1.819257        49.5045 
  87   0.0000       1.819377        49.5078 
  88   0.0000       1.934562        52.6421 
  89   0.0000       1.934562        52.6421 
  90   0.0000       2.040586        55.5272 
  91   0.0000       2.040586        55.5272 
  92   0.0000       2.064301        56.1725 
  93   0.0000       2.096276        57.0426 
  94   0.0000       2.096294        57.0430 
  95   0.0000       2.130305        57.9685 
  96   0.0000       2.145508        58.3822 
  97   0.0000       2.145508        58.3822 
  98   0.0000       2.169680        59.0400 
  99   0.0000       2.169680        59.0400 
 100   0.0000       2.239791        60.9478 
 101   0.0000       2.239791        60.9478 
 102   0.0000       2.323019        63.2126 
 103   0.0000       2.323035        63.2130 
 104   0.0000       2.355844        64.1058 
 105   0.0000       2.493828        67.8605 
 106   0.0000       2.493828        67.8605 
 107   0.0000       2.627244        71.4909 
 108   0.0000       2.681962        72.9799 
 109   0.0000       2.681984        72.9805 
 110   0.0000       2.688858        73.1676 
 111   0.0000       2.688858        73.1676 
 112   0.0000       2.729600        74.2762 
 113   0.0000       2.729600        74.2762 
 114   0.0000       2.817481        76.6676 
 115   0.0000       2.817500        76.6681 
 116   0.0000       2.899138        78.8895 
 117   0.0000       3.100500        84.3689 
 118   0.0000       3.196134        86.9712 
 119   0.0000       3.196134        86.9712 
 120   0.0000       3.639864        99.0457 
 121   0.0000       3.925132       106.8083 
 122   0.0000       3.925153       106.8088 
 123   0.0000       4.292243       116.7979 
 124   0.0000       4.292243       116.7979 
 125   0.0000       5.224611       142.1689 
 126   0.0000       5.318633       144.7274 
 127   0.0000       7.526887       204.8170 
 128   0.0000       7.526887       204.8170 
 129   0.0000       7.554177       205.5596 
 130   0.0000       7.554179       205.5597 
 131   0.0000       7.607707       207.0162 
 132   0.0000       7.607707       207.0162 
 133   0.0000       7.830775       213.0862 
 134   0.0000       8.020972       218.2618 
 135   0.0000       8.021220       218.2685 
 136   0.0000       8.028944       218.4787 
 137   0.0000       8.028944       218.4787 
 138   0.0000       8.081780       219.9164 
 139   0.0000       8.081854       219.9184 
 140   0.0000       8.240057       224.2233 
 141   0.0000       8.240057       224.2233 
 142   0.0000       8.376481       227.9356 

                    ********************************
                    * MULLIKEN POPULATION ANALYSIS *
                    ********************************

--------------------------------------------
MULLIKEN ATOMIC CHARGES AND SPIN POPULATIONS
--------------------------------------------
   0 Mn:    0.357447    4.849849
   1 S :   -0.357447    0.150151
Sum of atomic charges         :   -0.0000000
Sum of atomic spin populations:    5.0000000

-----------------------------------------------------
MULLIKEN REDUCED ORBITAL CHARGES AND SPIN POPULATIONS
-----------------------------------------------------
CHARGE
  0 Mns       :     6.774422  s :     6.774422
      pz      :     4.081564  p :    12.341715
      px      :     4.130076
      py      :     4.130076
      dz2     :     1.080414  d :     5.502661
      dxz     :     1.212079
      dyz     :     1.212079
      dx2y2   :     0.999044
      dxy     :     0.999044
      f0      :     0.004428  f :     0.022201
      f+1     :     0.008796
      f-1     :     0.008796
      f+2     :     0.000090
      f-2     :     0.000090
      f+3     :     0.000000
      f-3     :     0.000000
      g0      :     0.000375  g :     0.001553
      g+1     :     0.000588
      g-1     :     0.000588
      g+2     :     0.000001
      g-2     :     0.000001
      g+3     :     0.000000
      g-3     :     0.000000
      g+4     :     0.000000
      g-4     :     0.000000
  1 S s       :     5.896725  s :     5.896725
      pz      :     3.161000  p :    10.425231
      px      :     3.632116
      py      :     3.632116
      dz2     :     0.001087  d :     0.032609
      dxz     :     0.015225
      dyz     :     0.015225
      dx2y2   :     0.000536
      dxy     :     0.000536
      f0      :    -0.000014  f :     0.002882
      f+1     :     0.001119
      f-1     :     0.001119
      f+2     :     0.000329
      f-2     :     0.000329
      f+3     :     0.000000
      f-3     :     0.000000

SPIN
  0 Mns       :     0.443242  s :     0.443242
      pz      :    -0.007939  p :     0.122207
      px      :     0.065073
      py      :     0.065073
      dz2     :     0.753077  d :     4.286519
      dxz     :     0.767677
      dyz     :     0.767677
      dx2y2   :     0.999044
      dxy     :     0.999044
      f0      :    -0.000759  f :    -0.001582
      f+1     :    -0.000502
      f-1     :    -0.000502
      f+2     :     0.000090
      f-2     :     0.000090
      f+3     :    -0.000000
      f-3     :    -0.000000
      g0      :    -0.000119  g :    -0.000537
      g+1     :    -0.000209
      g-1     :    -0.000209
      g+2     :     0.000001
      g-2     :     0.000001
      g+3     :     0.000000
      g-3     :     0.000000
      g+4     :     0.000000
      g-4     :     0.000000
  1 S s       :    -0.000659  s :    -0.000659
      pz      :    -0.187487  p :     0.156629
      px      :     0.172058
      py      :     0.172058
      dz2     :     0.000388  d :    -0.003960
      dxz     :    -0.002710
      dyz     :    -0.002710
      dx2y2   :     0.000536
      dxy     :     0.000536
      f0      :     0.000257  f :    -0.001859
      f+1     :    -0.001387
      f-1     :    -0.001387
      f+2     :     0.000329
      f-2     :     0.000329
      f+3     :     0.000000
      f-3     :     0.000000


                     *******************************
                     * LOEWDIN POPULATION ANALYSIS *
                     *******************************

-------------------------------------------
LOEWDIN ATOMIC CHARGES AND SPIN POPULATIONS
-------------------------------------------
   0 Mn:    0.157799    4.747652
   1 S :   -0.157799    0.252348

----------------------------------------------------
LOEWDIN REDUCED ORBITAL CHARGES AND SPIN POPULATIONS
----------------------------------------------------
CHARGE
  0 Mns       :     6.432759  s :     6.432759
      pz      :     4.214256  p :    12.522662
      px      :     4.154203
      py      :     4.154203
      dz2     :     1.208686  d :     5.701797
      dxz     :     1.256837
      dyz     :     1.256837
      dx2y2   :     0.989719
      dxy     :     0.989719
      f0      :     0.060069  f :     0.175438
      f+1     :     0.057185
      f-1     :     0.057185
      f+2     :     0.000499
      f-2     :     0.000499
      f+3     :     0.000000
      f-3     :     0.000000
      g0      :     0.003381  g :     0.009545
      g+1     :     0.003069
      g-1     :     0.003069
      g+2     :     0.000012
      g-2     :     0.000012
      g+3     :     0.000000
      g-3     :     0.000000
      g+4     :     0.000000
      g-4     :     0.000000
  1 S s       :     5.461565  s :     5.461565
      pz      :     3.382452  p :    10.256295
      px      :     3.436921
      py      :     3.436921
      dz2     :     0.144556  d :     0.249133
      dxz     :     0.049209
      dyz     :     0.049209
      dx2y2   :     0.003079
      dxy     :     0.003079
      f0      :     0.092275  f :     0.190806
      f+1     :     0.042576
      f-1     :     0.042576
      f+2     :     0.006690
      f-2     :     0.006690
      f+3     :     0.000000
      f-3     :     0.000000

SPIN
  0 Mns       :     0.360327  s :     0.360327
      pz      :    -0.005710  p :     0.192520
      px      :     0.099115
      py      :     0.099115
      dz2     :     0.721468  d :     4.176522
      dxz     :     0.737808
      dyz     :     0.737808
      dx2y2   :     0.989719
      dxy     :     0.989719
      f0      :    -0.001037  f :     0.018103
      f+1     :     0.009070
      f-1     :     0.009070
      f+2     :     0.000499
      f-2     :     0.000499
      f+3     :    -0.000000
      f-3     :    -0.000000
      g0      :    -0.000393  g :     0.000181
      g+1     :     0.000274
      g-1     :     0.000274
      g+2     :     0.000012
      g-2     :     0.000012
      g+3     :     0.000000
      g-3     :     0.000000
      g+4     :     0.000000
      g-4     :     0.000000
  1 S s       :     0.014111  s :     0.014111
      pz      :    -0.105173  p :     0.151666
      px      :     0.128420
      py      :     0.128420
      dz2     :     0.013845  d :     0.047748
      dxz     :     0.013872
      dyz     :     0.013872
      dx2y2   :     0.003079
      dxy     :     0.003079
      f0      :     0.002562  f :     0.038823
      f+1     :     0.011441
      f-1     :     0.011441
      f+2     :     0.006690
      f-2     :     0.006690
      f+3     :     0.000000
      f-3     :     0.000000


                      *****************************
                      * MAYER POPULATION ANALYSIS *
                      *****************************

  NA   - Mulliken gross atomic population
  ZA   - Total nuclear charge
  QA   - Mulliken gross atomic charge
  VA   - Mayer's total valence
  BVA  - Mayer's bonded valence
  FA   - Mayer's free valence

  ATOM       NA         ZA         QA         VA         BVA        FA
  0 Mn    24.6426    25.0000     0.3574     6.4657     2.1836     4.2821
  1 S     16.3574    16.0000    -0.3574     2.2978     2.1836     0.1142

  Mayer bond orders larger than 0.100000
B(  0-Mn,  1-S ) :   2.1836 

-------
TIMINGS
-------

Total SCF time: 0 days 0 hours 2 min 11 sec 

Total time                  ....     131.333 sec
Sum of individual times     ....     130.980 sec  ( 99.7%)

Fock matrix formation       ....     130.605 sec  ( 99.4%)
  XC integration            ....       0.874 sec  (  0.7% of F)
    Basis function eval.    ....       0.089 sec  ( 10.2% of XC)
    Density eval.           ....       0.090 sec  ( 10.3% of XC)
    XC-Functional eval.     ....       0.022 sec  (  2.5% of XC)
    XC-Potential eval.      ....       0.253 sec  ( 28.9% of XC)
Diagonalization             ....       0.082 sec  (  0.1%)
Density matrix formation    ....       0.011 sec  (  0.0%)
Population analysis         ....       0.007 sec  (  0.0%)
Initial guess               ....       0.098 sec  (  0.1%)
Orbital Transformation      ....       0.000 sec  (  0.0%)
Orbital Orthonormalization  ....       0.000 sec  (  0.0%)
DIIS solution               ....       0.028 sec  (  0.0%)
Grid generation             ....       0.150 sec  (  0.1%)


-------------------------------------------------------------------------------
                          DFT DISPERSION CORRECTION                            
                                                                               
                              DFTD3 V3.1  Rev 1                                
                          USING Becke-Johnson damping                          
-------------------------------------------------------------------------------
The TPSSH functional is recognized
Active option DFTDOPT                   ...         4   

molecular C6(AA) [au] = 774.669145 


            DFT-D V3
 parameters
 s6 scaling factor         :     1.0000 
 a1 scaling factor         :     0.4529 
 s8 scaling factor         :     2.2382 
 a2 scaling factor         :     4.6550 
 ad hoc parameters k1-k3   :    16.0000     1.3333    -4.0000 

 Edisp/kcal,au: -1.014689300792  -0.001617010156 
 E6   /kcal   :  -0.315161656 
 E8   /kcal   :  -0.699527645 
 % E8         :  68.940082860 

-------------------------   ----------------
Dispersion correction           -0.001617010
-------------------------   ----------------


-------------------------   --------------------
FINAL SINGLE POINT ENERGY     -1549.281019583776
-------------------------   --------------------


                            ***************************************
                            *     ORCA property calculations      *
                            ***************************************

                                    ---------------------
                                    Active property flags
                                    ---------------------
   (+) Dipole Moment


------------------------------------------------------------------------------
                       ORCA ELECTRIC PROPERTIES CALCULATION
------------------------------------------------------------------------------

Dipole Moment Calculation                       ... on
Quadrupole Moment Calculation                   ... off
Polarizability Calculation                      ... off
GBWName                                         ... 30_MnS.gbw
Electron density file                           ... 30_MnS.scfp
The origin for moment calculation is the CENTER OF MASS  = ( 0.000000,  0.000000  1.381514)

-------------
DIPOLE MOMENT
-------------
                                X             Y             Z
Electronic contribution:      0.00000       0.00000      -5.72225
Nuclear contribution   :      0.00000       0.00000       3.44465
                        -----------------------------------------
Total Dipole Moment    :      0.00000       0.00000      -2.27760
                        -----------------------------------------
Magnitude (a.u.)       :      2.27760
Magnitude (Debye)      :      5.78920



--------------------
Rotational spectrum 
--------------------
 
Rotational constants in cm-1:     0.000000     0.199061     0.199061 
Rotational constants in MHz :     0.000000  5967.684062  5967.684062 

 Dipole components along the rotational axes: 
x,y,z [a.u.] :    -2.277601     0.000000     0.000000 
x,y,z [Debye]:    -5.789202     0.000000     0.000000 

 

Timings for individual modules:

Sum of individual times         ...      135.399 sec (=   2.257 min)
GTO integral calculation        ...        3.598 sec (=   0.060 min)   2.7 %
SCF iterations                  ...      131.801 sec (=   2.197 min)  97.3 %
                             ****ORCA TERMINATED NORMALLY****
TOTAL RUN TIME: 0 days 0 hours 2 minutes 16 seconds 66 msec
