
                                 *****************
                                 * O   R   C   A *
                                 *****************

           --- An Ab Initio, DFT and Semiempirical electronic structure package ---

                  #######################################################
                  #                        -***-                        #
                  #          Department of theory and spectroscopy      #
                  #               Directorship: Frank Neese             #
                  #        Max Planck Institute fuer Kohlenforschung    #
                  #                Kaiser Wilhelm Platz 1               #
                  #                 D-45470 Muelheim/Ruhr               #
                  #                      Germany                        #
                  #                                                     #
                  #                  All rights reserved                #
                  #                        -***-                        #
                  #######################################################


                         Program Version 4.2.0 -  RELEASE  -


 With contributions from (in alphabetic order):
   Daniel Aravena         : Magnetic Suceptibility
   Michael Atanasov       : Ab Initio Ligand Field Theory (pilot matlab implementation)
   Alexander A. Auer      : GIAO ZORA, VPT2
   Ute Becker             : Parallelization
   Giovanni Bistoni       : ED, misc. LED, open-shell LED, HFLED
   Martin Brehm           : Molecular dynamics
   Dmytro Bykov           : SCF Hessian
   Vijay G. Chilkuri      : MRCI spin determinant printing, contributions to CSF-ICE
   Dipayan Datta          : RHF DLPNO-CCSD density
   Achintya Kumar Dutta   : EOM-CC, STEOM-CC
   Dmitry Ganyushin       : Spin-Orbit,Spin-Spin,Magnetic field MRCI
   Miquel Garcia          : C-PCM Hessian, Gaussian charge scheme
   Yang Guo               : DLPNO-NEVPT2, CIM, IAO-localization
   Andreas Hansen         : Spin unrestricted coupled pair/coupled cluster methods
   Benjamin Helmich-Paris : CASSCF linear response (MC-RPA)
   Lee Huntington         : MR-EOM, pCC
   Robert Izsak           : Overlap fitted RIJCOSX, COSX-SCS-MP3, EOM
   Christian Kollmar      : KDIIS, OOCD, Brueckner-CCSD(T), CCSD density
   Simone Kossmann        : Meta GGA functionals, TD-DFT gradient, OOMP2, MP2 Hessian
   Martin Krupicka        : AUTO-CI
   Lucas Lang             : DCDCAS
   Dagmar Lenk            : GEPOL surface, SMD
   Dimitrios Liakos       : Extrapolation schemes; Compound Job, initial MDCI parallelization
   Dimitrios Manganas     : Further ROCIS development; embedding schemes
   Dimitrios Pantazis     : SARC Basis sets
   Taras Petrenko         : DFT Hessian,TD-DFT gradient, ASA, ECA, R-Raman, ABS, FL, XAS/XES, NRVS
   Peter Pinski           : DLPNO-MP2, DLPNO-MP2 Gradient
   Christoph Reimann      : Effective Core Potentials
   Marius Retegan         : Local ZFS, SOC
   Christoph Riplinger    : Optimizer, TS searches, QM/MM, DLPNO-CCSD(T), (RO)-DLPNO pert. Triples
   Tobias Risthaus        : Range-separated hybrids, TD-DFT gradient, RPA, STAB
   Michael Roemelt        : Original ROCIS implementation
   Masaaki Saitow         : Open-shell DLPNO-CCSD energy and density
   Barbara Sandhoefer     : DKH picture change effects
   Avijit Sen             : IP-ROCIS
   Kantharuban Sivalingam : CASSCF convergence, NEVPT2, FIC-MRCI
   Bernardo de Souza      : ESD, SOC TD-DFT
   Georgi Stoychev        : AutoAux, RI-MP2 NMR
   Willem Van den Heuvel  : Paramagnetic NMR
   Boris Wezisla          : Elementary symmetry handling
   Frank Wennmohs         : Technical directorship


 We gratefully acknowledge several colleagues who have allowed us to
 interface, adapt or use parts of their codes:
   Stefan Grimme, W. Hujo, H. Kruse,             : VdW corrections, initial TS optimization,
                  C. Bannwarth                     DFT functionals, gCP, sTDA/sTD-DF
   Ed Valeev, F. Pavosevic, A. Kumar             : LibInt (2-el integral package), F12 methods
   Garnet Chan, S. Sharma, J. Yang, R. Olivares  : DMRG
   Ulf Ekstrom                                   : XCFun DFT Library
   Mihaly Kallay                                 : mrcc  (arbitrary order and MRCC methods)
   Andreas Klamt, Michael Diedenhofen            : otool_cosmo (COSMO solvation model)
   Jiri Pittner, Ondrej Demel                    : Mk-CCSD
   Frank Weinhold                                : gennbo (NPA and NBO analysis)
   Christopher J. Cramer and Donald G. Truhlar   : smd solvation model
   Lars Goerigk                                  : TD-DFT with DH, B97 family of functionals
   V. Asgeirsson, H. Jonsson                     : NEB implementation
   FAccTs GmbH                                   : IRC, NEB, NEB-TS, Multilevel, MM, QM/MM, CI optimization
   S Lehtola, MJT Oliveira, MAL Marques          : LibXC Library


 Your calculation uses the libint2 library for the computation of 2-el integrals
 For citations please refer to: http://libint.valeyev.net

 Your ORCA version has been built with support for libXC version: 4.2.3
 For citations please refer to: https://tddft.org/programs/libxc/

 This ORCA versions uses:
   CBLAS   interface :  Fast vector & matrix operations
   LAPACKE interface :  Fast linear algebra routines
   SCALAPACK package :  Parallel linear algebra routines


Your calculation utilizes the atom-pairwise dispersion correction
with the Becke-Johnson damping scheme (D3BJ)
Cite in your paper:
S.Grimme, S.Ehrlich, L.Goerigk, J Comput Chem, (2011), 32, 1456–1465 
S.Grimme, J.Antony, S.Ehrlich and H.Krieg, J.Chem.Phys., 132, (2010), 154104 
   

----- Orbital basis set information -----
Your calculation utilizes the basis: aug-cc-pVTZ 
    H, B-Ne : Obtained from the ccRepo (grant-hill.group.shef.ac.uk/ccrepo) Feb. 2017
              R. A. Kendall, T. H. Dunning, Jr., R. J. Harrison, J. Chem. Phys. 96, 6796 (1992)
         He : Obtained from the ccRepo (grant-hill.group.shef.ac.uk/ccrepo) Feb. 2017
              D. E. Woon, T. H. Dunning, Jr., J. Chem. Phys. 100, 2975 (1994)
  Li-Be, Na : Obtained from the ccRepo (grant-hill.group.shef.ac.uk/ccrepo) Feb. 2017
              B. P. Prascher, D. E. Woon, K. A. Peterson, T. H. Dunning, Jr., A. K. Wilson, Theor. Chem. Acc. 128, 69 (2011)
         Mg : Obtained from the Peterson Research Group Website (tyr0.chem.wsu.edu/~kipeters) Feb. 2017
              B. P. Prascher, D. E. Woon, K. A. Peterson, T. H. Dunning, Jr., A. K. Wilson, Theor. Chem. Acc. 128, 69 (2011)
      Al-Ar : Obtained from the ccRepo (grant-hill.group.shef.ac.uk/ccrepo) Feb. 2017
              D. E. Woon, T. H. Dunning, Jr., J. Chem. Phys. 98, 1358 (1993)
      Sc-Zn : Obtained from the ccRepo (grant-hill.group.shef.ac.uk/ccrepo) Feb. 2017
              N. B. Balabanov, K. A. Peterson, J. Chem. Phys. 123, 064107 (2005)
              N. B. Balabanov, K. A. Peterson, J. Chem. Phys. 125, 074110 (2006)
      Ga-Kr : Obtained from the ccRepo (grant-hill.group.shef.ac.uk/ccrepo) Feb. 2017
              A. K. Wilson, D. E. Woon, K. A. Peterson, T. H. Dunning, Jr., J. Chem. Phys. 110, 7667 (1999)
     Ag, Au : Obtained from the Peterson Research Group Website (tyr0.chem.wsu.edu/~kipeters) Feb. 2017
              K. A. Peterson, C. Puzzarini, Theor. Chem. Acc. 114, 283 (2005)

----- AuxJK basis set information -----
Your calculation utilizes the auxiliary basis: def2/JK
   H-Ba, Hf-Rn: F. Weigend, J. Comput. Chem. 29, 167 (2008).

================================================================================
                                        WARNINGS
                       Please study these warnings very carefully!
================================================================================


WARNING: your system is open-shell and RHF/RKS was chosen
  ===> : WILL SWITCH to UHF/UKS


INFO   : the flag for use of LIBINT has been found!

================================================================================
                                       INPUT FILE
================================================================================
NAME = 35_FeO.in
|  1> #
|  2> # 35_FeO tpssh/aug-cc-pvtz
|  3> #
|  4> ! tpssh d3bj aug-cc-pvtz def2/jk grid4 nofinalgrid
|  5> 
|  6> *xyz 0 5
|  7>   Fe  0.00000000000000      0.00000000000000      0.19611340956582
|  8>   O   0.00000000000000      0.00000000000000      1.80388659043418
|  9> *
| 10> 
| 11> %pal
| 12> nprocs 24
| 13> end
| 14> 
| 15> 
| 16>                          ****END OF INPUT****
================================================================================

                       ****************************
                       * Single Point Calculation *
                       ****************************

---------------------------------
CARTESIAN COORDINATES (ANGSTROEM)
---------------------------------
  Fe     0.000000    0.000000    0.196113
  O      0.000000    0.000000    1.803887

----------------------------
CARTESIAN COORDINATES (A.U.)
----------------------------
  NO LB      ZA    FRAG     MASS         X           Y           Z
   0 Fe   26.0000    0    55.850    0.000000    0.000000    0.370601
   1 O     8.0000    0    15.999    0.000000    0.000000    3.408852

--------------------------------
INTERNAL COORDINATES (ANGSTROEM)
--------------------------------
 Fe     0   0   0     0.000000000000     0.00000000     0.00000000
 O      1   0   0     1.607773180868     0.00000000     0.00000000

---------------------------
INTERNAL COORDINATES (A.U.)
---------------------------
 Fe     0   0   0     0.000000000000     0.00000000     0.00000000
 O      1   0   0     3.038250997305     0.00000000     0.00000000

---------------------
BASIS SET INFORMATION
---------------------
There are 2 groups of distinct atoms

 Group   1 Type Fe  : 116s77p23d3f2g contracted to 8s7p5d3f2g pattern {19191919191911/151515151511/77711/111/11}
 Group   2 Type O   : 19s6p3d2f contracted to 5s4p3d2f pattern {88111/3111/111/11}

Atom   0Fe   basis set group =>   1
Atom   1O    basis set group =>   2
----------------------------------
AUXILIARY/JK BASIS SET INFORMATION
----------------------------------
There are 2 groups of distinct atoms

 Group   1 Type Fe  : 19s14p12d10f7g3h1i contracted to 16s13p11d9f5g3h1i pattern {4111111111111111/2111111111111/21111111111/211111111/31111/111/1}
 Group   2 Type O   : 14s10p6d2f1g contracted to 10s8p4d2f1g pattern {5111111111/31111111/3111/11/1}

Atom   0Fe   basis set group =>   1
Atom   1O    basis set group =>   2


           ************************************************************
           *        Program running with 24 parallel MPI-processes    *
           *              working on a common directory               *
           ************************************************************
------------------------------------------------------------------------------
                           ORCA GTO INTEGRAL CALCULATION
------------------------------------------------------------------------------

                         BASIS SET STATISTICS AND STARTUP INFO

 # of primitive gaussian shells          ...  251
 # of primitive gaussian functions       ...  567
 # of contracted shells                  ...   39
 # of contracted basis functions         ...  139
 Highest angular momentum                ...    4
 Maximum contraction depth               ...   19
 Integral package used                   ... LIBINT
 Integral threshhold            Thresh   ...  1.000e-10
 Primitive cut-off              TCut     ...  1.000e-11


------------------------------ INTEGRAL EVALUATION ----------------------------


 * One electron integrals 
 Pre-screening matrix                    ... done
 Shell pair data                         ... done (   0.001 sec)



           ************************************************************
           *        Program running with 24 parallel MPI-processes    *
           *              working on a common directory               *
           ************************************************************
-------------------------------------------------------------------------------
                                 ORCA SCF
-------------------------------------------------------------------------------

------------
SCF SETTINGS
------------
Hamiltonian:
 Density Functional     Method          .... DFT(GTOs)
 Exchange Functional    Exchange        .... TPSS
 Correlation Functional Correlation     .... TPSS
 LDA part of GGA corr.  LDAOpt          .... PW91-LDA
 Gradients option       PostSCFGGA      .... off
 Hybrid DFT is turned on
   Fraction HF Exchange ScalHFX         ....  0.100000
   Scaling of DF-GGA-X  ScalDFX         ....  0.900000
   Scaling of DF-GGA-C  ScalDFC         ....  1.000000
   Scaling of DF-LDA-C  ScalLDAC        ....  1.000000
   Perturbative correction              ....  0.000000
   Density functional embedding theory  .... OFF
   NL short-range parameter             ....  5.200000


General Settings:
 Integral files         IntName         .... 35_FeO
 Hartree-Fock type      HFTyp           .... UHF
 Total Charge           Charge          ....    0
 Multiplicity           Mult            ....    5
 Number of Electrons    NEL             ....   34
 Basis Dimension        Dim             ....  139
 Nuclear Repulsion      ENuc            ....     68.4604399651 Eh

Convergence Acceleration:
 DIIS                   CNVDIIS         .... on
   Start iteration      DIISMaxIt       ....    12
   Startup error        DIISStart       ....  0.200000
   # of expansion vecs  DIISMaxEq       ....     5
   Bias factor          DIISBfac        ....   1.050
   Max. coefficient     DIISMaxC        ....  10.000
 Newton-Raphson         CNVNR           .... off
 SOSCF                  CNVSOSCF        .... off
 Level Shifting         CNVShift        .... on
   Level shift para.    LevelShift      ....    0.2500
   Turn off err/grad.   ShiftErr        ....    0.0010
 Zerner damping         CNVZerner       .... off
 Static damping         CNVDamp         .... on
   Fraction old density DampFac         ....    0.7000
   Max. Damping (<1)    DampMax         ....    0.9800
   Min. Damping (>=0)   DampMin         ....    0.0000
   Turn off err/grad.   DampErr         ....    0.1000
 Fernandez-Rico         CNVRico         .... off

SCF Procedure:
 Maximum # iterations   MaxIter         ....   125
 SCF integral mode      SCFMode         .... Direct
   Integral package                     .... LIBINT
 Reset frequency        DirectResetFreq ....    20
 Integral Threshold     Thresh          ....  1.000e-10 Eh
 Primitive CutOff       TCut            ....  1.000e-11 Eh

Convergence Tolerance:
 Convergence Check Mode ConvCheckMode   .... Total+1el-Energy
 Convergence forced     ConvForced      .... 0
 Energy Change          TolE            ....  1.000e-06 Eh
 1-El. energy change                    ....  1.000e-03 Eh
 DIIS Error             TolErr          ....  1.000e-06


Diagonalization of the overlap matrix:
Smallest eigenvalue                        ... 7.094e-05
Time for diagonalization                   ...    0.004 sec
Threshold for overlap eigenvalues          ... 1.000e-08
Number of eigenvalues below threshold      ... 0
Time for construction of square roots      ...    0.002 sec
Total time needed                          ...    0.006 sec

-------------------
DFT GRID GENERATION
-------------------

General Integration Accuracy     IntAcc      ...  4.670
Radial Grid Type                 RadialGrid  ... Gauss-Chebyshev
Angular Grid (max. acc.)         AngularGrid ... Lebedev-302
Angular grid pruning method      GridPruning ... 3 (G Style)
Weight generation scheme         WeightScheme... Becke
Basis function cutoff            BFCut       ...    1.0000e-10
Integration weight cutoff        WCut        ...    1.0000e-14
Grids for H and He will be reduced by one unit

# of grid points (after initial pruning)     ...  15852 (   0.0 sec)
# of grid points (after weights+screening)   ...  15810 (   0.0 sec)
nearest neighbour list constructed           ...    0.0 sec
Grid point re-assignment to atoms done       ...    0.0 sec
Grid point division into batches done        ...    0.1 sec
Reduced shell lists constructed in    0.1 sec

Total number of grid points                  ...    15810
Total number of batches                      ...      248
Average number of points per batch           ...       63
Average number of grid points per atom       ...     7905
Average number of shells per batch           ...    14.58 (37.39%)
Average number of basis functions per batch  ...    35.25 (25.36%)
Average number of large shells per batch     ...     6.42 (44.00%)
Average number of large basis fcns per batch ...    16.42 (46.57%)
Maximum spatial batch extension              ...  28.57, 31.41, 18.17 au
Average spatial batch extension              ...   0.89,  0.95,  0.67 au

Time for grid setup =    0.157 sec

------------------------------
INITIAL GUESS: MODEL POTENTIAL
------------------------------
Loading Hartree-Fock densities                     ... done
Calculating cut-offs                               ... done
Setting up the integral package                    ... done
Initializing the effective Hamiltonian             ... done
Starting the Coulomb interaction                   ... done (   0.0 sec)
Reading the grid                                   ... done
Mapping shells                                     ... done
Starting the XC term evaluation                    ... done (   0.0 sec)
  promolecular density results
     # of electrons  =     33.999990648
     EX              =    -62.194443659
     EC              =     -1.408159603
     EX+EC           =    -63.602603261
Transforming the Hamiltonian                       ... done (   0.0 sec)
Diagonalizing the Hamiltonian                      ... done (   0.0 sec)
Back transforming the eigenvectors                 ... done (   0.0 sec)
Now organizing SCF variables                       ... done
                      ------------------
                      INITIAL GUESS DONE (   0.3 sec)
                      ------------------
--------------
SCF ITERATIONS
--------------
ITER       Energy         Delta-E        Max-DP      RMS-DP      [F,P]     Damp
               ***  Starting incremental Fock matrix formation  ***
  0  -1338.6841332482   0.000000000000 0.17811029  0.00214127  0.4633262 0.7000
  1  -1338.7681402687  -0.084007020490 0.06015820  0.00115078  0.2217972 0.7000
                               ***Turning on DIIS***
  2  -1338.8333609380  -0.065220669272 0.14071252  0.00181249  0.0735919 0.0000
  3  -1338.8478233172  -0.014462379288 0.01840175  0.00028782  0.3081723 0.7000
  4  -1338.8750893283  -0.027266011034 0.02319595  0.00027426  0.2710074 0.7000
  5  -1338.8992779928  -0.024188664474 0.02141698  0.00022842  0.2349551 0.7000
  6  -1338.9177511945  -0.018473201758 0.01752314  0.00018701  0.2013107 0.7000
  7  -1338.9315067893  -0.013755594756 0.02224275  0.00042824  0.1721396 0.7000
  8  -1338.9556228384  -0.024116049143 0.05565409  0.00082197  0.0916576 0.0000
  9  -1338.9642116884  -0.008588849979 0.01361336  0.00031299  0.0882254 0.0000
 10  -1338.9712964956  -0.007084807227 0.00935003  0.00009961  0.0434844 0.0000
 11  -1338.9732508732  -0.001954377530 0.00598322  0.00005740  0.0174567 0.0000
 12  -1338.9736088243  -0.000357951124 0.00315418  0.00003101  0.0050116 0.0000
 13  -1338.9736481524  -0.000039328143 0.00362803  0.00003046  0.0009351 0.0000
 14  -1338.9736544225  -0.000006270057 0.00018418  0.00000413  0.0015427 0.0000
 15  -1338.9736563333  -0.000001910809 0.00030522  0.00000431  0.0011561 0.0000
 16  -1338.9736584952  -0.000002161890 0.00078827  0.00000898  0.0006620 0.0000
 17  -1338.9736605068  -0.000002011583 0.00073909  0.00000606  0.0001519 0.0000
 18  -1338.9736609198  -0.000000413085 0.00031333  0.00000235  0.0001363 0.0000
 19  -1338.9736610018  -0.000000081932 0.00018650  0.00000164  0.0000380 0.0000
               *** Restarting incremental Fock matrix formation ***
                                   *** Resetting DIIS ***
 20  -1338.9736610195  -0.000000017702 0.00007366  0.00000110  0.0000488 0.0000
 21  -1338.9736610046   0.000000014842 0.00005066  0.00000080  0.0001572 0.0000
                 **** Energy Check signals convergence ****

               *****************************************************
               *                     SUCCESS                       *
               *           SCF CONVERGED AFTER  22 CYCLES          *
               *****************************************************


----------------
TOTAL SCF ENERGY
----------------

Total Energy       :        -1338.97366102 Eh          -36435.32565 eV

Components:
Nuclear Repulsion  :           68.46043997 Eh            1862.90328 eV
Electronic Energy  :        -1407.43410098 Eh          -38298.22893 eV
One Electron Energy:        -1986.78979725 Eh          -54063.29891 eV
Two Electron Energy:          579.35569627 Eh           15765.06998 eV

Virial components:
Potential Energy   :        -2675.86615682 Eh          -72814.01992 eV
Kinetic Energy     :         1336.89249580 Eh           36378.69427 eV
Virial Ratio       :            2.00155672


DFT components:
N(Alpha)           :       19.000001016005 electrons
N(Beta)            :       15.000001820594 electrons
N(Total)           :       34.000002836599 electrons
E(X)               :      -56.583323215798 Eh       
E(C)               :       -1.414933162755 Eh       
E(XC)              :      -57.998256378553 Eh       
DFET-embed. en.    :        0.000000000000 Eh       

---------------
SCF CONVERGENCE
---------------

  Last Energy change         ...   -1.5178e-08  Tolerance :   1.0000e-06
  Last MAX-Density change    ...    1.8543e-05  Tolerance :   1.0000e-05
  Last RMS-Density change    ...    2.3057e-07  Tolerance :   1.0000e-06
  Last DIIS Error            ...    4.8362e-05  Tolerance :   1.0000e-06

             **** THE GBW FILE WAS UPDATED (35_FeO.gbw) ****
             **** DENSITY FILE WAS UPDATED (35_FeO.scfp) ****
             **** ENERGY FILE WAS UPDATED (35_FeO.en.tmp) ****
----------------------
UHF SPIN CONTAMINATION
----------------------

Warning: in a DFT calculation there is little theoretical justification to 
         calculate <S**2> as in Hartree-Fock theory. We will do it anyways
         but you should keep in mind that the values have only limited relevance

Expectation value of <S**2>     :     6.031662
Ideal value S*(S+1) for S=2.0   :     6.000000
Deviation                       :     0.031662

             **** THE GBW FILE WAS UPDATED (35_FeO.gbw) ****
             **** DENSITY FILE WAS UPDATED (35_FeO.scfp) ****
----------------
ORBITAL ENERGIES
----------------
                 SPIN UP ORBITALS
  NO   OCC          E(Eh)            E(eV) 
   0   1.0000    -255.854512     -6962.1552 
   1   1.0000     -29.897952      -813.5646 
   2   1.0000     -25.743418      -700.5140 
   3   1.0000     -25.723226      -699.9646 
   4   1.0000     -25.723226      -699.9646 
   5   1.0000     -19.028783      -517.7995 
   6   1.0000      -3.477275       -94.6215 
   7   1.0000      -2.284350       -62.1603 
   8   1.0000      -2.237213       -60.8777 
   9   1.0000      -2.237213       -60.8777 
  10   1.0000      -0.857765       -23.3410 
  11   1.0000      -0.355075        -9.6621 
  12   1.0000      -0.354710        -9.6522 
  13   1.0000      -0.354710        -9.6522 
  14   1.0000      -0.300642        -8.1809 
  15   1.0000      -0.260060        -7.0766 
  16   1.0000      -0.227824        -6.1994 
  17   1.0000      -0.223859        -6.0915 
  18   1.0000      -0.223859        -6.0915 
  19   0.0000      -0.116358        -3.1663 
  20   0.0000      -0.021571        -0.5870 
  21   0.0000      -0.021571        -0.5870 
  22   0.0000       0.004461         0.1214 
  23   0.0000       0.013340         0.3630 
  24   0.0000       0.035495         0.9659 
  25   0.0000       0.035496         0.9659 
  26   0.0000       0.060279         1.6403 
  27   0.0000       0.060907         1.6574 
  28   0.0000       0.061325         1.6687 
  29   0.0000       0.065457         1.7812 
  30   0.0000       0.065457         1.7812 
  31   0.0000       0.085640         2.3304 
  32   0.0000       0.104753         2.8505 
  33   0.0000       0.169767         4.6196 
  34   0.0000       0.169767         4.6196 
  35   0.0000       0.202773         5.5177 
  36   0.0000       0.214427         5.8349 
  37   0.0000       0.214428         5.8349 
  38   0.0000       0.239046         6.5048 
  39   0.0000       0.260705         7.0941 
  40   0.0000       0.263449         7.1688 
  41   0.0000       0.285329         7.7642 
  42   0.0000       0.285329         7.7642 
  43   0.0000       0.322193         8.7673 
  44   0.0000       0.471037        12.8176 
  45   0.0000       0.575909        15.6713 
  46   0.0000       0.576194        15.6790 
  47   0.0000       0.579864        15.7789 
  48   0.0000       0.674967        18.3668 
  49   0.0000       0.674967        18.3668 
  50   0.0000       0.729398        19.8479 
  51   0.0000       0.776732        21.1359 
  52   0.0000       0.776732        21.1359 
  53   0.0000       0.808588        22.0028 
  54   0.0000       0.808588        22.0028 
  55   0.0000       0.902155        24.5489 
  56   0.0000       0.915361        24.9082 
  57   0.0000       0.915361        24.9082 
  58   0.0000       0.938212        25.5301 
  59   0.0000       0.940335        25.5878 
  60   0.0000       0.942909        25.6579 
  61   0.0000       0.942909        25.6579 
  62   0.0000       1.069086        29.0913 
  63   0.0000       1.083397        29.4807 
  64   0.0000       1.087710        29.5981 
  65   0.0000       1.108160        30.1546 
  66   0.0000       1.423336        38.7309 
  67   0.0000       1.423336        38.7309 
  68   0.0000       1.616155        43.9778 
  69   0.0000       1.877824        51.0982 
  70   0.0000       1.879675        51.1486 
  71   0.0000       1.879675        51.1486 
  72   0.0000       1.916449        52.1492 
  73   0.0000       1.917341        52.1735 
  74   0.0000       2.049988        55.7830 
  75   0.0000       2.049988        55.7830 
  76   0.0000       2.133355        58.0515 
  77   0.0000       2.134462        58.0817 
  78   0.0000       2.259843        61.4934 
  79   0.0000       2.433986        66.2321 
  80   0.0000       2.433986        66.2321 
  81   0.0000       2.599584        70.7383 
  82   0.0000       2.626142        71.4609 
  83   0.0000       2.626142        71.4609 
  84   0.0000       2.665946        72.5441 
  85   0.0000       2.680190        72.9317 
  86   0.0000       2.838871        77.2496 
  87   0.0000       2.960625        80.5627 
  88   0.0000       2.960625        80.5627 
  89   0.0000       3.046700        82.9049 
  90   0.0000       3.046700        82.9049 
  91   0.0000       3.197785        87.0161 
  92   0.0000       3.277548        89.1866 
  93   0.0000       3.277979        89.1983 
  94   0.0000       3.320616        90.3586 
  95   0.0000       3.320616        90.3586 
  96   0.0000       3.556322        96.7724 
  97   0.0000       3.630086        98.7797 
  98   0.0000       3.630853        98.8005 
  99   0.0000       3.630853        98.8005 
 100   0.0000       3.637929        98.9931 
 101   0.0000       3.675844       100.0248 
 102   0.0000       4.249336       115.6303 
 103   0.0000       4.249336       115.6303 
 104   0.0000       4.456315       121.2625 
 105   0.0000       4.487675       122.1158 
 106   0.0000       4.926594       134.0594 
 107   0.0000       4.926594       134.0594 
 108   0.0000       5.075802       138.1196 
 109   0.0000       5.961976       162.2336 
 110   0.0000       6.156527       167.5276 
 111   0.0000       6.156527       167.5276 
 112   0.0000       6.261248       170.3772 
 113   0.0000       6.261486       170.3837 
 114   0.0000       6.505409       177.0212 
 115   0.0000       6.505409       177.0212 
 116   0.0000       6.590500       179.3366 
 117   0.0000       6.590557       179.3382 
 118   0.0000       6.606861       179.7818 
 119   0.0000       6.921768       188.3509 
 120   0.0000       6.921768       188.3509 
 121   0.0000       7.152092       194.6183 
 122   0.0000       8.840059       240.5502 
 123   0.0000       8.861354       241.1297 
 124   0.0000       8.861354       241.1297 
 125   0.0000       8.873054       241.4481 
 126   0.0000       9.033205       245.8060 
 127   0.0000       9.033205       245.8060 
 128   0.0000       9.383126       255.3278 
 129   0.0000       9.645802       262.4756 
 130   0.0000       9.645802       262.4756 
 131   0.0000       9.647416       262.5195 
 132   0.0000       9.647484       262.5214 
 133   0.0000       9.761496       265.6238 
 134   0.0000       9.783972       266.2354 
 135   0.0000       9.866423       268.4790 
 136   0.0000      10.037165       273.1251 
 137   0.0000      10.037165       273.1251 
 138   0.0000      11.344528       308.7003 

                 SPIN DOWN ORBITALS
  NO   OCC          E(Eh)            E(eV) 
   0   1.0000    -255.852814     -6962.1090 
   1   1.0000     -29.843544      -812.0841 
   2   1.0000     -25.695331      -699.2055 
   3   1.0000     -25.678883      -698.7579 
   4   1.0000     -25.678883      -698.7579 
   5   1.0000     -19.019271      -517.5407 
   6   1.0000      -3.339058       -90.8604 
   7   1.0000      -2.125034       -57.8251 
   8   1.0000      -2.102387       -57.2088 
   9   1.0000      -2.102387       -57.2088 
  10   1.0000      -0.834656       -22.7121 
  11   1.0000      -0.313216        -8.5230 
  12   1.0000      -0.268835        -7.3154 
  13   1.0000      -0.268835        -7.3154 
  14   1.0000      -0.205046        -5.5796 
  15   0.0000      -0.120765        -3.2862 
  16   0.0000      -0.077456        -2.1077 
  17   0.0000      -0.077456        -2.1077 
  18   0.0000      -0.063756        -1.7349 
  19   0.0000      -0.062117        -1.6903 
  20   0.0000       0.008965         0.2440 
  21   0.0000       0.008966         0.2440 
  22   0.0000       0.018021         0.4904 
  23   0.0000       0.021777         0.5926 
  24   0.0000       0.052572         1.4306 
  25   0.0000       0.052572         1.4306 
  26   0.0000       0.074865         2.0372 
  27   0.0000       0.075770         2.0618 
  28   0.0000       0.078639         2.1399 
  29   0.0000       0.078639         2.1399 
  30   0.0000       0.080398         2.1877 
  31   0.0000       0.093565         2.5460 
  32   0.0000       0.131422         3.5762 
  33   0.0000       0.203671         5.5422 
  34   0.0000       0.203671         5.5422 
  35   0.0000       0.209858         5.7105 
  36   0.0000       0.222950         6.0668 
  37   0.0000       0.222950         6.0668 
  38   0.0000       0.265307         7.2194 
  39   0.0000       0.283977         7.7274 
  40   0.0000       0.300850         8.1865 
  41   0.0000       0.309219         8.4143 
  42   0.0000       0.309219         8.4143 
  43   0.0000       0.332663         9.0522 
  44   0.0000       0.504789        13.7360 
  45   0.0000       0.588412        16.0115 
  46   0.0000       0.590945        16.0804 
  47   0.0000       0.609091        16.5742 
  48   0.0000       0.700813        19.0701 
  49   0.0000       0.700813        19.0701 
  50   0.0000       0.740512        20.1504 
  51   0.0000       0.815087        22.1796 
  52   0.0000       0.815087        22.1797 
  53   0.0000       0.857465        23.3328 
  54   0.0000       0.857465        23.3328 
  55   0.0000       0.937230        25.5033 
  56   0.0000       0.941143        25.6098 
  57   0.0000       0.941143        25.6098 
  58   0.0000       0.978547        26.6276 
  59   0.0000       0.985251        26.8100 
  60   0.0000       0.993809        27.0429 
  61   0.0000       0.993809        27.0429 
  62   0.0000       1.102311        29.9954 
  63   0.0000       1.123992        30.5854 
  64   0.0000       1.135828        30.9074 
  65   0.0000       1.162912        31.6444 
  66   0.0000       1.466114        39.8950 
  67   0.0000       1.466114        39.8950 
  68   0.0000       1.652603        44.9696 
  69   0.0000       1.893994        51.5382 
  70   0.0000       1.894392        51.5490 
  71   0.0000       1.894392        51.5490 
  72   0.0000       1.938656        52.7535 
  73   0.0000       1.940463        52.8027 
  74   0.0000       2.068454        56.2855 
  75   0.0000       2.068454        56.2855 
  76   0.0000       2.149264        58.4844 
  77   0.0000       2.151446        58.5438 
  78   0.0000       2.287735        62.2524 
  79   0.0000       2.471008        67.2395 
  80   0.0000       2.471008        67.2395 
  81   0.0000       2.654626        72.2361 
  82   0.0000       2.706133        73.6376 
  83   0.0000       2.706133        73.6376 
  84   0.0000       2.741949        74.6122 
  85   0.0000       2.774537        75.4990 
  86   0.0000       2.904379        79.0322 
  87   0.0000       3.043809        82.8262 
  88   0.0000       3.043809        82.8263 
  89   0.0000       3.104195        84.4694 
  90   0.0000       3.104195        84.4694 
  91   0.0000       3.251301        88.4724 
  92   0.0000       3.343974        90.9942 
  93   0.0000       3.345988        91.0490 
  94   0.0000       3.387888        92.1891 
  95   0.0000       3.387888        92.1891 
  96   0.0000       3.616593        98.4125 
  97   0.0000       3.668709        99.8307 
  98   0.0000       3.668709        99.8307 
  99   0.0000       3.682529       100.2067 
 100   0.0000       3.699035       100.6559 
 101   0.0000       3.727945       101.4426 
 102   0.0000       4.301504       117.0499 
 103   0.0000       4.301504       117.0499 
 104   0.0000       4.546455       123.7153 
 105   0.0000       4.591622       124.9444 
 106   0.0000       5.021784       136.6497 
 107   0.0000       5.021784       136.6497 
 108   0.0000       5.124525       139.4454 
 109   0.0000       6.024801       163.9432 
 110   0.0000       6.181454       168.2059 
 111   0.0000       6.181454       168.2059 
 112   0.0000       6.280965       170.9138 
 113   0.0000       6.281019       170.9152 
 114   0.0000       6.525609       177.5709 
 115   0.0000       6.525609       177.5709 
 116   0.0000       6.630107       180.4144 
 117   0.0000       6.630500       180.4251 
 118   0.0000       6.632488       180.4792 
 119   0.0000       6.945804       189.0049 
 120   0.0000       6.945804       189.0049 
 121   0.0000       7.172316       195.1686 
 122   0.0000       9.000028       244.9032 
 123   0.0000       9.000028       244.9032 
 124   0.0000       9.007006       245.0931 
 125   0.0000       9.040556       246.0060 
 126   0.0000       9.185969       249.9629 
 127   0.0000       9.185969       249.9629 
 128   0.0000       9.516818       258.9658 
 129   0.0000       9.746268       265.2094 
 130   0.0000       9.749128       265.2873 
 131   0.0000       9.758338       265.5379 
 132   0.0000       9.758338       265.5379 
 133   0.0000       9.880520       268.8626 
 134   0.0000       9.888250       269.0730 
 135   0.0000       9.956659       270.9345 
 136   0.0000      10.145922       276.0846 
 137   0.0000      10.145922       276.0846 
 138   0.0000      11.383921       309.7722 

                    ********************************
                    * MULLIKEN POPULATION ANALYSIS *
                    ********************************

--------------------------------------------
MULLIKEN ATOMIC CHARGES AND SPIN POPULATIONS
--------------------------------------------
   0 Fe:    0.599459    3.610892
   1 O :   -0.599459    0.389108
Sum of atomic charges         :   -0.0000000
Sum of atomic spin populations:    4.0000000

-----------------------------------------------------
MULLIKEN REDUCED ORBITAL CHARGES AND SPIN POPULATIONS
-----------------------------------------------------
CHARGE
  0 Fes       :     6.605707  s :     6.605707
      pz      :     4.039898  p :    12.223941
      px      :     4.092022
      py      :     4.092022
      dz2     :     1.062843  d :     6.543013
      dxz     :     1.241543
      dyz     :     1.241543
      dx2y2   :     0.999200
      dxy     :     1.997883
      f0      :     0.006406  f :     0.024994
      f+1     :     0.009051
      f-1     :     0.009051
      f+2     :     0.000146
      f-2     :     0.000222
      f+3     :     0.000059
      f-3     :     0.000059
      g0      :     0.000770  g :     0.002886
      g+1     :     0.001036
      g-1     :     0.001036
      g+2     :     0.000003
      g-2     :     0.000011
      g+3     :     0.000004
      g-3     :     0.000004
      g+4     :     0.000021
      g-4     :     0.000000
  1 O s       :     3.957635  s :     3.957635
      pz      :     1.320555  p :     4.614174
      px      :     1.646809
      py      :     1.646810
      dz2     :     0.004741  d :     0.022937
      dxz     :     0.008283
      dyz     :     0.008283
      dx2y2   :     0.000410
      dxy     :     0.001219
      f0      :     0.001425  f :     0.004714
      f+1     :     0.001193
      f-1     :     0.001193
      f+2     :     0.000240
      f-2     :     0.000664
      f+3     :     0.000000
      f-3     :     0.000000

SPIN
  0 Fes       :     0.521170  s :     0.521170
      pz      :     0.007560  p :     0.117392
      px      :     0.054916
      py      :     0.054916
      dz2     :     0.526563  d :     2.968786
      dxz     :     0.721410
      dyz     :     0.721410
      dx2y2   :     0.999200
      dxy     :     0.000202
      f0      :    -0.000583  f :     0.004058
      f+1     :     0.002219
      f-1     :     0.002219
      f+2     :     0.000146
      f-2     :     0.000134
      f+3     :    -0.000038
      f-3     :    -0.000038
      g0      :    -0.000271  g :    -0.000514
      g+1     :    -0.000126
      g-1     :    -0.000126
      g+2     :     0.000003
      g-2     :     0.000009
      g+3     :    -0.000001
      g-3     :    -0.000001
      g+4     :    -0.000003
      g-4     :    -0.000000
  1 O s       :    -0.008974  s :    -0.008974
      pz      :    -0.046963  p :     0.400750
      px      :     0.223856
      py      :     0.223856
      dz2     :     0.001166  d :    -0.002349
      dxz     :    -0.001841
      dyz     :    -0.001841
      dx2y2   :     0.000410
      dxy     :    -0.000244
      f0      :     0.000335  f :    -0.000319
      f+1     :    -0.000396
      f-1     :    -0.000396
      f+2     :     0.000240
      f-2     :    -0.000101
      f+3     :     0.000000
      f-3     :     0.000000


                     *******************************
                     * LOEWDIN POPULATION ANALYSIS *
                     *******************************

-------------------------------------------
LOEWDIN ATOMIC CHARGES AND SPIN POPULATIONS
-------------------------------------------
   0 Fe:    0.604252    3.536390
   1 O :   -0.604252    0.463610

----------------------------------------------------
LOEWDIN REDUCED ORBITAL CHARGES AND SPIN POPULATIONS
----------------------------------------------------
CHARGE
  0 Fes       :     6.285387  s :     6.285387
      pz      :     4.127770  p :    12.285949
      px      :     4.079090
      py      :     4.079090
      dz2     :     1.169310  d :     6.595486
      dxz     :     1.232740
      dyz     :     1.232740
      dx2y2   :     0.987945
      dxy     :     1.972752
      f0      :     0.083212  f :     0.207311
      f+1     :     0.060843
      f-1     :     0.060843
      f+2     :     0.000796
      f-2     :     0.001499
      f+3     :     0.000059
      f-3     :     0.000059
      g0      :     0.009266  g :     0.021613
      g+1     :     0.006077
      g-1     :     0.006077
      g+2     :     0.000052
      g-2     :     0.000110
      g+3     :     0.000004
      g-3     :     0.000004
      g+4     :     0.000021
      g-4     :     0.000000
  1 O s       :     3.556552  s :     3.556552
      pz      :     1.529881  p :     4.563038
      px      :     1.516578
      py      :     1.516578
      dz2     :     0.160262  d :     0.306611
      dxz     :     0.063758
      dyz     :     0.063758
      dx2y2   :     0.005525
      dxy     :     0.013308
      f0      :     0.078339  f :     0.178053
      f+1     :     0.040851
      f-1     :     0.040851
      f+2     :     0.005682
      f-2     :     0.012330
      f+3     :     0.000000
      f-3     :     0.000000

SPIN
  0 Fes       :     0.431475  s :     0.431475
      pz      :     0.014243  p :     0.195094
      px      :     0.090425
      py      :     0.090425
      dz2     :     0.510756  d :     2.869023
      dxz     :     0.684882
      dyz     :     0.684882
      dx2y2   :     0.987945
      dxy     :     0.000558
      f0      :     0.000618  f :     0.037687
      f+1     :     0.018004
      f-1     :     0.018004
      f+2     :     0.000796
      f-2     :     0.000340
      f+3     :    -0.000038
      f-3     :    -0.000038
      g0      :    -0.000368  g :     0.003113
      g+1     :     0.001718
      g-1     :     0.001718
      g+2     :     0.000052
      g-2     :    -0.000004
      g+3     :    -0.000001
      g-3     :    -0.000001
      g+4     :    -0.000003
      g-4     :    -0.000000
  1 O s       :     0.025194  s :     0.025194
      pz      :     0.009278  p :     0.357710
      px      :     0.174216
      py      :     0.174216
      dz2     :     0.004464  d :     0.042747
      dxz     :     0.016713
      dyz     :     0.016713
      dx2y2   :     0.005525
      dxy     :    -0.000668
      f0      :     0.004344  f :     0.037959
      f+1     :     0.014080
      f-1     :     0.014080
      f+2     :     0.005682
      f-2     :    -0.000225
      f+3     :    -0.000000
      f-3     :    -0.000000


                      *****************************
                      * MAYER POPULATION ANALYSIS *
                      *****************************

  NA   - Mulliken gross atomic population
  ZA   - Total nuclear charge
  QA   - Mulliken gross atomic charge
  VA   - Mayer's total valence
  BVA  - Mayer's bonded valence
  FA   - Mayer's free valence

  ATOM       NA         ZA         QA         VA         BVA        FA
  0 Fe    25.4005    26.0000     0.5995     5.1318     2.0378     3.0940
  1 O      8.5995     8.0000    -0.5995     2.1468     2.0378     0.1090

  Mayer bond orders larger than 0.100000
B(  0-Fe,  1-O ) :   2.0378 

-------
TIMINGS
-------

Total SCF time: 0 days 0 hours 2 min 34 sec 

Total time                  ....     154.225 sec
Sum of individual times     ....     153.852 sec  ( 99.8%)

Fock matrix formation       ....     153.421 sec  ( 99.5%)
  XC integration            ....       1.416 sec  (  0.9% of F)
    Basis function eval.    ....       0.146 sec  ( 10.3% of XC)
    Density eval.           ....       0.140 sec  (  9.9% of XC)
    XC-Functional eval.     ....       0.038 sec  (  2.7% of XC)
    XC-Potential eval.      ....       0.405 sec  ( 28.6% of XC)
Diagonalization             ....       0.115 sec  (  0.1%)
Density matrix formation    ....       0.015 sec  (  0.0%)
Population analysis         ....       0.007 sec  (  0.0%)
Initial guess               ....       0.097 sec  (  0.1%)
Orbital Transformation      ....       0.000 sec  (  0.0%)
Orbital Orthonormalization  ....       0.000 sec  (  0.0%)
DIIS solution               ....       0.041 sec  (  0.0%)
Grid generation             ....       0.157 sec  (  0.1%)


-------------------------------------------------------------------------------
                          DFT DISPERSION CORRECTION                            
                                                                               
                              DFTD3 V3.1  Rev 1                                
                          USING Becke-Johnson damping                          
-------------------------------------------------------------------------------
The TPSSH functional is recognized
Active option DFTDOPT                   ...         4   

molecular C6(AA) [au] = 333.870522 


            DFT-D V3
 parameters
 s6 scaling factor         :     1.0000 
 a1 scaling factor         :     0.4529 
 s8 scaling factor         :     2.2382 
 a2 scaling factor         :     4.6550 
 ad hoc parameters k1-k3   :    16.0000     1.3333    -4.0000 

 Edisp/kcal,au: -0.408328499009  -0.000650712814 
 E6   /kcal   :  -0.152847573 
 E8   /kcal   :  -0.255480926 
 % E8         :  62.567498070 

-------------------------   ----------------
Dispersion correction           -0.000650713
-------------------------   ----------------


-------------------------   --------------------
FINAL SINGLE POINT ENERGY     -1338.974311732625
-------------------------   --------------------


                            ***************************************
                            *     ORCA property calculations      *
                            ***************************************

                                    ---------------------
                                    Active property flags
                                    ---------------------
   (+) Dipole Moment


------------------------------------------------------------------------------
                       ORCA ELECTRIC PROPERTIES CALCULATION
------------------------------------------------------------------------------

Dipole Moment Calculation                       ... on
Quadrupole Moment Calculation                   ... off
Polarizability Calculation                      ... off
GBWName                                         ... 35_FeO.gbw
Electron density file                           ... 35_FeO.scfp
The origin for moment calculation is the CENTER OF MASS  = ( 0.000000,  0.000000  1.047144)

-------------
DIPOLE MOMENT
-------------
                                X             Y             Z
Electronic contribution:      0.00000       0.00000      -3.21432
Nuclear contribution   :      0.00000       0.00000       1.30353
                        -----------------------------------------
Total Dipole Moment    :      0.00000       0.00000      -1.91080
                        -----------------------------------------
Magnitude (a.u.)       :      1.91080
Magnitude (Debye)      :      4.85686



--------------------
Rotational spectrum 
--------------------
 
Rotational constants in cm-1:     0.000000     0.524387     0.524387 
Rotational constants in MHz :     0.000000 15720.731712 15720.731712 

 Dipole components along the rotational axes: 
x,y,z [a.u.] :    -1.910796     0.000000     0.000000 
x,y,z [Debye]:    -4.856858     0.000000     0.000000 

 

Timings for individual modules:

Sum of individual times         ...      157.837 sec (=   2.631 min)
GTO integral calculation        ...        3.162 sec (=   0.053 min)   2.0 %
SCF iterations                  ...      154.675 sec (=   2.578 min)  98.0 %
                             ****ORCA TERMINATED NORMALLY****
TOTAL RUN TIME: 0 days 0 hours 2 minutes 38 seconds 477 msec
