
                                 *****************
                                 * O   R   C   A *
                                 *****************

           --- An Ab Initio, DFT and Semiempirical electronic structure package ---

                  #######################################################
                  #                        -***-                        #
                  #          Department of theory and spectroscopy      #
                  #               Directorship: Frank Neese             #
                  #        Max Planck Institute fuer Kohlenforschung    #
                  #                Kaiser Wilhelm Platz 1               #
                  #                 D-45470 Muelheim/Ruhr               #
                  #                      Germany                        #
                  #                                                     #
                  #                  All rights reserved                #
                  #                        -***-                        #
                  #######################################################


                         Program Version 4.2.0 -  RELEASE  -


 With contributions from (in alphabetic order):
   Daniel Aravena         : Magnetic Suceptibility
   Michael Atanasov       : Ab Initio Ligand Field Theory (pilot matlab implementation)
   Alexander A. Auer      : GIAO ZORA, VPT2
   Ute Becker             : Parallelization
   Giovanni Bistoni       : ED, misc. LED, open-shell LED, HFLED
   Martin Brehm           : Molecular dynamics
   Dmytro Bykov           : SCF Hessian
   Vijay G. Chilkuri      : MRCI spin determinant printing, contributions to CSF-ICE
   Dipayan Datta          : RHF DLPNO-CCSD density
   Achintya Kumar Dutta   : EOM-CC, STEOM-CC
   Dmitry Ganyushin       : Spin-Orbit,Spin-Spin,Magnetic field MRCI
   Miquel Garcia          : C-PCM Hessian, Gaussian charge scheme
   Yang Guo               : DLPNO-NEVPT2, CIM, IAO-localization
   Andreas Hansen         : Spin unrestricted coupled pair/coupled cluster methods
   Benjamin Helmich-Paris : CASSCF linear response (MC-RPA)
   Lee Huntington         : MR-EOM, pCC
   Robert Izsak           : Overlap fitted RIJCOSX, COSX-SCS-MP3, EOM
   Christian Kollmar      : KDIIS, OOCD, Brueckner-CCSD(T), CCSD density
   Simone Kossmann        : Meta GGA functionals, TD-DFT gradient, OOMP2, MP2 Hessian
   Martin Krupicka        : AUTO-CI
   Lucas Lang             : DCDCAS
   Dagmar Lenk            : GEPOL surface, SMD
   Dimitrios Liakos       : Extrapolation schemes; Compound Job, initial MDCI parallelization
   Dimitrios Manganas     : Further ROCIS development; embedding schemes
   Dimitrios Pantazis     : SARC Basis sets
   Taras Petrenko         : DFT Hessian,TD-DFT gradient, ASA, ECA, R-Raman, ABS, FL, XAS/XES, NRVS
   Peter Pinski           : DLPNO-MP2, DLPNO-MP2 Gradient
   Christoph Reimann      : Effective Core Potentials
   Marius Retegan         : Local ZFS, SOC
   Christoph Riplinger    : Optimizer, TS searches, QM/MM, DLPNO-CCSD(T), (RO)-DLPNO pert. Triples
   Tobias Risthaus        : Range-separated hybrids, TD-DFT gradient, RPA, STAB
   Michael Roemelt        : Original ROCIS implementation
   Masaaki Saitow         : Open-shell DLPNO-CCSD energy and density
   Barbara Sandhoefer     : DKH picture change effects
   Avijit Sen             : IP-ROCIS
   Kantharuban Sivalingam : CASSCF convergence, NEVPT2, FIC-MRCI
   Bernardo de Souza      : ESD, SOC TD-DFT
   Georgi Stoychev        : AutoAux, RI-MP2 NMR
   Willem Van den Heuvel  : Paramagnetic NMR
   Boris Wezisla          : Elementary symmetry handling
   Frank Wennmohs         : Technical directorship


 We gratefully acknowledge several colleagues who have allowed us to
 interface, adapt or use parts of their codes:
   Stefan Grimme, W. Hujo, H. Kruse,             : VdW corrections, initial TS optimization,
                  C. Bannwarth                     DFT functionals, gCP, sTDA/sTD-DF
   Ed Valeev, F. Pavosevic, A. Kumar             : LibInt (2-el integral package), F12 methods
   Garnet Chan, S. Sharma, J. Yang, R. Olivares  : DMRG
   Ulf Ekstrom                                   : XCFun DFT Library
   Mihaly Kallay                                 : mrcc  (arbitrary order and MRCC methods)
   Andreas Klamt, Michael Diedenhofen            : otool_cosmo (COSMO solvation model)
   Jiri Pittner, Ondrej Demel                    : Mk-CCSD
   Frank Weinhold                                : gennbo (NPA and NBO analysis)
   Christopher J. Cramer and Donald G. Truhlar   : smd solvation model
   Lars Goerigk                                  : TD-DFT with DH, B97 family of functionals
   V. Asgeirsson, H. Jonsson                     : NEB implementation
   FAccTs GmbH                                   : IRC, NEB, NEB-TS, Multilevel, MM, QM/MM, CI optimization
   S Lehtola, MJT Oliveira, MAL Marques          : LibXC Library


 Your calculation uses the libint2 library for the computation of 2-el integrals
 For citations please refer to: http://libint.valeyev.net

 Your ORCA version has been built with support for libXC version: 4.2.3
 For citations please refer to: https://tddft.org/programs/libxc/

 This ORCA versions uses:
   CBLAS   interface :  Fast vector & matrix operations
   LAPACKE interface :  Fast linear algebra routines
   SCALAPACK package :  Parallel linear algebra routines


Your calculation utilizes the atom-pairwise dispersion correction
with the Becke-Johnson damping scheme (D3BJ)
Cite in your paper:
S.Grimme, S.Ehrlich, L.Goerigk, J Comput Chem, (2011), 32, 1456–1465 
S.Grimme, J.Antony, S.Ehrlich and H.Krieg, J.Chem.Phys., 132, (2010), 154104 
   

----- Orbital basis set information -----
Your calculation utilizes the basis: aug-cc-pVTZ 
    H, B-Ne : Obtained from the ccRepo (grant-hill.group.shef.ac.uk/ccrepo) Feb. 2017
              R. A. Kendall, T. H. Dunning, Jr., R. J. Harrison, J. Chem. Phys. 96, 6796 (1992)
         He : Obtained from the ccRepo (grant-hill.group.shef.ac.uk/ccrepo) Feb. 2017
              D. E. Woon, T. H. Dunning, Jr., J. Chem. Phys. 100, 2975 (1994)
  Li-Be, Na : Obtained from the ccRepo (grant-hill.group.shef.ac.uk/ccrepo) Feb. 2017
              B. P. Prascher, D. E. Woon, K. A. Peterson, T. H. Dunning, Jr., A. K. Wilson, Theor. Chem. Acc. 128, 69 (2011)
         Mg : Obtained from the Peterson Research Group Website (tyr0.chem.wsu.edu/~kipeters) Feb. 2017
              B. P. Prascher, D. E. Woon, K. A. Peterson, T. H. Dunning, Jr., A. K. Wilson, Theor. Chem. Acc. 128, 69 (2011)
      Al-Ar : Obtained from the ccRepo (grant-hill.group.shef.ac.uk/ccrepo) Feb. 2017
              D. E. Woon, T. H. Dunning, Jr., J. Chem. Phys. 98, 1358 (1993)
      Sc-Zn : Obtained from the ccRepo (grant-hill.group.shef.ac.uk/ccrepo) Feb. 2017
              N. B. Balabanov, K. A. Peterson, J. Chem. Phys. 123, 064107 (2005)
              N. B. Balabanov, K. A. Peterson, J. Chem. Phys. 125, 074110 (2006)
      Ga-Kr : Obtained from the ccRepo (grant-hill.group.shef.ac.uk/ccrepo) Feb. 2017
              A. K. Wilson, D. E. Woon, K. A. Peterson, T. H. Dunning, Jr., J. Chem. Phys. 110, 7667 (1999)
     Ag, Au : Obtained from the Peterson Research Group Website (tyr0.chem.wsu.edu/~kipeters) Feb. 2017
              K. A. Peterson, C. Puzzarini, Theor. Chem. Acc. 114, 283 (2005)

----- AuxJK basis set information -----
Your calculation utilizes the auxiliary basis: def2/JK
   H-Ba, Hf-Rn: F. Weigend, J. Comput. Chem. 29, 167 (2008).

================================================================================
                                        WARNINGS
                       Please study these warnings very carefully!
================================================================================


WARNING: your system is open-shell and RHF/RKS was chosen
  ===> : WILL SWITCH to UHF/UKS


INFO   : the flag for use of LIBINT has been found!

================================================================================
                                       INPUT FILE
================================================================================
NAME = 36_FeS.in
|  1> #
|  2> # 36_FeS tpssh/aug-cc-pvtz
|  3> #
|  4> ! tpssh d3bj aug-cc-pvtz def2/jk grid4 nofinalgrid
|  5> 
|  6> *xyz 0 5
|  7>   Fe  0.00000000000000      0.00000000000000     -0.00599090985654
|  8>   S   0.00000000000000      0.00000000000000      2.00599090985654
|  9> *
| 10> 
| 11> %pal
| 12> nprocs 24
| 13> end
| 14> 
| 15> 
| 16>                          ****END OF INPUT****
================================================================================

                       ****************************
                       * Single Point Calculation *
                       ****************************

---------------------------------
CARTESIAN COORDINATES (ANGSTROEM)
---------------------------------
  Fe     0.000000    0.000000   -0.005991
  S      0.000000    0.000000    2.005991

----------------------------
CARTESIAN COORDINATES (A.U.)
----------------------------
  NO LB      ZA    FRAG     MASS         X           Y           Z
   0 Fe   26.0000    0    55.850    0.000000    0.000000   -0.011321
   1 S    16.0000    0    32.060    0.000000    0.000000    3.790773

--------------------------------
INTERNAL COORDINATES (ANGSTROEM)
--------------------------------
 Fe     0   0   0     0.000000000000     0.00000000     0.00000000
 S      1   0   0     2.011981819713     0.00000000     0.00000000

---------------------------
INTERNAL COORDINATES (A.U.)
---------------------------
 Fe     0   0   0     0.000000000000     0.00000000     0.00000000
 S      1   0   0     3.802094625686     0.00000000     0.00000000

---------------------
BASIS SET INFORMATION
---------------------
There are 2 groups of distinct atoms

 Group   1 Type Fe  : 116s77p23d3f2g contracted to 8s7p5d3f2g pattern {19191919191911/151515151511/77711/111/11}
 Group   2 Type S   : 42s17p3d2f contracted to 6s5p3d2f pattern {131313111/77111/111/11}

Atom   0Fe   basis set group =>   1
Atom   1S    basis set group =>   2
----------------------------------
AUXILIARY/JK BASIS SET INFORMATION
----------------------------------
There are 2 groups of distinct atoms

 Group   1 Type Fe  : 19s14p12d10f7g3h1i contracted to 16s13p11d9f5g3h1i pattern {4111111111111111/2111111111111/21111111111/211111111/31111/111/1}
 Group   2 Type S   : 16s12p10d4f1g contracted to 13s11p9d4f1g pattern {4111111111111/21111111111/211111111/1111/1}

Atom   0Fe   basis set group =>   1
Atom   1S    basis set group =>   2


           ************************************************************
           *        Program running with 24 parallel MPI-processes    *
           *              working on a common directory               *
           ************************************************************
------------------------------------------------------------------------------
                           ORCA GTO INTEGRAL CALCULATION
------------------------------------------------------------------------------

                         BASIS SET STATISTICS AND STARTUP INFO

 # of primitive gaussian shells          ...  285
 # of primitive gaussian functions       ...  623
 # of contracted shells                  ...   41
 # of contracted basis functions         ...  143
 Highest angular momentum                ...    4
 Maximum contraction depth               ...   19
 Integral package used                   ... LIBINT
 Integral threshhold            Thresh   ...  1.000e-10
 Primitive cut-off              TCut     ...  1.000e-11


------------------------------ INTEGRAL EVALUATION ----------------------------


 * One electron integrals 
 Pre-screening matrix                    ... done
 Shell pair data                         ... done (   0.002 sec)



           ************************************************************
           *        Program running with 24 parallel MPI-processes    *
           *              working on a common directory               *
           ************************************************************
-------------------------------------------------------------------------------
                                 ORCA SCF
-------------------------------------------------------------------------------

------------
SCF SETTINGS
------------
Hamiltonian:
 Density Functional     Method          .... DFT(GTOs)
 Exchange Functional    Exchange        .... TPSS
 Correlation Functional Correlation     .... TPSS
 LDA part of GGA corr.  LDAOpt          .... PW91-LDA
 Gradients option       PostSCFGGA      .... off
 Hybrid DFT is turned on
   Fraction HF Exchange ScalHFX         ....  0.100000
   Scaling of DF-GGA-X  ScalDFX         ....  0.900000
   Scaling of DF-GGA-C  ScalDFC         ....  1.000000
   Scaling of DF-LDA-C  ScalLDAC        ....  1.000000
   Perturbative correction              ....  0.000000
   Density functional embedding theory  .... OFF
   NL short-range parameter             ....  5.200000


General Settings:
 Integral files         IntName         .... 36_FeS
 Hartree-Fock type      HFTyp           .... UHF
 Total Charge           Charge          ....    0
 Multiplicity           Mult            ....    5
 Number of Electrons    NEL             ....   42
 Basis Dimension        Dim             ....  143
 Nuclear Repulsion      ENuc            ....    109.4133736677 Eh

Convergence Acceleration:
 DIIS                   CNVDIIS         .... on
   Start iteration      DIISMaxIt       ....    12
   Startup error        DIISStart       ....  0.200000
   # of expansion vecs  DIISMaxEq       ....     5
   Bias factor          DIISBfac        ....   1.050
   Max. coefficient     DIISMaxC        ....  10.000
 Newton-Raphson         CNVNR           .... off
 SOSCF                  CNVSOSCF        .... off
 Level Shifting         CNVShift        .... on
   Level shift para.    LevelShift      ....    0.2500
   Turn off err/grad.   ShiftErr        ....    0.0010
 Zerner damping         CNVZerner       .... off
 Static damping         CNVDamp         .... on
   Fraction old density DampFac         ....    0.7000
   Max. Damping (<1)    DampMax         ....    0.9800
   Min. Damping (>=0)   DampMin         ....    0.0000
   Turn off err/grad.   DampErr         ....    0.1000
 Fernandez-Rico         CNVRico         .... off

SCF Procedure:
 Maximum # iterations   MaxIter         ....   125
 SCF integral mode      SCFMode         .... Direct
   Integral package                     .... LIBINT
 Reset frequency        DirectResetFreq ....    20
 Integral Threshold     Thresh          ....  1.000e-10 Eh
 Primitive CutOff       TCut            ....  1.000e-11 Eh

Convergence Tolerance:
 Convergence Check Mode ConvCheckMode   .... Total+1el-Energy
 Convergence forced     ConvForced      .... 0
 Energy Change          TolE            ....  1.000e-06 Eh
 1-El. energy change                    ....  1.000e-03 Eh
 DIIS Error             TolErr          ....  1.000e-06


Diagonalization of the overlap matrix:
Smallest eigenvalue                        ... 9.650e-05
Time for diagonalization                   ...    0.004 sec
Threshold for overlap eigenvalues          ... 1.000e-08
Number of eigenvalues below threshold      ... 0
Time for construction of square roots      ...    0.002 sec
Total time needed                          ...    0.007 sec

-------------------
DFT GRID GENERATION
-------------------

General Integration Accuracy     IntAcc      ...  4.670
Radial Grid Type                 RadialGrid  ... Gauss-Chebyshev
Angular Grid (max. acc.)         AngularGrid ... Lebedev-302
Angular grid pruning method      GridPruning ... 3 (G Style)
Weight generation scheme         WeightScheme... Becke
Basis function cutoff            BFCut       ...    1.0000e-10
Integration weight cutoff        WCut        ...    1.0000e-14
Grids for H and He will be reduced by one unit

# of grid points (after initial pruning)     ...  16486 (   0.0 sec)
# of grid points (after weights+screening)   ...  16457 (   0.0 sec)
nearest neighbour list constructed           ...    0.0 sec
Grid point re-assignment to atoms done       ...    0.0 sec
Grid point division into batches done        ...    0.1 sec
Reduced shell lists constructed in    0.1 sec

Total number of grid points                  ...    16457
Total number of batches                      ...      258
Average number of points per batch           ...       63
Average number of grid points per atom       ...     8228
Average number of shells per batch           ...    14.83 (36.18%)
Average number of basis functions per batch  ...    37.50 (26.22%)
Average number of large shells per batch     ...     7.67 (51.69%)
Average number of large basis fcns per batch ...    19.17 (51.11%)
Maximum spatial batch extension              ...  24.49, 24.19, 18.13 au
Average spatial batch extension              ...   0.84,  0.83,  0.65 au

Time for grid setup =    0.157 sec

------------------------------
INITIAL GUESS: MODEL POTENTIAL
------------------------------
Loading Hartree-Fock densities                     ... done
Calculating cut-offs                               ... done
Setting up the integral package                    ... done
Initializing the effective Hamiltonian             ... done
Starting the Coulomb interaction                   ... done (   0.0 sec)
Reading the grid                                   ... done
Mapping shells                                     ... done
Starting the XC term evaluation                    ... done (   0.0 sec)
  promolecular density results
     # of electrons  =     42.000005632
     EX              =    -78.979495000
     EC              =     -1.758936648
     EX+EC           =    -80.738431648
Transforming the Hamiltonian                       ... done (   0.0 sec)
Diagonalizing the Hamiltonian                      ... done (   0.0 sec)
Back transforming the eigenvectors                 ... done (   0.0 sec)
Now organizing SCF variables                       ... done
                      ------------------
                      INITIAL GUESS DONE (   0.3 sec)
                      ------------------
--------------
SCF ITERATIONS
--------------
ITER       Energy         Delta-E        Max-DP      RMS-DP      [F,P]     Damp
               ***  Starting incremental Fock matrix formation  ***
  0  -1661.9149174486   0.000000000000 0.03115095  0.00079118  0.1190581 0.7000
  1  -1661.9410985703  -0.026181121768 0.02912892  0.00056451  0.0509637 0.7000
                               ***Turning on DIIS***
  2  -1661.9538801059  -0.012781535563 0.06509249  0.00116028  0.0251028 0.0000
  3  -1661.9729719487  -0.019091842787 0.02211020  0.00041316  0.0332203 0.0000
  4  -1661.9795630237  -0.006591075072 0.00819043  0.00017875  0.0148585 0.0000
  5  -1661.9803842733  -0.000821249596 0.01038673  0.00020290  0.0148611 0.0000
  6  -1661.9808353601  -0.000451086754 0.00601868  0.00010207  0.0079935 0.0000
  7  -1661.9811075765  -0.000272216411 0.00426248  0.00006178  0.0031175 0.0000
  8  -1661.9812223088  -0.000114732298 0.00359839  0.00004784  0.0017869 0.0000
  9  -1661.9812810309  -0.000058722104 0.00277142  0.00003269  0.0010976 0.0000
 10  -1661.9813082503  -0.000027219357 0.00439153  0.00005076  0.0005579 0.0000
 11  -1661.9813197526  -0.000011502359 0.00051496  0.00000831  0.0026449 0.0000
 12  -1661.9813274637  -0.000007711093 0.00037175  0.00000507  0.0010403 0.0000
 13  -1661.9813292216  -0.000001757882 0.00070168  0.00000614  0.0001746 0.0000
 14  -1661.9813294156  -0.000000193963 0.00012356  0.00000170  0.0002160 0.0000
 15  -1661.9813295545  -0.000000138914 0.00010515  0.00000130  0.0000219 0.0000
                 **** Energy Check signals convergence ****

               *****************************************************
               *                     SUCCESS                       *
               *           SCF CONVERGED AFTER  16 CYCLES          *
               *****************************************************


----------------
TOTAL SCF ENERGY
----------------

Total Energy       :        -1661.98132956 Eh          -45224.81116 eV

Components:
Nuclear Repulsion  :          109.41337367 Eh            2977.28926 eV
Electronic Energy  :        -1771.39470323 Eh          -48202.10042 eV
One Electron Energy:        -2515.27120659 Eh          -68444.00916 eV
Two Electron Energy:          743.87650336 Eh           20241.90874 eV

Virial components:
Potential Energy   :        -3321.10075118 Eh          -90371.74585 eV
Kinetic Energy     :         1659.11942161 Eh           45146.93469 eV
Virial Ratio       :            2.00172496


DFT components:
N(Alpha)           :       23.000008702804 electrons
N(Beta)            :       19.000008779671 electrons
N(Total)           :       42.000017482475 electrons
E(X)               :      -71.703870655364 Eh       
E(C)               :       -1.766413404987 Eh       
E(XC)              :      -73.470284060351 Eh       
DFET-embed. en.    :        0.000000000000 Eh       

---------------
SCF CONVERGENCE
---------------

  Last Energy change         ...   -8.6793e-09  Tolerance :   1.0000e-06
  Last MAX-Density change    ...    2.1222e-05  Tolerance :   1.0000e-05
  Last RMS-Density change    ...    3.0220e-07  Tolerance :   1.0000e-06
  Last DIIS Error            ...    6.8239e-05  Tolerance :   1.0000e-06

             **** THE GBW FILE WAS UPDATED (36_FeS.gbw) ****
             **** DENSITY FILE WAS UPDATED (36_FeS.scfp) ****
             **** ENERGY FILE WAS UPDATED (36_FeS.en.tmp) ****
----------------------
UHF SPIN CONTAMINATION
----------------------

Warning: in a DFT calculation there is little theoretical justification to 
         calculate <S**2> as in Hartree-Fock theory. We will do it anyways
         but you should keep in mind that the values have only limited relevance

Expectation value of <S**2>     :     6.042288
Ideal value S*(S+1) for S=2.0   :     6.000000
Deviation                       :     0.042288

             **** THE GBW FILE WAS UPDATED (36_FeS.gbw) ****
             **** DENSITY FILE WAS UPDATED (36_FeS.scfp) ****
----------------
ORBITAL ENERGIES
----------------
                 SPIN UP ORBITALS
  NO   OCC          E(Eh)            E(eV) 
   0   1.0000    -255.855546     -6962.1834 
   1   1.0000     -88.697440     -2413.5801 
   2   1.0000     -29.896296      -813.5196 
   3   1.0000     -25.742072      -700.4774 
   4   1.0000     -25.721729      -699.9238 
   5   1.0000     -25.721729      -699.9238 
   6   1.0000      -7.822655      -212.8653 
   7   1.0000      -5.770262      -157.0168 
   8   1.0000      -5.770202      -157.0152 
   9   1.0000      -5.770202      -157.0152 
  10   1.0000      -3.480440       -94.7076 
  11   1.0000      -2.287003       -62.2325 
  12   1.0000      -2.240910       -60.9783 
  13   1.0000      -2.240910       -60.9783 
  14   1.0000      -0.618497       -16.8301 
  15   1.0000      -0.337172        -9.1749 
  16   1.0000      -0.329805        -8.9745 
  17   1.0000      -0.329805        -8.9745 
  18   1.0000      -0.305465        -8.3121 
  19   1.0000      -0.265349        -7.2205 
  20   1.0000      -0.244899        -6.6640 
  21   1.0000      -0.210484        -5.7276 
  22   1.0000      -0.210484        -5.7276 
  23   0.0000      -0.125284        -3.4091 
  24   0.0000      -0.025402        -0.6912 
  25   0.0000      -0.025402        -0.6912 
  26   0.0000       0.003253         0.0885 
  27   0.0000       0.009560         0.2601 
  28   0.0000       0.029044         0.7903 
  29   0.0000       0.029044         0.7903 
  30   0.0000       0.055847         1.5197 
  31   0.0000       0.056328         1.5328 
  32   0.0000       0.056983         1.5506 
  33   0.0000       0.072080         1.9614 
  34   0.0000       0.072871         1.9829 
  35   0.0000       0.072871         1.9829 
  36   0.0000       0.098614         2.6834 
  37   0.0000       0.101667         2.7665 
  38   0.0000       0.101667         2.7665 
  39   0.0000       0.117097         3.1864 
  40   0.0000       0.167109         4.5473 
  41   0.0000       0.167109         4.5473 
  42   0.0000       0.208292         5.6679 
  43   0.0000       0.209194         5.6925 
  44   0.0000       0.216765         5.8985 
  45   0.0000       0.232874         6.3368 
  46   0.0000       0.262725         7.1491 
  47   0.0000       0.262725         7.1491 
  48   0.0000       0.269011         7.3202 
  49   0.0000       0.270985         7.3739 
  50   0.0000       0.303261         8.2521 
  51   0.0000       0.332928         9.0594 
  52   0.0000       0.332928         9.0594 
  53   0.0000       0.441566        12.0156 
  54   0.0000       0.483682        13.1616 
  55   0.0000       0.506961        13.7951 
  56   0.0000       0.506961        13.7951 
  57   0.0000       0.597682        16.2638 
  58   0.0000       0.597939        16.2708 
  59   0.0000       0.609339        16.5809 
  60   0.0000       0.618445        16.8287 
  61   0.0000       0.618445        16.8287 
  62   0.0000       0.695162        18.9163 
  63   0.0000       0.695162        18.9163 
  64   0.0000       0.726232        19.7618 
  65   0.0000       0.726320        19.7642 
  66   0.0000       0.727200        19.7881 
  67   0.0000       0.736222        20.0336 
  68   0.0000       0.736223        20.0336 
  69   0.0000       0.840640        22.8750 
  70   0.0000       0.858576        23.3630 
  71   0.0000       0.858576        23.3630 
  72   0.0000       0.900106        24.4931 
  73   0.0000       0.900106        24.4931 
  74   0.0000       0.990520        26.9534 
  75   0.0000       1.003095        27.2956 
  76   0.0000       1.009472        27.4691 
  77   0.0000       1.032299        28.0903 
  78   0.0000       1.032299        28.0903 
  79   0.0000       1.071116        29.1466 
  80   0.0000       1.122156        30.5354 
  81   0.0000       1.132095        30.8059 
  82   0.0000       1.338228        36.4150 
  83   0.0000       1.468898        39.9707 
  84   0.0000       1.468898        39.9707 
  85   0.0000       1.806144        49.1477 
  86   0.0000       1.806474        49.1567 
  87   0.0000       1.846852        50.2554 
  88   0.0000       1.914545        52.0974 
  89   0.0000       1.914545        52.0974 
  90   0.0000       2.089097        56.8472 
  91   0.0000       2.104372        57.2629 
  92   0.0000       2.104372        57.2629 
  93   0.0000       2.129375        57.9432 
  94   0.0000       2.129375        57.9432 
  95   0.0000       2.130499        57.9738 
  96   0.0000       2.130980        57.9869 
  97   0.0000       2.175569        59.2003 
  98   0.0000       2.246443        61.1288 
  99   0.0000       2.246443        61.1288 
 100   0.0000       2.624641        71.4201 
 101   0.0000       2.624641        71.4201 
 102   0.0000       2.627566        71.4997 
 103   0.0000       2.679645        72.9169 
 104   0.0000       2.693814        73.3024 
 105   0.0000       2.807295        76.3904 
 106   0.0000       2.807295        76.3904 
 107   0.0000       2.844777        77.4103 
 108   0.0000       2.977417        81.0196 
 109   0.0000       2.977418        81.0197 
 110   0.0000       3.116781        84.8119 
 111   0.0000       3.269509        88.9679 
 112   0.0000       3.269509        88.9679 
 113   0.0000       3.269696        88.9730 
 114   0.0000       3.269984        88.9808 
 115   0.0000       3.346776        91.0704 
 116   0.0000       3.354859        91.2904 
 117   0.0000       3.500941        95.2654 
 118   0.0000       3.643681        99.1496 
 119   0.0000       3.643681        99.1496 
 120   0.0000       3.781497       102.8998 
 121   0.0000       4.442575       120.8886 
 122   0.0000       4.473454       121.7289 
 123   0.0000       4.810418       130.8981 
 124   0.0000       4.810418       130.8981 
 125   0.0000       5.359024       145.8265 
 126   0.0000       5.931111       161.3937 
 127   0.0000       8.848676       240.7847 
 128   0.0000       8.856224       240.9901 
 129   0.0000       8.856224       240.9901 
 130   0.0000       8.881189       241.6695 
 131   0.0000       8.905786       242.3388 
 132   0.0000       8.905786       242.3388 
 133   0.0000       9.022108       245.5040 
 134   0.0000       9.626177       261.9416 
 135   0.0000       9.626177       261.9416 
 136   0.0000       9.640221       262.3237 
 137   0.0000       9.640768       262.3386 
 138   0.0000       9.640813       262.3399 
 139   0.0000       9.663407       262.9547 
 140   0.0000       9.790044       266.4006 
 141   0.0000       9.790044       266.4006 
 142   0.0000       9.906379       269.5663 

                 SPIN DOWN ORBITALS
  NO   OCC          E(Eh)            E(eV) 
   0   1.0000    -255.854227     -6962.1475 
   1   1.0000     -88.695825     -2413.5361 
   2   1.0000     -29.839750      -811.9809 
   3   1.0000     -25.690170      -699.0651 
   4   1.0000     -25.676658      -698.6974 
   5   1.0000     -25.676658      -698.6974 
   6   1.0000      -7.821121      -212.8235 
   7   1.0000      -5.771384      -157.0473 
   8   1.0000      -5.766229      -156.9071 
   9   1.0000      -5.766229      -156.9071 
  10   1.0000      -3.335626       -90.7670 
  11   1.0000      -2.114143       -57.5287 
  12   1.0000      -2.101926       -57.1963 
  13   1.0000      -2.101926       -57.1963 
  14   1.0000      -0.605490       -16.4762 
  15   1.0000      -0.275449        -7.4953 
  16   1.0000      -0.229167        -6.2360 
  17   1.0000      -0.229167        -6.2360 
  18   1.0000      -0.207204        -5.6383 
  19   0.0000      -0.126666        -3.4468 
  20   0.0000      -0.100193        -2.7264 
  21   0.0000      -0.100193        -2.7264 
  22   0.0000      -0.083677        -2.2770 
  23   0.0000      -0.065504        -1.7825 
  24   0.0000      -0.000617        -0.0168 
  25   0.0000      -0.000617        -0.0168 
  26   0.0000       0.013716         0.3732 
  27   0.0000       0.016482         0.4485 
  28   0.0000       0.040115         1.0916 
  29   0.0000       0.040115         1.0916 
  30   0.0000       0.065981         1.7954 
  31   0.0000       0.066217         1.8019 
  32   0.0000       0.070903         1.9294 
  33   0.0000       0.080140         2.1807 
  34   0.0000       0.084120         2.2890 
  35   0.0000       0.084121         2.2890 
  36   0.0000       0.108738         2.9589 
  37   0.0000       0.108738         2.9589 
  38   0.0000       0.114639         3.1195 
  39   0.0000       0.128275         3.4905 
  40   0.0000       0.189832         5.1656 
  41   0.0000       0.189832         5.1656 
  42   0.0000       0.221310         6.0221 
  43   0.0000       0.224213         6.1011 
  44   0.0000       0.233421         6.3517 
  45   0.0000       0.244989         6.6665 
  46   0.0000       0.286513         7.7964 
  47   0.0000       0.286513         7.7964 
  48   0.0000       0.288399         7.8477 
  49   0.0000       0.301570         8.2061 
  50   0.0000       0.316843         8.6217 
  51   0.0000       0.345017         9.3884 
  52   0.0000       0.345017         9.3884 
  53   0.0000       0.455289        12.3891 
  54   0.0000       0.512864        13.9557 
  55   0.0000       0.518305        14.1038 
  56   0.0000       0.518305        14.1038 
  57   0.0000       0.613297        16.6887 
  58   0.0000       0.613655        16.6984 
  59   0.0000       0.626648        17.0519 
  60   0.0000       0.626648        17.0519 
  61   0.0000       0.629510        17.1298 
  62   0.0000       0.712830        19.3971 
  63   0.0000       0.712830        19.3971 
  64   0.0000       0.732519        19.9328 
  65   0.0000       0.741196        20.1690 
  66   0.0000       0.744753        20.2658 
  67   0.0000       0.779163        21.2021 
  68   0.0000       0.779163        21.2021 
  69   0.0000       0.872969        23.7547 
  70   0.0000       0.897515        24.4226 
  71   0.0000       0.897515        24.4226 
  72   0.0000       0.932570        25.3765 
  73   0.0000       0.932570        25.3765 
  74   0.0000       1.015781        27.6408 
  75   0.0000       1.048650        28.5352 
  76   0.0000       1.062553        28.9135 
  77   0.0000       1.073851        29.2210 
  78   0.0000       1.073851        29.2210 
  79   0.0000       1.097955        29.8769 
  80   0.0000       1.163393        31.6575 
  81   0.0000       1.198426        32.6108 
  82   0.0000       1.364917        37.1413 
  83   0.0000       1.509628        41.0791 
  84   0.0000       1.509628        41.0791 
  85   0.0000       1.821703        49.5711 
  86   0.0000       1.821766        49.5728 
  87   0.0000       1.882470        51.2246 
  88   0.0000       1.924521        52.3689 
  89   0.0000       1.924521        52.3689 
  90   0.0000       2.096287        57.0429 
  91   0.0000       2.113542        57.5124 
  92   0.0000       2.113542        57.5124 
  93   0.0000       2.141869        58.2832 
  94   0.0000       2.142512        58.3007 
  95   0.0000       2.147918        58.4478 
  96   0.0000       2.147918        58.4478 
  97   0.0000       2.183823        59.4248 
  98   0.0000       2.269656        61.7605 
  99   0.0000       2.269656        61.7605 
 100   0.0000       2.692515        73.2671 
 101   0.0000       2.705843        73.6297 
 102   0.0000       2.705843        73.6297 
 103   0.0000       2.752768        74.9066 
 104   0.0000       2.785074        75.7857 
 105   0.0000       2.885289        78.5127 
 106   0.0000       2.885289        78.5127 
 107   0.0000       2.936943        79.9183 
 108   0.0000       3.062804        83.3431 
 109   0.0000       3.062804        83.3431 
 110   0.0000       3.186086        86.6978 
 111   0.0000       3.335450        90.7622 
 112   0.0000       3.335450        90.7622 
 113   0.0000       3.337495        90.8179 
 114   0.0000       3.338231        90.8379 
 115   0.0000       3.401343        92.5553 
 116   0.0000       3.421012        93.0905 
 117   0.0000       3.549337        96.5824 
 118   0.0000       3.702056       100.7381 
 119   0.0000       3.702056       100.7381 
 120   0.0000       3.852732       104.8382 
 121   0.0000       4.536145       123.4348 
 122   0.0000       4.581370       124.6654 
 123   0.0000       4.916329       133.7801 
 124   0.0000       4.916329       133.7801 
 125   0.0000       5.372277       146.1871 
 126   0.0000       6.026512       163.9897 
 127   0.0000       9.002803       244.9787 
 128   0.0000       9.002803       244.9787 
 129   0.0000       9.013977       245.2828 
 130   0.0000       9.048071       246.2105 
 131   0.0000       9.074013       246.9164 
 132   0.0000       9.074013       246.9164 
 133   0.0000       9.187510       250.0049 
 134   0.0000       9.740320       265.0476 
 135   0.0000       9.740320       265.0476 
 136   0.0000       9.744651       265.1654 
 137   0.0000       9.747415       265.2407 
 138   0.0000       9.764550       265.7069 
 139   0.0000       9.772985       265.9365 
 140   0.0000       9.906752       269.5764 
 141   0.0000       9.906752       269.5764 
 142   0.0000      10.023844       272.7627 

                    ********************************
                    * MULLIKEN POPULATION ANALYSIS *
                    ********************************

--------------------------------------------
MULLIKEN ATOMIC CHARGES AND SPIN POPULATIONS
--------------------------------------------
   0 Fe:    0.332297    3.577745
   1 S :   -0.332297    0.422255
Sum of atomic charges         :   -0.0000000
Sum of atomic spin populations:    4.0000000

-----------------------------------------------------
MULLIKEN REDUCED ORBITAL CHARGES AND SPIN POPULATIONS
-----------------------------------------------------
CHARGE
  0 Fes       :     6.682492  s :     6.682492
      pz      :     4.080557  p :    12.287890
      px      :     4.103666
      py      :     4.103666
      dz2     :     1.136929  d :     6.679037
      dxz     :     1.273291
      dyz     :     1.273291
      dx2y2   :     0.998926
      dxy     :     1.996600
      f0      :     0.003910  f :     0.017206
      f+1     :     0.006508
      f-1     :     0.006508
      f+2     :     0.000068
      f-2     :     0.000092
      f+3     :     0.000060
      f-3     :     0.000060
      g0      :     0.000343  g :     0.001079
      g+1     :     0.000345
      g-1     :     0.000345
      g+2     :     0.000004
      g-2     :     0.000014
      g+3     :     0.000005
      g-3     :     0.000005
      g+4     :     0.000020
      g-4     :     0.000000
  1 S s       :     5.900950  s :     5.900950
      pz      :     3.192141  p :    10.388389
      px      :     3.598124
      py      :     3.598124
      dz2     :     0.002325  d :     0.037540
      dxz     :     0.016290
      dyz     :     0.016290
      dx2y2   :     0.000586
      dxy     :     0.002049
      f0      :     0.000332  f :     0.005418
      f+1     :     0.001712
      f-1     :     0.001712
      f+2     :     0.000417
      f-2     :     0.001245
      f+3     :     0.000000
      f-3     :     0.000000

SPIN
  0 Fes       :     0.354750  s :     0.354750
      pz      :    -0.005495  p :     0.082477
      px      :     0.043986
      py      :     0.043986
      dz2     :     0.730237  d :     3.140591
      dxz     :     0.705396
      dyz     :     0.705396
      dx2y2   :     0.998926
      dxy     :     0.000635
      f0      :    -0.000330  f :     0.000201
      f+1     :     0.000237
      f-1     :     0.000237
      f+2     :     0.000068
      f-2     :     0.000068
      f+3     :    -0.000040
      f-3     :    -0.000040
      g0      :    -0.000070  g :    -0.000275
      g+1     :    -0.000107
      g-1     :    -0.000107
      g+2     :     0.000004
      g-2     :     0.000008
      g+3     :    -0.000001
      g-3     :    -0.000001
      g+4     :    -0.000001
      g-4     :    -0.000000
  1 S s       :    -0.001310  s :    -0.001310
      pz      :    -0.078601  p :     0.430754
      px      :     0.254678
      py      :     0.254678
      dz2     :     0.000333  d :    -0.005677
      dxz     :    -0.003054
      dyz     :    -0.003054
      dx2y2   :     0.000586
      dxy     :    -0.000487
      f0      :     0.000487  f :    -0.001512
      f+1     :    -0.001096
      f-1     :    -0.001096
      f+2     :     0.000417
      f-2     :    -0.000225
      f+3     :    -0.000000
      f-3     :    -0.000000


                     *******************************
                     * LOEWDIN POPULATION ANALYSIS *
                     *******************************

-------------------------------------------
LOEWDIN ATOMIC CHARGES AND SPIN POPULATIONS
-------------------------------------------
   0 Fe:    0.110937    3.556299
   1 S :   -0.110937    0.443701

----------------------------------------------------
LOEWDIN REDUCED ORBITAL CHARGES AND SPIN POPULATIONS
----------------------------------------------------
CHARGE
  0 Fes       :     6.383795  s :     6.383795
      pz      :     4.221775  p :    12.484515
      px      :     4.131370
      py      :     4.131370
      dz2     :     1.268852  d :     6.885854
      dxz     :     1.324925
      dyz     :     1.324925
      dx2y2   :     0.990598
      dxy     :     1.976554
      f0      :     0.046201  f :     0.130165
      f+1     :     0.041419
      f-1     :     0.041419
      f+2     :     0.000351
      f-2     :     0.000655
      f+3     :     0.000060
      f-3     :     0.000060
      g0      :     0.001842  g :     0.004734
      g+1     :     0.001426
      g-1     :     0.001426
      g+2     :     0.000003
      g-2     :     0.000008
      g+3     :     0.000005
      g-3     :     0.000005
      g+4     :     0.000020
      g-4     :     0.000000
  1 S s       :     5.466795  s :     5.466795
      pz      :     3.386084  p :    10.211736
      px      :     3.412826
      py      :     3.412826
      dz2     :     0.135058  d :     0.240048
      dxz     :     0.047008
      dyz     :     0.047008
      dx2y2   :     0.002849
      dxy     :     0.008124
      f0      :     0.089578  f :     0.192357
      f+1     :     0.040961
      f-1     :     0.040961
      f+2     :     0.006199
      f-2     :     0.014659
      f+3     :     0.000000
      f-3     :     0.000000

SPIN
  0 Fes       :     0.300093  s :     0.300093
      pz      :    -0.005650  p :     0.157641
      px      :     0.081645
      py      :     0.081645
      dz2     :     0.707593  d :     3.079447
      dxz     :     0.689844
      dyz     :     0.689844
      dx2y2   :     0.990598
      dxy     :     0.001568
      f0      :    -0.000620  f :     0.018943
      f+1     :     0.009554
      f-1     :     0.009554
      f+2     :     0.000351
      f-2     :     0.000182
      f+3     :    -0.000040
      f-3     :    -0.000040
      g0      :    -0.000175  g :     0.000175
      g+1     :     0.000173
      g-1     :     0.000173
      g+2     :     0.000003
      g-2     :     0.000005
      g+3     :    -0.000001
      g-3     :    -0.000001
      g+4     :    -0.000001
      g-4     :    -0.000000
  1 S s       :     0.011459  s :     0.011459
      pz      :    -0.026779  p :     0.370025
      px      :     0.198402
      py      :     0.198402
      dz2     :     0.011172  d :     0.034567
      dxz     :     0.010775
      dyz     :     0.010775
      dx2y2   :     0.002849
      dxy     :    -0.001003
      f0      :     0.002908  f :     0.027650
      f+1     :     0.009648
      f-1     :     0.009648
      f+2     :     0.006199
      f-2     :    -0.000752
      f+3     :    -0.000000
      f-3     :    -0.000000


                      *****************************
                      * MAYER POPULATION ANALYSIS *
                      *****************************

  NA   - Mulliken gross atomic population
  ZA   - Total nuclear charge
  QA   - Mulliken gross atomic charge
  VA   - Mayer's total valence
  BVA  - Mayer's bonded valence
  FA   - Mayer's free valence

  ATOM       NA         ZA         QA         VA         BVA        FA
  0 Fe    25.6677    26.0000     0.3323     5.2469     2.2387     3.0082
  1 S     16.3323    16.0000    -0.3323     2.3958     2.2387     0.1571

  Mayer bond orders larger than 0.100000
B(  0-Fe,  1-S ) :   2.2387 

-------
TIMINGS
-------

Total SCF time: 0 days 0 hours 2 min 17 sec 

Total time                  ....     137.203 sec
Sum of individual times     ....     136.848 sec  ( 99.7%)

Fock matrix formation       ....     136.447 sec  ( 99.4%)
  XC integration            ....       1.102 sec  (  0.8% of F)
    Basis function eval.    ....       0.121 sec  ( 11.0% of XC)
    Density eval.           ....       0.113 sec  ( 10.2% of XC)
    XC-Functional eval.     ....       0.028 sec  (  2.6% of XC)
    XC-Potential eval.      ....       0.355 sec  ( 32.2% of XC)
Diagonalization             ....       0.088 sec  (  0.1%)
Density matrix formation    ....       0.011 sec  (  0.0%)
Population analysis         ....       0.007 sec  (  0.0%)
Initial guess               ....       0.107 sec  (  0.1%)
Orbital Transformation      ....       0.000 sec  (  0.0%)
Orbital Orthonormalization  ....       0.000 sec  (  0.0%)
DIIS solution               ....       0.031 sec  (  0.0%)
Grid generation             ....       0.157 sec  (  0.1%)


-------------------------------------------------------------------------------
                          DFT DISPERSION CORRECTION                            
                                                                               
                              DFTD3 V3.1  Rev 1                                
                          USING Becke-Johnson damping                          
-------------------------------------------------------------------------------
The TPSSH functional is recognized
Active option DFTDOPT                   ...         4   

molecular C6(AA) [au] = 691.573221 


            DFT-D V3
 parameters
 s6 scaling factor         :     1.0000 
 a1 scaling factor         :     0.4529 
 s8 scaling factor         :     2.2382 
 a2 scaling factor         :     4.6550 
 ad hoc parameters k1-k3   :    16.0000     1.3333    -4.0000 

 Edisp/kcal,au: -0.958144805649  -0.001526900777 
 E6   /kcal   :  -0.302076671 
 E8   /kcal   :  -0.656068134 
 % E8         :  68.472753840 

-------------------------   ----------------
Dispersion correction           -0.001526901
-------------------------   ----------------


-------------------------   --------------------
FINAL SINGLE POINT ENERGY     -1661.982856463937
-------------------------   --------------------


                            ***************************************
                            *     ORCA property calculations      *
                            ***************************************

                                    ---------------------
                                    Active property flags
                                    ---------------------
   (+) Dipole Moment


------------------------------------------------------------------------------
                       ORCA ELECTRIC PROPERTIES CALCULATION
------------------------------------------------------------------------------

Dipole Moment Calculation                       ... on
Quadrupole Moment Calculation                   ... off
Polarizability Calculation                      ... off
GBWName                                         ... 36_FeS.gbw
Electron density file                           ... 36_FeS.scfp
The origin for moment calculation is the CENTER OF MASS  = ( 0.000000,  0.000000  1.375269)

-------------
DIPOLE MOMENT
-------------
                                X             Y             Z
Electronic contribution:     -0.00000       0.00000      -4.76273
Nuclear contribution   :      0.00000       0.00000       2.59672
                        -----------------------------------------
Total Dipole Moment    :     -0.00000       0.00000      -2.16601
                        -----------------------------------------
Magnitude (a.u.)       :      2.16601
Magnitude (Debye)      :      5.50555



--------------------
Rotational spectrum 
--------------------
 
Rotational constants in cm-1:     0.000000     0.204456     0.204456 
Rotational constants in MHz :     0.000000  6129.444038  6129.444038 

 Dipole components along the rotational axes: 
x,y,z [a.u.] :    -2.166007     0.000000    -0.000000 
x,y,z [Debye]:    -5.505552     0.000000    -0.000000 

 

Timings for individual modules:

Sum of individual times         ...      141.258 sec (=   2.354 min)
GTO integral calculation        ...        3.603 sec (=   0.060 min)   2.6 %
SCF iterations                  ...      137.655 sec (=   2.294 min)  97.4 %
                             ****ORCA TERMINATED NORMALLY****
TOTAL RUN TIME: 0 days 0 hours 2 minutes 21 seconds 909 msec
