
                                 *****************
                                 * O   R   C   A *
                                 *****************

           --- An Ab Initio, DFT and Semiempirical electronic structure package ---

                  #######################################################
                  #                        -***-                        #
                  #          Department of theory and spectroscopy      #
                  #               Directorship: Frank Neese             #
                  #        Max Planck Institute fuer Kohlenforschung    #
                  #                Kaiser Wilhelm Platz 1               #
                  #                 D-45470 Muelheim/Ruhr               #
                  #                      Germany                        #
                  #                                                     #
                  #                  All rights reserved                #
                  #                        -***-                        #
                  #######################################################


                         Program Version 4.2.0 -  RELEASE  -


 With contributions from (in alphabetic order):
   Daniel Aravena         : Magnetic Suceptibility
   Michael Atanasov       : Ab Initio Ligand Field Theory (pilot matlab implementation)
   Alexander A. Auer      : GIAO ZORA, VPT2
   Ute Becker             : Parallelization
   Giovanni Bistoni       : ED, misc. LED, open-shell LED, HFLED
   Martin Brehm           : Molecular dynamics
   Dmytro Bykov           : SCF Hessian
   Vijay G. Chilkuri      : MRCI spin determinant printing, contributions to CSF-ICE
   Dipayan Datta          : RHF DLPNO-CCSD density
   Achintya Kumar Dutta   : EOM-CC, STEOM-CC
   Dmitry Ganyushin       : Spin-Orbit,Spin-Spin,Magnetic field MRCI
   Miquel Garcia          : C-PCM Hessian, Gaussian charge scheme
   Yang Guo               : DLPNO-NEVPT2, CIM, IAO-localization
   Andreas Hansen         : Spin unrestricted coupled pair/coupled cluster methods
   Benjamin Helmich-Paris : CASSCF linear response (MC-RPA)
   Lee Huntington         : MR-EOM, pCC
   Robert Izsak           : Overlap fitted RIJCOSX, COSX-SCS-MP3, EOM
   Christian Kollmar      : KDIIS, OOCD, Brueckner-CCSD(T), CCSD density
   Simone Kossmann        : Meta GGA functionals, TD-DFT gradient, OOMP2, MP2 Hessian
   Martin Krupicka        : AUTO-CI
   Lucas Lang             : DCDCAS
   Dagmar Lenk            : GEPOL surface, SMD
   Dimitrios Liakos       : Extrapolation schemes; Compound Job, initial MDCI parallelization
   Dimitrios Manganas     : Further ROCIS development; embedding schemes
   Dimitrios Pantazis     : SARC Basis sets
   Taras Petrenko         : DFT Hessian,TD-DFT gradient, ASA, ECA, R-Raman, ABS, FL, XAS/XES, NRVS
   Peter Pinski           : DLPNO-MP2, DLPNO-MP2 Gradient
   Christoph Reimann      : Effective Core Potentials
   Marius Retegan         : Local ZFS, SOC
   Christoph Riplinger    : Optimizer, TS searches, QM/MM, DLPNO-CCSD(T), (RO)-DLPNO pert. Triples
   Tobias Risthaus        : Range-separated hybrids, TD-DFT gradient, RPA, STAB
   Michael Roemelt        : Original ROCIS implementation
   Masaaki Saitow         : Open-shell DLPNO-CCSD energy and density
   Barbara Sandhoefer     : DKH picture change effects
   Avijit Sen             : IP-ROCIS
   Kantharuban Sivalingam : CASSCF convergence, NEVPT2, FIC-MRCI
   Bernardo de Souza      : ESD, SOC TD-DFT
   Georgi Stoychev        : AutoAux, RI-MP2 NMR
   Willem Van den Heuvel  : Paramagnetic NMR
   Boris Wezisla          : Elementary symmetry handling
   Frank Wennmohs         : Technical directorship


 We gratefully acknowledge several colleagues who have allowed us to
 interface, adapt or use parts of their codes:
   Stefan Grimme, W. Hujo, H. Kruse,             : VdW corrections, initial TS optimization,
                  C. Bannwarth                     DFT functionals, gCP, sTDA/sTD-DF
   Ed Valeev, F. Pavosevic, A. Kumar             : LibInt (2-el integral package), F12 methods
   Garnet Chan, S. Sharma, J. Yang, R. Olivares  : DMRG
   Ulf Ekstrom                                   : XCFun DFT Library
   Mihaly Kallay                                 : mrcc  (arbitrary order and MRCC methods)
   Andreas Klamt, Michael Diedenhofen            : otool_cosmo (COSMO solvation model)
   Jiri Pittner, Ondrej Demel                    : Mk-CCSD
   Frank Weinhold                                : gennbo (NPA and NBO analysis)
   Christopher J. Cramer and Donald G. Truhlar   : smd solvation model
   Lars Goerigk                                  : TD-DFT with DH, B97 family of functionals
   V. Asgeirsson, H. Jonsson                     : NEB implementation
   FAccTs GmbH                                   : IRC, NEB, NEB-TS, Multilevel, MM, QM/MM, CI optimization
   S Lehtola, MJT Oliveira, MAL Marques          : LibXC Library


 Your calculation uses the libint2 library for the computation of 2-el integrals
 For citations please refer to: http://libint.valeyev.net

 Your ORCA version has been built with support for libXC version: 4.2.3
 For citations please refer to: https://tddft.org/programs/libxc/

 This ORCA versions uses:
   CBLAS   interface :  Fast vector & matrix operations
   LAPACKE interface :  Fast linear algebra routines
   SCALAPACK package :  Parallel linear algebra routines


Your calculation utilizes the atom-pairwise dispersion correction
with the Becke-Johnson damping scheme (D3BJ)
Cite in your paper:
S.Grimme, S.Ehrlich, L.Goerigk, J Comput Chem, (2011), 32, 1456–1465 
S.Grimme, J.Antony, S.Ehrlich and H.Krieg, J.Chem.Phys., 132, (2010), 154104 
   

----- Orbital basis set information -----
Your calculation utilizes the basis: aug-cc-pVTZ 
    H, B-Ne : Obtained from the ccRepo (grant-hill.group.shef.ac.uk/ccrepo) Feb. 2017
              R. A. Kendall, T. H. Dunning, Jr., R. J. Harrison, J. Chem. Phys. 96, 6796 (1992)
         He : Obtained from the ccRepo (grant-hill.group.shef.ac.uk/ccrepo) Feb. 2017
              D. E. Woon, T. H. Dunning, Jr., J. Chem. Phys. 100, 2975 (1994)
  Li-Be, Na : Obtained from the ccRepo (grant-hill.group.shef.ac.uk/ccrepo) Feb. 2017
              B. P. Prascher, D. E. Woon, K. A. Peterson, T. H. Dunning, Jr., A. K. Wilson, Theor. Chem. Acc. 128, 69 (2011)
         Mg : Obtained from the Peterson Research Group Website (tyr0.chem.wsu.edu/~kipeters) Feb. 2017
              B. P. Prascher, D. E. Woon, K. A. Peterson, T. H. Dunning, Jr., A. K. Wilson, Theor. Chem. Acc. 128, 69 (2011)
      Al-Ar : Obtained from the ccRepo (grant-hill.group.shef.ac.uk/ccrepo) Feb. 2017
              D. E. Woon, T. H. Dunning, Jr., J. Chem. Phys. 98, 1358 (1993)
      Sc-Zn : Obtained from the ccRepo (grant-hill.group.shef.ac.uk/ccrepo) Feb. 2017
              N. B. Balabanov, K. A. Peterson, J. Chem. Phys. 123, 064107 (2005)
              N. B. Balabanov, K. A. Peterson, J. Chem. Phys. 125, 074110 (2006)
      Ga-Kr : Obtained from the ccRepo (grant-hill.group.shef.ac.uk/ccrepo) Feb. 2017
              A. K. Wilson, D. E. Woon, K. A. Peterson, T. H. Dunning, Jr., J. Chem. Phys. 110, 7667 (1999)
     Ag, Au : Obtained from the Peterson Research Group Website (tyr0.chem.wsu.edu/~kipeters) Feb. 2017
              K. A. Peterson, C. Puzzarini, Theor. Chem. Acc. 114, 283 (2005)

----- AuxJK basis set information -----
Your calculation utilizes the auxiliary basis: def2/JK
   H-Ba, Hf-Rn: F. Weigend, J. Comput. Chem. 29, 167 (2008).

================================================================================
                                        WARNINGS
                       Please study these warnings very carefully!
================================================================================


WARNING: your system is open-shell and RHF/RKS was chosen
  ===> : WILL SWITCH to UHF/UKS


INFO   : the flag for use of LIBINT has been found!

================================================================================
                                       INPUT FILE
================================================================================
NAME = 39_CoCl.in
|  1> #
|  2> # 39_CoCl tpssh/aug-cc-pvtz
|  3> #
|  4> ! tpssh d3bj aug-cc-pvtz def2/jk grid4 nofinalgrid
|  5> 
|  6> *xyz 0 3
|  7>   Co  0.00000000000000      0.00000000000000     -0.04491550120186
|  8>   Cl  0.00000000000000      0.00000000000000      2.04491550120186
|  9> *
| 10> 
| 11> %pal
| 12> nprocs 24
| 13> end
| 14> 
| 15> 
| 16>                          ****END OF INPUT****
================================================================================

                       ****************************
                       * Single Point Calculation *
                       ****************************

---------------------------------
CARTESIAN COORDINATES (ANGSTROEM)
---------------------------------
  Co     0.000000    0.000000   -0.044916
  Cl     0.000000    0.000000    2.044916

----------------------------
CARTESIAN COORDINATES (A.U.)
----------------------------
  NO LB      ZA    FRAG     MASS         X           Y           Z
   0 Co   27.0000    0    58.930    0.000000    0.000000   -0.084878
   1 Cl   17.0000    0    35.453    0.000000    0.000000    3.864330

--------------------------------
INTERNAL COORDINATES (ANGSTROEM)
--------------------------------
 Co     0   0   0     0.000000000000     0.00000000     0.00000000
 Cl     1   0   0     2.089831002404     0.00000000     0.00000000

---------------------------
INTERNAL COORDINATES (A.U.)
---------------------------
 Co     0   0   0     0.000000000000     0.00000000     0.00000000
 Cl     1   0   0     3.949208260721     0.00000000     0.00000000

---------------------
BASIS SET INFORMATION
---------------------
There are 2 groups of distinct atoms

 Group   1 Type Co  : 116s77p23d3f2g contracted to 8s7p5d3f2g pattern {19191919191911/151515151511/77711/111/11}
 Group   2 Type Cl  : 42s17p3d2f contracted to 6s5p3d2f pattern {131313111/77111/111/11}

Atom   0Co   basis set group =>   1
Atom   1Cl   basis set group =>   2
----------------------------------
AUXILIARY/JK BASIS SET INFORMATION
----------------------------------
There are 2 groups of distinct atoms

 Group   1 Type Co  : 19s14p12d10f7g3h1i contracted to 16s13p11d9f5g3h1i pattern {4111111111111111/2111111111111/21111111111/211111111/31111/111/1}
 Group   2 Type Cl  : 16s12p10d4f1g contracted to 13s11p9d4f1g pattern {4111111111111/21111111111/211111111/1111/1}

Atom   0Co   basis set group =>   1
Atom   1Cl   basis set group =>   2


           ************************************************************
           *        Program running with 24 parallel MPI-processes    *
           *              working on a common directory               *
           ************************************************************
------------------------------------------------------------------------------
                           ORCA GTO INTEGRAL CALCULATION
------------------------------------------------------------------------------

                         BASIS SET STATISTICS AND STARTUP INFO

 # of primitive gaussian shells          ...  285
 # of primitive gaussian functions       ...  623
 # of contracted shells                  ...   41
 # of contracted basis functions         ...  143
 Highest angular momentum                ...    4
 Maximum contraction depth               ...   19
 Integral package used                   ... LIBINT
 Integral threshhold            Thresh   ...  1.000e-10
 Primitive cut-off              TCut     ...  1.000e-11


------------------------------ INTEGRAL EVALUATION ----------------------------


 * One electron integrals 
 Pre-screening matrix                    ... done
 Shell pair data                         ... done (   0.002 sec)



           ************************************************************
           *        Program running with 24 parallel MPI-processes    *
           *              working on a common directory               *
           ************************************************************
-------------------------------------------------------------------------------
                                 ORCA SCF
-------------------------------------------------------------------------------

------------
SCF SETTINGS
------------
Hamiltonian:
 Density Functional     Method          .... DFT(GTOs)
 Exchange Functional    Exchange        .... TPSS
 Correlation Functional Correlation     .... TPSS
 LDA part of GGA corr.  LDAOpt          .... PW91-LDA
 Gradients option       PostSCFGGA      .... off
 Hybrid DFT is turned on
   Fraction HF Exchange ScalHFX         ....  0.100000
   Scaling of DF-GGA-X  ScalDFX         ....  0.900000
   Scaling of DF-GGA-C  ScalDFC         ....  1.000000
   Scaling of DF-LDA-C  ScalLDAC        ....  1.000000
   Perturbative correction              ....  0.000000
   Density functional embedding theory  .... OFF
   NL short-range parameter             ....  5.200000


General Settings:
 Integral files         IntName         .... 39_CoCl
 Hartree-Fock type      HFTyp           .... UHF
 Total Charge           Charge          ....    0
 Multiplicity           Mult            ....    3
 Number of Electrons    NEL             ....   44
 Basis Dimension        Dim             ....  143
 Nuclear Repulsion      ENuc            ....    116.2258279882 Eh

Convergence Acceleration:
 DIIS                   CNVDIIS         .... on
   Start iteration      DIISMaxIt       ....    12
   Startup error        DIISStart       ....  0.200000
   # of expansion vecs  DIISMaxEq       ....     5
   Bias factor          DIISBfac        ....   1.050
   Max. coefficient     DIISMaxC        ....  10.000
 Newton-Raphson         CNVNR           .... off
 SOSCF                  CNVSOSCF        .... off
 Level Shifting         CNVShift        .... on
   Level shift para.    LevelShift      ....    0.2500
   Turn off err/grad.   ShiftErr        ....    0.0010
 Zerner damping         CNVZerner       .... off
 Static damping         CNVDamp         .... on
   Fraction old density DampFac         ....    0.7000
   Max. Damping (<1)    DampMax         ....    0.9800
   Min. Damping (>=0)   DampMin         ....    0.0000
   Turn off err/grad.   DampErr         ....    0.1000
 Fernandez-Rico         CNVRico         .... off

SCF Procedure:
 Maximum # iterations   MaxIter         ....   125
 SCF integral mode      SCFMode         .... Direct
   Integral package                     .... LIBINT
 Reset frequency        DirectResetFreq ....    20
 Integral Threshold     Thresh          ....  1.000e-10 Eh
 Primitive CutOff       TCut            ....  1.000e-11 Eh

Convergence Tolerance:
 Convergence Check Mode ConvCheckMode   .... Total+1el-Energy
 Convergence forced     ConvForced      .... 0
 Energy Change          TolE            ....  1.000e-06 Eh
 1-El. energy change                    ....  1.000e-03 Eh
 DIIS Error             TolErr          ....  1.000e-06


Diagonalization of the overlap matrix:
Smallest eigenvalue                        ... 1.371e-04
Time for diagonalization                   ...    0.006 sec
Threshold for overlap eigenvalues          ... 1.000e-08
Number of eigenvalues below threshold      ... 0
Time for construction of square roots      ...    0.002 sec
Total time needed                          ...    0.008 sec

-------------------
DFT GRID GENERATION
-------------------

General Integration Accuracy     IntAcc      ...  4.670
Radial Grid Type                 RadialGrid  ... Gauss-Chebyshev
Angular Grid (max. acc.)         AngularGrid ... Lebedev-302
Angular grid pruning method      GridPruning ... 3 (G Style)
Weight generation scheme         WeightScheme... Becke
Basis function cutoff            BFCut       ...    1.0000e-10
Integration weight cutoff        WCut        ...    1.0000e-14
Grids for H and He will be reduced by one unit

# of grid points (after initial pruning)     ...  16378 (   0.0 sec)
# of grid points (after weights+screening)   ...  16349 (   0.0 sec)
nearest neighbour list constructed           ...    0.0 sec
Grid point re-assignment to atoms done       ...    0.0 sec
Grid point division into batches done        ...    0.1 sec
Reduced shell lists constructed in    0.1 sec

Total number of grid points                  ...    16349
Total number of batches                      ...      257
Average number of points per batch           ...       63
Average number of grid points per atom       ...     8174
Average number of shells per batch           ...    13.00 (31.71%)
Average number of basis functions per batch  ...    30.17 (21.10%)
Average number of large shells per batch     ...     6.83 (52.56%)
Average number of large basis fcns per batch ...    17.83 (59.12%)
Maximum spatial batch extension              ...  24.49, 24.19, 17.58 au
Average spatial batch extension              ...   0.85,  0.84,  0.65 au

Time for grid setup =    0.185 sec

------------------------------
INITIAL GUESS: MODEL POTENTIAL
------------------------------
Loading Hartree-Fock densities                     ... done
Calculating cut-offs                               ... done
Setting up the integral package                    ... done
Initializing the effective Hamiltonian             ... done
Starting the Coulomb interaction                   ... done (   0.0 sec)
Reading the grid                                   ... done
Mapping shells                                     ... done
Starting the XC term evaluation                    ... done (   0.0 sec)
  promolecular density results
     # of electrons  =     44.000019281
     EX              =    -85.122161300
     EC              =     -1.873884553
     EX+EC           =    -86.996045853
Transforming the Hamiltonian                       ... done (   0.0 sec)
Diagonalizing the Hamiltonian                      ... done (   0.0 sec)
Back transforming the eigenvectors                 ... done (   0.0 sec)
Now organizing SCF variables                       ... done
                      ------------------
                      INITIAL GUESS DONE (   0.3 sec)
                      ------------------
--------------
SCF ITERATIONS
--------------
ITER       Energy         Delta-E        Max-DP      RMS-DP      [F,P]     Damp
               ***  Starting incremental Fock matrix formation  ***
  0  -1842.9303372275   0.000000000000 0.05096456  0.00122323  0.3605794 0.7000
  1  -1842.9787965202  -0.048459292709 0.02800586  0.00049325  0.0510459 0.7000
                               ***Turning on DIIS***
  2  -1842.9955776139  -0.016781093690 0.10810978  0.00123038  0.0591896 0.0000
  3  -1843.0419055588  -0.046327944823 0.01248938  0.00022078  0.1163327 0.7000
  4  -1843.0467570298  -0.004851471074 0.06403901  0.00064576  0.0847376 0.0000
  5  -1843.0573039095  -0.010546879672 0.04065479  0.00030400  0.0183324 0.0000
  6  -1843.0602349578  -0.002931048325 0.04470554  0.00037468  0.0186354 0.0000
  7  -1843.0635308667  -0.003295908836 0.04971843  0.00040029  0.0184697 0.0000
  8  -1843.0667782092  -0.003247342561 0.05523421  0.00041266  0.0178965 0.0000
  9  -1843.0698397126  -0.003061503369 0.05472053  0.00039067  0.0169838 0.0000
 10  -1843.0724852977  -0.002645585142 0.05204349  0.00035738  0.0157597 0.0000
 11  -1843.0746824327  -0.002197134935 0.06810658  0.00046687  0.0145557 0.0000
 12  -1843.0771924010  -0.002509968287 0.04247735  0.00028223  0.0128975 0.0000
 13  -1843.0785838144  -0.001391413465 0.07209224  0.00049292  0.0112918 0.0000
 14  -1843.0804118517  -0.001828037231 0.04224707  0.00028272  0.0109493 0.0000
 15  -1843.0814390537  -0.001027202053 0.04301313  0.00029138  0.0073162 0.0000
 16  -1843.0822064765  -0.000767422756 0.02560325  0.00017427  0.0063232 0.0000
 17  -1843.0826102427  -0.000403766246 0.03213514  0.00022596  0.0043632 0.0000
 18  -1843.0829158257  -0.000305583006 0.01361229  0.00009626  0.0073721 0.0000
 19  -1843.0830936522  -0.000177826519 0.01615025  0.00011417  0.0025765 0.0000
               *** Restarting incremental Fock matrix formation ***
                                   *** Resetting DIIS ***
 20  -1843.0831957479  -0.000102095620 0.00492198  0.00004685  0.0034701 0.0000
 21  -1843.0832233483  -0.000027600424 0.00308432  0.00003706  0.0062594 0.0000
 22  -1843.0832663129  -0.000042964600 0.00276963  0.00002418  0.0010727 0.0000
 23  -1843.0832839523  -0.000017639386 0.01039759  0.00008924  0.0009579 0.0000
 24  -1843.0833300078  -0.000046055528 0.00100697  0.00001134  0.0021630 0.0000
 25  -1843.0833367130  -0.000006705239 0.00681645  0.00006249  0.0008189 0.0000
 26  -1843.0833548911  -0.000018178066 0.00231336  0.00002397  0.0002258 0.0000
 27  -1843.0833586770  -0.000003785878 0.00197893  0.00002266  0.0003602 0.0000
 28  -1843.0833608615  -0.000002184503 0.00039941  0.00000547  0.0000508 0.0000
 29  -1843.0833611733  -0.000000311816 0.00033538  0.00000480  0.0000371 0.0000
                 **** Energy Check signals convergence ****

               *****************************************************
               *                     SUCCESS                       *
               *           SCF CONVERGED AFTER  30 CYCLES          *
               *****************************************************


----------------
TOTAL SCF ENERGY
----------------

Total Energy       :        -1843.08336137 Eh          -50152.84798 eV

Components:
Nuclear Repulsion  :          116.22582799 Eh            3162.66557 eV
Electronic Energy  :        -1959.30918936 Eh          -53315.51355 eV
One Electron Energy:        -2785.14039421 Eh          -75787.52309 eV
Two Electron Energy:          825.83120485 Eh           22472.00954 eV

Virial components:
Potential Energy   :        -3683.04316334 Eh         -100220.69960 eV
Kinetic Energy     :         1839.95980196 Eh           50067.85161 eV
Virial Ratio       :            2.00169762


DFT components:
N(Alpha)           :       23.000003241610 electrons
N(Beta)            :       21.000003340989 electrons
N(Total)           :       44.000006582599 electrons
E(X)               :      -77.260463056419 Eh       
E(C)               :       -1.888261699103 Eh       
E(XC)              :      -79.148724755523 Eh       
DFET-embed. en.    :        0.000000000000 Eh       

---------------
SCF CONVERGENCE
---------------

  Last Energy change         ...   -2.0151e-07  Tolerance :   1.0000e-06
  Last MAX-Density change    ...    3.9723e-04  Tolerance :   1.0000e-05
  Last RMS-Density change    ...    4.8322e-06  Tolerance :   1.0000e-06
  Last DIIS Error            ...    3.1392e-05  Tolerance :   1.0000e-06

             **** THE GBW FILE WAS UPDATED (39_CoCl.gbw) ****
             **** DENSITY FILE WAS UPDATED (39_CoCl.scfp) ****
             **** ENERGY FILE WAS UPDATED (39_CoCl.en.tmp) ****
----------------------
UHF SPIN CONTAMINATION
----------------------

Warning: in a DFT calculation there is little theoretical justification to 
         calculate <S**2> as in Hartree-Fock theory. We will do it anyways
         but you should keep in mind that the values have only limited relevance

Expectation value of <S**2>     :     2.015463
Ideal value S*(S+1) for S=1.0   :     2.000000
Deviation                       :     0.015463

             **** THE GBW FILE WAS UPDATED (39_CoCl.gbw) ****
             **** DENSITY FILE WAS UPDATED (39_CoCl.scfp) ****
----------------
ORBITAL ENERGIES
----------------
                 SPIN UP ORBITALS
  NO   OCC          E(Eh)            E(eV) 
   0   1.0000    -277.267437     -7544.8305 
   1   1.0000    -101.358383     -2758.1018 
   2   1.0000     -32.660015      -888.7242 
   3   1.0000     -28.278667      -769.5017 
   4   1.0000     -28.274060      -769.3763 
   5   1.0000     -28.272687      -769.3389 
   6   1.0000      -9.336516      -254.0595 
   7   1.0000      -7.081608      -192.7003 
   8   1.0000      -7.078706      -192.6214 
   9   1.0000      -7.077508      -192.5888 
  10   1.0000      -3.701087      -100.7117 
  11   1.0000      -2.389010       -65.0083 
  12   1.0000      -2.388430       -64.9925 
  13   1.0000      -2.379044       -64.7371 
  14   1.0000      -0.741957       -20.1897 
  15   1.0000      -0.340219        -9.2578 
  16   1.0000      -0.316384        -8.6092 
  17   1.0000      -0.297207        -8.0874 
  18   1.0000      -0.280164        -7.6236 
  19   1.0000      -0.251585        -6.8460 
  20   1.0000      -0.243656        -6.6302 
  21   1.0000      -0.230269        -6.2659 
  22   1.0000      -0.225980        -6.1492 
  23   0.0000      -0.121121        -3.2959 
  24   0.0000      -0.017005        -0.4627 
  25   0.0000      -0.015096        -0.4108 
  26   0.0000       0.009807         0.2669 
  27   0.0000       0.012867         0.3501 
  28   0.0000       0.038433         1.0458 
  29   0.0000       0.039514         1.0752 
  30   0.0000       0.068177         1.8552 
  31   0.0000       0.070060         1.9064 
  32   0.0000       0.070219         1.9108 
  33   0.0000       0.079018         2.1502 
  34   0.0000       0.083781         2.2798 
  35   0.0000       0.084824         2.3082 
  36   0.0000       0.114897         3.1265 
  37   0.0000       0.124156         3.3785 
  38   0.0000       0.124345         3.3836 
  39   0.0000       0.134546         3.6612 
  40   0.0000       0.196892         5.3577 
  41   0.0000       0.199230         5.4213 
  42   0.0000       0.236545         6.4367 
  43   0.0000       0.261655         7.1200 
  44   0.0000       0.262423         7.1409 
  45   0.0000       0.266953         7.2642 
  46   0.0000       0.301577         8.2063 
  47   0.0000       0.303876         8.2689 
  48   0.0000       0.324026         8.8172 
  49   0.0000       0.325962         8.8699 
  50   0.0000       0.359417         9.7802 
  51   0.0000       0.398904        10.8547 
  52   0.0000       0.399835        10.8801 
  53   0.0000       0.458970        12.4892 
  54   0.0000       0.554195        15.0804 
  55   0.0000       0.586851        15.9690 
  56   0.0000       0.587047        15.9744 
  57   0.0000       0.724613        19.7177 
  58   0.0000       0.760010        20.6809 
  59   0.0000       0.760073        20.6826 
  60   0.0000       0.765475        20.8296 
  61   0.0000       0.766394        20.8546 
  62   0.0000       0.823178        22.3998 
  63   0.0000       0.832723        22.6595 
  64   0.0000       0.835983        22.7482 
  65   0.0000       0.916267        24.9329 
  66   0.0000       0.917380        24.9632 
  67   0.0000       0.949286        25.8314 
  68   0.0000       0.949398        25.8344 
  69   0.0000       0.950511        25.8647 
  70   0.0000       1.075079        29.2544 
  71   0.0000       1.075104        29.2551 
  72   0.0000       1.107336        30.1321 
  73   0.0000       1.113229        30.2925 
  74   0.0000       1.162691        31.6384 
  75   0.0000       1.210038        32.9268 
  76   0.0000       1.218084        33.1457 
  77   0.0000       1.222648        33.2699 
  78   0.0000       1.222827        33.2748 
  79   0.0000       1.223809        33.3015 
  80   0.0000       1.311665        35.6922 
  81   0.0000       1.316764        35.8310 
  82   0.0000       1.503965        40.9250 
  83   0.0000       1.681258        45.7494 
  84   0.0000       1.685949        45.8770 
  85   0.0000       1.993735        54.2523 
  86   0.0000       2.244064        61.0641 
  87   0.0000       2.244352        61.0719 
  88   0.0000       2.365409        64.3661 
  89   0.0000       2.367436        64.4212 
  90   0.0000       2.429955        66.1224 
  91   0.0000       2.447974        66.6128 
  92   0.0000       2.448880        66.6374 
  93   0.0000       2.783381        75.7397 
  94   0.0000       2.783383        75.7397 
  95   0.0000       2.823155        76.8219 
  96   0.0000       2.823400        76.8286 
  97   0.0000       2.852409        77.6180 
  98   0.0000       2.856967        77.7420 
  99   0.0000       2.858806        77.7921 
 100   0.0000       2.943662        80.1011 
 101   0.0000       3.132544        85.2408 
 102   0.0000       3.133606        85.2698 
 103   0.0000       3.177015        86.4510 
 104   0.0000       3.189544        86.7919 
 105   0.0000       3.219942        87.6191 
 106   0.0000       3.278983        89.2257 
 107   0.0000       3.292060        89.5815 
 108   0.0000       3.370789        91.7238 
 109   0.0000       3.370907        91.7270 
 110   0.0000       3.443704        93.7079 
 111   0.0000       3.804619       103.5290 
 112   0.0000       4.007043       109.0372 
 113   0.0000       4.007158       109.0403 
 114   0.0000       4.010014       109.1180 
 115   0.0000       4.010187       109.1227 
 116   0.0000       4.044981       110.0695 
 117   0.0000       4.052421       110.2720 
 118   0.0000       4.219725       114.8246 
 119   0.0000       4.227621       115.0394 
 120   0.0000       4.379159       119.1630 
 121   0.0000       5.083164       138.3199 
 122   0.0000       5.109155       139.0272 
 123   0.0000       5.303161       144.3063 
 124   0.0000       5.332486       145.1043 
 125   0.0000       5.964408       162.2998 
 126   0.0000       6.471084       176.0871 
 127   0.0000      10.371175       282.2140 
 128   0.0000      10.376784       282.3667 
 129   0.0000      10.382270       282.5159 
 130   0.0000      10.410287       283.2783 
 131   0.0000      10.441983       284.1408 
 132   0.0000      10.486503       285.3523 
 133   0.0000      10.508453       285.9496 
 134   0.0000      11.502957       313.0114 
 135   0.0000      11.506959       313.1203 
 136   0.0000      11.507933       313.1468 
 137   0.0000      11.508648       313.1662 
 138   0.0000      11.529814       313.7422 
 139   0.0000      11.544212       314.1340 
 140   0.0000      11.599284       315.6326 
 141   0.0000      11.625778       316.3535 
 142   0.0000      11.733520       319.2853 

                 SPIN DOWN ORBITALS
  NO   OCC          E(Eh)            E(eV) 
   0   1.0000    -277.266895     -7544.8158 
   1   1.0000    -101.358251     -2758.0982 
   2   1.0000     -32.623803      -887.7388 
   3   1.0000     -28.247001      -768.6400 
   4   1.0000     -28.244249      -768.5651 
   5   1.0000     -28.242494      -768.5173 
   6   1.0000      -9.336403      -254.0564 
   7   1.0000      -7.081985      -192.7106 
   8   1.0000      -7.077800      -192.5967 
   9   1.0000      -7.077513      -192.5889 
  10   1.0000      -3.607910       -98.1762 
  11   1.0000      -2.293007       -62.3959 
  12   1.0000      -2.286654       -62.2230 
  13   1.0000      -2.285533       -62.1925 
  14   1.0000      -0.740818       -20.1587 
  15   1.0000      -0.329042        -8.9537 
  16   1.0000      -0.288959        -7.8630 
  17   1.0000      -0.280166        -7.6237 
  18   1.0000      -0.210344        -5.7238 
  19   1.0000      -0.198194        -5.3931 
  20   1.0000      -0.197129        -5.3642 
  21   0.0000      -0.109063        -2.9678 
  22   0.0000      -0.075675        -2.0592 
  23   0.0000      -0.066815        -1.8181 
  24   0.0000      -0.012334        -0.3356 
  25   0.0000      -0.011061        -0.3010 
  26   0.0000       0.010196         0.2775 
  27   0.0000       0.013793         0.3753 
  28   0.0000       0.040191         1.0936 
  29   0.0000       0.041851         1.1388 
  30   0.0000       0.068762         1.8711 
  31   0.0000       0.069350         1.8871 
  32   0.0000       0.072929         1.9845 
  33   0.0000       0.081421         2.2156 
  34   0.0000       0.083831         2.2812 
  35   0.0000       0.084301         2.2939 
  36   0.0000       0.119717         3.2577 
  37   0.0000       0.124325         3.3831 
  38   0.0000       0.125831         3.4240 
  39   0.0000       0.134662         3.6643 
  40   0.0000       0.202312         5.5052 
  41   0.0000       0.205648         5.5960 
  42   0.0000       0.244803         6.6614 
  43   0.0000       0.263463         7.1692 
  44   0.0000       0.266432         7.2500 
  45   0.0000       0.267485         7.2786 
  46   0.0000       0.308198         8.3865 
  47   0.0000       0.319387         8.6909 
  48   0.0000       0.328097         8.9280 
  49   0.0000       0.339302         9.2329 
  50   0.0000       0.365269         9.9395 
  51   0.0000       0.401310        10.9202 
  52   0.0000       0.402447        10.9511 
  53   0.0000       0.463226        12.6050 
  54   0.0000       0.570393        15.5212 
  55   0.0000       0.588414        16.0116 
  56   0.0000       0.588851        16.0234 
  57   0.0000       0.732421        19.9302 
  58   0.0000       0.761824        20.7303 
  59   0.0000       0.761840        20.7307 
  60   0.0000       0.769570        20.9411 
  61   0.0000       0.771613        20.9967 
  62   0.0000       0.824510        22.4361 
  63   0.0000       0.852298        23.1922 
  64   0.0000       0.856083        23.2952 
  65   0.0000       0.922429        25.1006 
  66   0.0000       0.927919        25.2500 
  67   0.0000       0.956757        26.0347 
  68   0.0000       0.959316        26.1043 
  69   0.0000       0.968972        26.3671 
  70   0.0000       1.081414        29.4268 
  71   0.0000       1.082985        29.4695 
  72   0.0000       1.123276        30.5659 
  73   0.0000       1.132759        30.8239 
  74   0.0000       1.165198        31.7067 
  75   0.0000       1.229351        33.4523 
  76   0.0000       1.237696        33.6794 
  77   0.0000       1.239789        33.7364 
  78   0.0000       1.257913        34.2296 
  79   0.0000       1.262250        34.3476 
  80   0.0000       1.325116        36.0582 
  81   0.0000       1.346069        36.6284 
  82   0.0000       1.517557        41.2948 
  83   0.0000       1.697879        46.2016 
  84   0.0000       1.710205        46.5371 
  85   0.0000       2.008366        54.6504 
  86   0.0000       2.245871        61.1133 
  87   0.0000       2.245971        61.1160 
  88   0.0000       2.368725        64.4563 
  89   0.0000       2.368761        64.4573 
  90   0.0000       2.431348        66.1603 
  91   0.0000       2.452070        66.7242 
  92   0.0000       2.453107        66.7524 
  93   0.0000       2.785772        75.8047 
  94   0.0000       2.785790        75.8052 
  95   0.0000       2.825185        76.8772 
  96   0.0000       2.825627        76.8892 
  97   0.0000       2.860286        77.8323 
  98   0.0000       2.860309        77.8330 
  99   0.0000       2.860608        77.8411 
 100   0.0000       2.969448        80.8028 
 101   0.0000       3.183268        86.6211 
 102   0.0000       3.183484        86.6270 
 103   0.0000       3.229375        87.8758 
 104   0.0000       3.250866        88.4606 
 105   0.0000       3.278489        89.2122 
 106   0.0000       3.326129        90.5086 
 107   0.0000       3.348443        91.1158 
 108   0.0000       3.427110        93.2564 
 109   0.0000       3.429220        93.3138 
 110   0.0000       3.482271        94.7574 
 111   0.0000       3.847243       104.6888 
 112   0.0000       4.044888       110.0670 
 113   0.0000       4.047375       110.1347 
 114   0.0000       4.050142       110.2100 
 115   0.0000       4.051805       110.2552 
 116   0.0000       4.085165       111.1630 
 117   0.0000       4.106896       111.7543 
 118   0.0000       4.251085       115.6779 
 119   0.0000       4.272050       116.2484 
 120   0.0000       4.418070       120.2218 
 121   0.0000       5.147812       140.0791 
 122   0.0000       5.182779       141.0306 
 123   0.0000       5.374377       146.2442 
 124   0.0000       5.407274       147.1394 
 125   0.0000       5.975126       162.5914 
 126   0.0000       6.518359       177.3736 
 127   0.0000      10.472517       284.9717 
 128   0.0000      10.483705       285.2761 
 129   0.0000      10.503949       285.8270 
 130   0.0000      10.528547       286.4963 
 131   0.0000      10.561711       287.3988 
 132   0.0000      10.581997       287.9508 
 133   0.0000      10.606915       288.6288 
 134   0.0000      11.595273       315.5234 
 135   0.0000      11.595530       315.5304 
 136   0.0000      11.595810       315.5380 
 137   0.0000      11.595994       315.5430 
 138   0.0000      11.610887       315.9483 
 139   0.0000      11.618777       316.1630 
 140   0.0000      11.687916       318.0444 
 141   0.0000      11.693723       318.2024 
 142   0.0000      11.808951       321.3379 

                    ********************************
                    * MULLIKEN POPULATION ANALYSIS *
                    ********************************

--------------------------------------------
MULLIKEN ATOMIC CHARGES AND SPIN POPULATIONS
--------------------------------------------
   0 Co:    0.494390    1.985842
   1 Cl:   -0.494390    0.014158
Sum of atomic charges         :   -0.0000000
Sum of atomic spin populations:    2.0000000

-----------------------------------------------------
MULLIKEN REDUCED ORBITAL CHARGES AND SPIN POPULATIONS
-----------------------------------------------------
CHARGE
  0 Cos       :     6.476323  s :     6.476323
      pz      :     4.059571  p :    12.159390
      px      :     4.050045
      py      :     4.049774
      dz2     :     1.615200  d :     7.856784
      dxz     :     1.529267
      dyz     :     1.501389
      dx2y2   :     1.997490
      dxy     :     1.213438
      f0      :     0.003861  f :     0.012726
      f+1     :     0.004324
      f-1     :     0.004310
      f+2     :     0.000071
      f-2     :     0.000095
      f+3     :     0.000030
      f-3     :     0.000033
      g0      :     0.000143  g :     0.000387
      g+1     :     0.000095
      g-1     :     0.000095
      g+2     :     0.000004
      g-2     :     0.000021
      g+3     :     0.000004
      g-3     :     0.000003
      g+4     :     0.000017
      g-4     :     0.000004
  1 Cls       :     5.986772  s :     5.986772
      pz      :     3.637715  p :    11.474964
      px      :     3.919397
      py      :     3.917852
      dz2     :     0.006788  d :     0.028985
      dxz     :     0.010370
      dyz     :     0.010236
      dx2y2   :     0.001091
      dxy     :     0.000499
      f0      :    -0.000053  f :     0.003670
      f+1     :     0.001396
      f-1     :     0.001379
      f+2     :     0.000636
      f-2     :     0.000310
      f+3     :     0.000000
      f-3     :     0.000000

SPIN
  0 Cos       :    -0.000228  s :    -0.000228
      pz      :     0.003001  p :     0.011360
      px      :     0.004142
      py      :     0.004217
      dz2     :     0.241724  d :     1.974456
      dxz     :     0.459527
      dyz     :     0.487578
      dx2y2   :     0.000844
      dxy     :     0.784783
      f0      :     0.000106  f :     0.000296
      f+1     :     0.000101
      f-1     :     0.000122
      f+2     :     0.000005
      f-2     :     0.000002
      f+3     :    -0.000018
      f-3     :    -0.000021
      g0      :    -0.000028  g :    -0.000043
      g+1     :    -0.000006
      g-1     :    -0.000005
      g+2     :     0.000004
      g-2     :    -0.000007
      g+3     :     0.000003
      g-3     :     0.000002
      g+4     :    -0.000004
      g-4     :    -0.000002
  1 Cls       :    -0.005034  s :    -0.005034
      pz      :    -0.025622  p :     0.018284
      px      :     0.021146
      py      :     0.022760
      dz2     :     0.000122  d :     0.000715
      dxz     :     0.000198
      dyz     :     0.000280
      dx2y2   :    -0.000130
      dxy     :     0.000244
      f0      :     0.000020  f :     0.000195
      f+1     :    -0.000022
      f-1     :    -0.000006
      f+2     :    -0.000018
      f-2     :     0.000220
      f+3     :     0.000000
      f-3     :     0.000000


                     *******************************
                     * LOEWDIN POPULATION ANALYSIS *
                     *******************************

-------------------------------------------
LOEWDIN ATOMIC CHARGES AND SPIN POPULATIONS
-------------------------------------------
   0 Co:    0.070367    1.953182
   1 Cl:   -0.070367    0.046818

----------------------------------------------------
LOEWDIN REDUCED ORBITAL CHARGES AND SPIN POPULATIONS
----------------------------------------------------
CHARGE
  0 Cos       :     6.427998  s :     6.427998
      pz      :     4.192350  p :    12.364972
      px      :     4.086655
      py      :     4.085967
      dz2     :     1.724297  d :     8.031600
      dxz     :     1.567201
      dyz     :     1.540373
      dx2y2   :     1.990220
      dxy     :     1.209510
      f0      :     0.041838  f :     0.102740
      f+1     :     0.030271
      f-1     :     0.030172
      f+2     :     0.000225
      f-2     :     0.000170
      f+3     :     0.000030
      f-3     :     0.000033
      g0      :     0.001146  g :     0.002323
      g+1     :     0.000562
      g-1     :     0.000561
      g+2     :     0.000004
      g-2     :     0.000021
      g+3     :     0.000004
      g-3     :     0.000003
      g+4     :     0.000017
      g-4     :     0.000004
  1 Cls       :     5.616352  s :     5.616352
      pz      :     3.633192  p :    11.166039
      px      :     3.767031
      py      :     3.765816
      dz2     :     0.101251  d :     0.181531
      dxz     :     0.037226
      dyz     :     0.036603
      dx2y2   :     0.004287
      dxy     :     0.002164
      f0      :     0.047898  f :     0.106445
      f+1     :     0.025947
      f-1     :     0.025544
      f+2     :     0.004557
      f-2     :     0.002499
      f+3     :     0.000000
      f-3     :     0.000000

SPIN
  0 Cos       :    -0.005698  s :    -0.005698
      pz      :     0.001824  p :     0.017411
      px      :     0.007602
      py      :     0.007985
      dz2     :     0.233898  d :     1.939524
      dxz     :     0.447124
      dyz     :     0.474324
      dx2y2   :     0.001378
      dxy     :     0.782800
      f0      :    -0.000236  f :     0.001964
      f+1     :     0.001045
      f-1     :     0.001138
      f+2     :     0.000000
      f-2     :     0.000056
      f+3     :    -0.000018
      f-3     :    -0.000021
      g0      :    -0.000055  g :    -0.000019
      g+1     :     0.000023
      g-1     :     0.000024
      g+2     :    -0.000001
      g-2     :    -0.000009
      g+3     :     0.000003
      g-3     :     0.000002
      g+4     :    -0.000004
      g-4     :    -0.000002
  1 Cls       :    -0.002074  s :    -0.002074
      pz      :    -0.016527  p :     0.021341
      px      :     0.018270
      py      :     0.019598
      dz2     :     0.002130  d :     0.014467
      dxz     :     0.005651
      dyz     :     0.006140
      dx2y2   :    -0.000449
      dxy     :     0.000994
      f0      :     0.000798  f :     0.013084
      f+1     :     0.005373
      f-1     :     0.005736
      f+2     :    -0.000225
      f-2     :     0.001401
      f+3     :     0.000000
      f-3     :     0.000000


                      *****************************
                      * MAYER POPULATION ANALYSIS *
                      *****************************

  NA   - Mulliken gross atomic population
  ZA   - Total nuclear charge
  QA   - Mulliken gross atomic charge
  VA   - Mayer's total valence
  BVA  - Mayer's bonded valence
  FA   - Mayer's free valence

  ATOM       NA         ZA         QA         VA         BVA        FA
  0 Co    26.5056    27.0000     0.4944     3.0059     1.0908     1.9151
  1 Cl    17.4944    17.0000    -0.4944     1.0950     1.0908     0.0041

  Mayer bond orders larger than 0.100000
B(  0-Co,  1-Cl) :   1.0908 

-------
TIMINGS
-------

Total SCF time: 0 days 0 hours 4 min 11 sec 

Total time                  ....     251.061 sec
Sum of individual times     ....     250.663 sec  ( 99.8%)

Fock matrix formation       ....     250.120 sec  ( 99.6%)
  XC integration            ....       1.036 sec  (  0.4% of F)
    Basis function eval.    ....       0.139 sec  ( 13.5% of XC)
    Density eval.           ....       0.156 sec  ( 15.0% of XC)
    XC-Functional eval.     ....       0.040 sec  (  3.8% of XC)
    XC-Potential eval.      ....       0.447 sec  ( 43.2% of XC)
Diagonalization             ....       0.156 sec  (  0.1%)
Density matrix formation    ....       0.020 sec  (  0.0%)
Population analysis         ....       0.013 sec  (  0.0%)
Initial guess               ....       0.112 sec  (  0.0%)
Orbital Transformation      ....       0.000 sec  (  0.0%)
Orbital Orthonormalization  ....       0.000 sec  (  0.0%)
DIIS solution               ....       0.057 sec  (  0.0%)
Grid generation             ....       0.185 sec  (  0.1%)


-------------------------------------------------------------------------------
                          DFT DISPERSION CORRECTION                            
                                                                               
                              DFTD3 V3.1  Rev 1                                
                          USING Becke-Johnson damping                          
-------------------------------------------------------------------------------
The TPSSH functional is recognized
Active option DFTDOPT                   ...         4   

molecular C6(AA) [au] = 587.026616 


            DFT-D V3
 parameters
 s6 scaling factor         :     1.0000 
 a1 scaling factor         :     0.4529 
 s8 scaling factor         :     2.2382 
 a2 scaling factor         :     4.6550 
 ad hoc parameters k1-k3   :    16.0000     1.3333    -4.0000 

 Edisp/kcal,au: -0.860186726725  -0.001370794658 
 E6   /kcal   :  -0.282420936 
 E8   /kcal   :  -0.577765791 
 % E8         :  67.167485028 

-------------------------   ----------------
Dispersion correction           -0.001370795
-------------------------   ----------------


-------------------------   --------------------
FINAL SINGLE POINT ENERGY     -1843.084732169459
-------------------------   --------------------


                            ***************************************
                            *     ORCA property calculations      *
                            ***************************************

                                    ---------------------
                                    Active property flags
                                    ---------------------
   (+) Dipole Moment


------------------------------------------------------------------------------
                       ORCA ELECTRIC PROPERTIES CALCULATION
------------------------------------------------------------------------------

Dipole Moment Calculation                       ... on
Quadrupole Moment Calculation                   ... off
Polarizability Calculation                      ... off
GBWName                                         ... 39_CoCl.gbw
Electron density file                           ... 39_CoCl.scfp
The origin for moment calculation is the CENTER OF MASS  = ( 0.000000,  0.000000  1.398559)

-------------
DIPOLE MOMENT
-------------
                                X             Y             Z
Electronic contribution:      0.00000       0.00000      -3.80241
Nuclear contribution   :      0.00000       0.00000       1.86529
                        -----------------------------------------
Total Dipole Moment    :      0.00000       0.00000      -1.93712
                        -----------------------------------------
Magnitude (a.u.)       :      1.93712
Magnitude (Debye)      :      4.92377



--------------------
Rotational spectrum 
--------------------
 
Rotational constants in cm-1:     0.000000     0.174373     0.174373 
Rotational constants in MHz :     0.000000  5227.567081  5227.567081 

 Dipole components along the rotational axes: 
x,y,z [a.u.] :    -1.937122     0.000000     0.000000 
x,y,z [Debye]:    -4.923772     0.000000     0.000000 

 

Timings for individual modules:

Sum of individual times         ...      255.126 sec (=   4.252 min)
GTO integral calculation        ...        3.596 sec (=   0.060 min)   1.4 %
SCF iterations                  ...      251.530 sec (=   4.192 min)  98.6 %
                             ****ORCA TERMINATED NORMALLY****
TOTAL RUN TIME: 0 days 0 hours 4 minutes 15 seconds 780 msec
