
                                 *****************
                                 * O   R   C   A *
                                 *****************

           --- An Ab Initio, DFT and Semiempirical electronic structure package ---

                  #######################################################
                  #                        -***-                        #
                  #          Department of theory and spectroscopy      #
                  #               Directorship: Frank Neese             #
                  #        Max Planck Institute fuer Kohlenforschung    #
                  #                Kaiser Wilhelm Platz 1               #
                  #                 D-45470 Muelheim/Ruhr               #
                  #                      Germany                        #
                  #                                                     #
                  #                  All rights reserved                #
                  #                        -***-                        #
                  #######################################################


                         Program Version 4.2.0 -  RELEASE  -


 With contributions from (in alphabetic order):
   Daniel Aravena         : Magnetic Suceptibility
   Michael Atanasov       : Ab Initio Ligand Field Theory (pilot matlab implementation)
   Alexander A. Auer      : GIAO ZORA, VPT2
   Ute Becker             : Parallelization
   Giovanni Bistoni       : ED, misc. LED, open-shell LED, HFLED
   Martin Brehm           : Molecular dynamics
   Dmytro Bykov           : SCF Hessian
   Vijay G. Chilkuri      : MRCI spin determinant printing, contributions to CSF-ICE
   Dipayan Datta          : RHF DLPNO-CCSD density
   Achintya Kumar Dutta   : EOM-CC, STEOM-CC
   Dmitry Ganyushin       : Spin-Orbit,Spin-Spin,Magnetic field MRCI
   Miquel Garcia          : C-PCM Hessian, Gaussian charge scheme
   Yang Guo               : DLPNO-NEVPT2, CIM, IAO-localization
   Andreas Hansen         : Spin unrestricted coupled pair/coupled cluster methods
   Benjamin Helmich-Paris : CASSCF linear response (MC-RPA)
   Lee Huntington         : MR-EOM, pCC
   Robert Izsak           : Overlap fitted RIJCOSX, COSX-SCS-MP3, EOM
   Christian Kollmar      : KDIIS, OOCD, Brueckner-CCSD(T), CCSD density
   Simone Kossmann        : Meta GGA functionals, TD-DFT gradient, OOMP2, MP2 Hessian
   Martin Krupicka        : AUTO-CI
   Lucas Lang             : DCDCAS
   Dagmar Lenk            : GEPOL surface, SMD
   Dimitrios Liakos       : Extrapolation schemes; Compound Job, initial MDCI parallelization
   Dimitrios Manganas     : Further ROCIS development; embedding schemes
   Dimitrios Pantazis     : SARC Basis sets
   Taras Petrenko         : DFT Hessian,TD-DFT gradient, ASA, ECA, R-Raman, ABS, FL, XAS/XES, NRVS
   Peter Pinski           : DLPNO-MP2, DLPNO-MP2 Gradient
   Christoph Reimann      : Effective Core Potentials
   Marius Retegan         : Local ZFS, SOC
   Christoph Riplinger    : Optimizer, TS searches, QM/MM, DLPNO-CCSD(T), (RO)-DLPNO pert. Triples
   Tobias Risthaus        : Range-separated hybrids, TD-DFT gradient, RPA, STAB
   Michael Roemelt        : Original ROCIS implementation
   Masaaki Saitow         : Open-shell DLPNO-CCSD energy and density
   Barbara Sandhoefer     : DKH picture change effects
   Avijit Sen             : IP-ROCIS
   Kantharuban Sivalingam : CASSCF convergence, NEVPT2, FIC-MRCI
   Bernardo de Souza      : ESD, SOC TD-DFT
   Georgi Stoychev        : AutoAux, RI-MP2 NMR
   Willem Van den Heuvel  : Paramagnetic NMR
   Boris Wezisla          : Elementary symmetry handling
   Frank Wennmohs         : Technical directorship


 We gratefully acknowledge several colleagues who have allowed us to
 interface, adapt or use parts of their codes:
   Stefan Grimme, W. Hujo, H. Kruse,             : VdW corrections, initial TS optimization,
                  C. Bannwarth                     DFT functionals, gCP, sTDA/sTD-DF
   Ed Valeev, F. Pavosevic, A. Kumar             : LibInt (2-el integral package), F12 methods
   Garnet Chan, S. Sharma, J. Yang, R. Olivares  : DMRG
   Ulf Ekstrom                                   : XCFun DFT Library
   Mihaly Kallay                                 : mrcc  (arbitrary order and MRCC methods)
   Andreas Klamt, Michael Diedenhofen            : otool_cosmo (COSMO solvation model)
   Jiri Pittner, Ondrej Demel                    : Mk-CCSD
   Frank Weinhold                                : gennbo (NPA and NBO analysis)
   Christopher J. Cramer and Donald G. Truhlar   : smd solvation model
   Lars Goerigk                                  : TD-DFT with DH, B97 family of functionals
   V. Asgeirsson, H. Jonsson                     : NEB implementation
   FAccTs GmbH                                   : IRC, NEB, NEB-TS, Multilevel, MM, QM/MM, CI optimization
   S Lehtola, MJT Oliveira, MAL Marques          : LibXC Library


 Your calculation uses the libint2 library for the computation of 2-el integrals
 For citations please refer to: http://libint.valeyev.net

 Your ORCA version has been built with support for libXC version: 4.2.3
 For citations please refer to: https://tddft.org/programs/libxc/

 This ORCA versions uses:
   CBLAS   interface :  Fast vector & matrix operations
   LAPACKE interface :  Fast linear algebra routines
   SCALAPACK package :  Parallel linear algebra routines


Your calculation utilizes the atom-pairwise dispersion correction
with the Becke-Johnson damping scheme (D3BJ)
Cite in your paper:
S.Grimme, S.Ehrlich, L.Goerigk, J Comput Chem, (2011), 32, 1456–1465 
S.Grimme, J.Antony, S.Ehrlich and H.Krieg, J.Chem.Phys., 132, (2010), 154104 
   

----- Orbital basis set information -----
Your calculation utilizes the basis: aug-cc-pVTZ 
    H, B-Ne : Obtained from the ccRepo (grant-hill.group.shef.ac.uk/ccrepo) Feb. 2017
              R. A. Kendall, T. H. Dunning, Jr., R. J. Harrison, J. Chem. Phys. 96, 6796 (1992)
         He : Obtained from the ccRepo (grant-hill.group.shef.ac.uk/ccrepo) Feb. 2017
              D. E. Woon, T. H. Dunning, Jr., J. Chem. Phys. 100, 2975 (1994)
  Li-Be, Na : Obtained from the ccRepo (grant-hill.group.shef.ac.uk/ccrepo) Feb. 2017
              B. P. Prascher, D. E. Woon, K. A. Peterson, T. H. Dunning, Jr., A. K. Wilson, Theor. Chem. Acc. 128, 69 (2011)
         Mg : Obtained from the Peterson Research Group Website (tyr0.chem.wsu.edu/~kipeters) Feb. 2017
              B. P. Prascher, D. E. Woon, K. A. Peterson, T. H. Dunning, Jr., A. K. Wilson, Theor. Chem. Acc. 128, 69 (2011)
      Al-Ar : Obtained from the ccRepo (grant-hill.group.shef.ac.uk/ccrepo) Feb. 2017
              D. E. Woon, T. H. Dunning, Jr., J. Chem. Phys. 98, 1358 (1993)
      Sc-Zn : Obtained from the ccRepo (grant-hill.group.shef.ac.uk/ccrepo) Feb. 2017
              N. B. Balabanov, K. A. Peterson, J. Chem. Phys. 123, 064107 (2005)
              N. B. Balabanov, K. A. Peterson, J. Chem. Phys. 125, 074110 (2006)
      Ga-Kr : Obtained from the ccRepo (grant-hill.group.shef.ac.uk/ccrepo) Feb. 2017
              A. K. Wilson, D. E. Woon, K. A. Peterson, T. H. Dunning, Jr., J. Chem. Phys. 110, 7667 (1999)
     Ag, Au : Obtained from the Peterson Research Group Website (tyr0.chem.wsu.edu/~kipeters) Feb. 2017
              K. A. Peterson, C. Puzzarini, Theor. Chem. Acc. 114, 283 (2005)

----- AuxJK basis set information -----
Your calculation utilizes the auxiliary basis: def2/JK
   H-Ba, Hf-Rn: F. Weigend, J. Comput. Chem. 29, 167 (2008).

================================================================================
                                        WARNINGS
                       Please study these warnings very carefully!
================================================================================


WARNING: your system is open-shell and RHF/RKS was chosen
  ===> : WILL SWITCH to UHF/UKS


INFO   : the flag for use of LIBINT has been found!

================================================================================
                                       INPUT FILE
================================================================================
NAME = 42_CoS.in
|  1> #
|  2> # 42_CoS tpssh/aug-cc-pvtz
|  3> #
|  4> ! tpssh d3bj aug-cc-pvtz def2/jk grid4 nofinalgrid
|  5> 
|  6> *xyz 0 4
|  7>   Co  0.00000000000000      0.00000000000000      0.00920129654260
|  8>   S   0.00000000000000      0.00000000000000      1.99079870345740
|  9> *
| 10> 
| 11> %pal
| 12> nprocs 24
| 13> end
| 14> 
| 15> 
| 16>                          ****END OF INPUT****
================================================================================

                       ****************************
                       * Single Point Calculation *
                       ****************************

---------------------------------
CARTESIAN COORDINATES (ANGSTROEM)
---------------------------------
  Co     0.000000    0.000000    0.009201
  S      0.000000    0.000000    1.990799

----------------------------
CARTESIAN COORDINATES (A.U.)
----------------------------
  NO LB      ZA    FRAG     MASS         X           Y           Z
   0 Co   27.0000    0    58.930    0.000000    0.000000    0.017388
   1 S    16.0000    0    32.060    0.000000    0.000000    3.762064

--------------------------------
INTERNAL COORDINATES (ANGSTROEM)
--------------------------------
 Co     0   0   0     0.000000000000     0.00000000     0.00000000
 S      1   0   0     1.981597406915     0.00000000     0.00000000

---------------------------
INTERNAL COORDINATES (A.U.)
---------------------------
 Co     0   0   0     0.000000000000     0.00000000     0.00000000
 S      1   0   0     3.744676406757     0.00000000     0.00000000

---------------------
BASIS SET INFORMATION
---------------------
There are 2 groups of distinct atoms

 Group   1 Type Co  : 116s77p23d3f2g contracted to 8s7p5d3f2g pattern {19191919191911/151515151511/77711/111/11}
 Group   2 Type S   : 42s17p3d2f contracted to 6s5p3d2f pattern {131313111/77111/111/11}

Atom   0Co   basis set group =>   1
Atom   1S    basis set group =>   2
----------------------------------
AUXILIARY/JK BASIS SET INFORMATION
----------------------------------
There are 2 groups of distinct atoms

 Group   1 Type Co  : 19s14p12d10f7g3h1i contracted to 16s13p11d9f5g3h1i pattern {4111111111111111/2111111111111/21111111111/211111111/31111/111/1}
 Group   2 Type S   : 16s12p10d4f1g contracted to 13s11p9d4f1g pattern {4111111111111/21111111111/211111111/1111/1}

Atom   0Co   basis set group =>   1
Atom   1S    basis set group =>   2


           ************************************************************
           *        Program running with 24 parallel MPI-processes    *
           *              working on a common directory               *
           ************************************************************
------------------------------------------------------------------------------
                           ORCA GTO INTEGRAL CALCULATION
------------------------------------------------------------------------------

                         BASIS SET STATISTICS AND STARTUP INFO

 # of primitive gaussian shells          ...  285
 # of primitive gaussian functions       ...  623
 # of contracted shells                  ...   41
 # of contracted basis functions         ...  143
 Highest angular momentum                ...    4
 Maximum contraction depth               ...   19
 Integral package used                   ... LIBINT
 Integral threshhold            Thresh   ...  1.000e-10
 Primitive cut-off              TCut     ...  1.000e-11


------------------------------ INTEGRAL EVALUATION ----------------------------


 * One electron integrals 
 Pre-screening matrix                    ... done
 Shell pair data                         ... done (   0.001 sec)



           ************************************************************
           *        Program running with 24 parallel MPI-processes    *
           *              working on a common directory               *
           ************************************************************
-------------------------------------------------------------------------------
                                 ORCA SCF
-------------------------------------------------------------------------------

------------
SCF SETTINGS
------------
Hamiltonian:
 Density Functional     Method          .... DFT(GTOs)
 Exchange Functional    Exchange        .... TPSS
 Correlation Functional Correlation     .... TPSS
 LDA part of GGA corr.  LDAOpt          .... PW91-LDA
 Gradients option       PostSCFGGA      .... off
 Hybrid DFT is turned on
   Fraction HF Exchange ScalHFX         ....  0.100000
   Scaling of DF-GGA-X  ScalDFX         ....  0.900000
   Scaling of DF-GGA-C  ScalDFC         ....  1.000000
   Scaling of DF-LDA-C  ScalLDAC        ....  1.000000
   Perturbative correction              ....  0.000000
   Density functional embedding theory  .... OFF
   NL short-range parameter             ....  5.200000


General Settings:
 Integral files         IntName         .... 42_CoS
 Hartree-Fock type      HFTyp           .... UHF
 Total Charge           Charge          ....    0
 Multiplicity           Mult            ....    4
 Number of Electrons    NEL             ....   43
 Basis Dimension        Dim             ....  143
 Nuclear Repulsion      ENuc            ....    115.3637732810 Eh

Convergence Acceleration:
 DIIS                   CNVDIIS         .... on
   Start iteration      DIISMaxIt       ....    12
   Startup error        DIISStart       ....  0.200000
   # of expansion vecs  DIISMaxEq       ....     5
   Bias factor          DIISBfac        ....   1.050
   Max. coefficient     DIISMaxC        ....  10.000
 Newton-Raphson         CNVNR           .... off
 SOSCF                  CNVSOSCF        .... off
 Level Shifting         CNVShift        .... on
   Level shift para.    LevelShift      ....    0.2500
   Turn off err/grad.   ShiftErr        ....    0.0010
 Zerner damping         CNVZerner       .... off
 Static damping         CNVDamp         .... on
   Fraction old density DampFac         ....    0.7000
   Max. Damping (<1)    DampMax         ....    0.9800
   Min. Damping (>=0)   DampMin         ....    0.0000
   Turn off err/grad.   DampErr         ....    0.1000
 Fernandez-Rico         CNVRico         .... off

SCF Procedure:
 Maximum # iterations   MaxIter         ....   125
 SCF integral mode      SCFMode         .... Direct
   Integral package                     .... LIBINT
 Reset frequency        DirectResetFreq ....    20
 Integral Threshold     Thresh          ....  1.000e-10 Eh
 Primitive CutOff       TCut            ....  1.000e-11 Eh

Convergence Tolerance:
 Convergence Check Mode ConvCheckMode   .... Total+1el-Energy
 Convergence forced     ConvForced      .... 0
 Energy Change          TolE            ....  1.000e-06 Eh
 1-El. energy change                    ....  1.000e-03 Eh
 DIIS Error             TolErr          ....  1.000e-06


Diagonalization of the overlap matrix:
Smallest eigenvalue                        ... 8.498e-05
Time for diagonalization                   ...    0.006 sec
Threshold for overlap eigenvalues          ... 1.000e-08
Number of eigenvalues below threshold      ... 0
Time for construction of square roots      ...    0.002 sec
Total time needed                          ...    0.008 sec

-------------------
DFT GRID GENERATION
-------------------

General Integration Accuracy     IntAcc      ...  4.670
Radial Grid Type                 RadialGrid  ... Gauss-Chebyshev
Angular Grid (max. acc.)         AngularGrid ... Lebedev-302
Angular grid pruning method      GridPruning ... 3 (G Style)
Weight generation scheme         WeightScheme... Becke
Basis function cutoff            BFCut       ...    1.0000e-10
Integration weight cutoff        WCut        ...    1.0000e-14
Grids for H and He will be reduced by one unit

# of grid points (after initial pruning)     ...  16486 (   0.0 sec)
# of grid points (after weights+screening)   ...  16457 (   0.0 sec)
nearest neighbour list constructed           ...    0.0 sec
Grid point re-assignment to atoms done       ...    0.0 sec
Grid point division into batches done        ...    0.1 sec
Reduced shell lists constructed in    0.1 sec

Total number of grid points                  ...    16457
Total number of batches                      ...      258
Average number of points per batch           ...       63
Average number of grid points per atom       ...     8228
Average number of shells per batch           ...    13.75 (33.54%)
Average number of basis functions per batch  ...    33.92 (23.72%)
Average number of large shells per batch     ...     7.42 (53.94%)
Average number of large basis fcns per batch ...    19.08 (56.27%)
Maximum spatial batch extension              ...  24.49, 24.19, 17.54 au
Average spatial batch extension              ...   0.85,  0.83,  0.64 au

Time for grid setup =    0.165 sec

------------------------------
INITIAL GUESS: MODEL POTENTIAL
------------------------------
Loading Hartree-Fock densities                     ... done
Calculating cut-offs                               ... done
Setting up the integral package                    ... done
Initializing the effective Hamiltonian             ... done
Starting the Coulomb interaction                   ... done (   0.0 sec)
Reading the grid                                   ... done
Mapping shells                                     ... done
Starting the XC term evaluation                    ... done (   0.0 sec)
  promolecular density results
     # of electrons  =     43.000037366
     EX              =    -82.625555999
     EC              =     -1.825284489
     EX+EC           =    -84.450840488
Transforming the Hamiltonian                       ... done (   0.0 sec)
Diagonalizing the Hamiltonian                      ... done (   0.0 sec)
Back transforming the eigenvectors                 ... done (   0.0 sec)
Now organizing SCF variables                       ... done
                      ------------------
                      INITIAL GUESS DONE (   0.3 sec)
                      ------------------
--------------
SCF ITERATIONS
--------------
ITER       Energy         Delta-E        Max-DP      RMS-DP      [F,P]     Damp
               ***  Starting incremental Fock matrix formation  ***
  0  -1780.8932618018   0.000000000000 0.08752849  0.00136026  0.3329093 0.7000
  1  -1780.9348570961  -0.041595294323 0.02619189  0.00062547  0.0867941 0.7000
                               ***Turning on DIIS***
  2  -1780.9576137717  -0.022756675533 0.06344314  0.00145204  0.0589601 0.0000
  3  -1780.9525097732   0.005103998424 0.01126582  0.00023009  0.2402692 0.7000
  4  -1780.9725713511  -0.020061577882 0.01765173  0.00023114  0.1856533 0.7000
  5  -1780.9909856872  -0.018414336108 0.01979960  0.00021371  0.1268753 0.7000
  6  -1781.0030096313  -0.012023944045 0.06094339  0.00060695  0.0772769 0.0000
  7  -1781.0122122484  -0.009202617161 0.00844981  0.00012714  0.0414960 0.0000
  8  -1781.0141321633  -0.001919914872 0.00567008  0.00008227  0.0168524 0.0000
  9  -1781.0145822035  -0.000450040218 0.00374395  0.00005223  0.0103708 0.0000
 10  -1781.0147324177  -0.000150214138 0.00272284  0.00003811  0.0043572 0.0000
 11  -1781.0147945224  -0.000062104730 0.00147964  0.00002260  0.0025411 0.0000
 12  -1781.0148111922  -0.000016669789 0.00100990  0.00001473  0.0011545 0.0000
 13  -1781.0148189081  -0.000007715933 0.00172680  0.00002191  0.0007737 0.0000
 14  -1781.0148221930  -0.000003284901 0.00017379  0.00000332  0.0010681 0.0000
 15  -1781.0148234119  -0.000001218853 0.00032207  0.00000450  0.0002011 0.0000
 16  -1781.0148231291   0.000000282741 0.00016573  0.00000192  0.0004859 0.0000
 17  -1781.0148235153  -0.000000386150 0.00010170  0.00000101  0.0001068 0.0000
                 **** Energy Check signals convergence ****

               *****************************************************
               *                     SUCCESS                       *
               *           SCF CONVERGED AFTER  18 CYCLES          *
               *****************************************************


----------------
TOTAL SCF ENERGY
----------------

Total Energy       :        -1781.01482354 Eh          -48463.87720 eV

Components:
Nuclear Repulsion  :          115.36377328 Eh            3139.20787 eV
Electronic Energy  :        -1896.37859682 Eh          -51603.08507 eV
One Electron Energy:        -2697.27820151 Eh          -73396.67128 eV
Two Electron Energy:          800.89960469 Eh           21793.58621 eV

Virial components:
Potential Energy   :        -3559.00019472 Eh          -96845.31882 eV
Kinetic Energy     :         1777.98537118 Eh           48381.44161 eV
Virial Ratio       :            2.00170387


DFT components:
N(Alpha)           :       23.000011489616 electrons
N(Beta)            :       20.000010954103 electrons
N(Total)           :       43.000022443720 electrons
E(X)               :      -74.943470115745 Eh       
E(C)               :       -1.842269117893 Eh       
E(XC)              :      -76.785739233638 Eh       
DFET-embed. en.    :        0.000000000000 Eh       

---------------
SCF CONVERGENCE
---------------

  Last Energy change         ...   -2.5402e-08  Tolerance :   1.0000e-06
  Last MAX-Density change    ...    3.8484e-05  Tolerance :   1.0000e-05
  Last RMS-Density change    ...    3.9064e-07  Tolerance :   1.0000e-06
  Last DIIS Error            ...    4.3781e-05  Tolerance :   1.0000e-06

             **** THE GBW FILE WAS UPDATED (42_CoS.gbw) ****
             **** DENSITY FILE WAS UPDATED (42_CoS.scfp) ****
             **** ENERGY FILE WAS UPDATED (42_CoS.en.tmp) ****
----------------------
UHF SPIN CONTAMINATION
----------------------

Warning: in a DFT calculation there is little theoretical justification to 
         calculate <S**2> as in Hartree-Fock theory. We will do it anyways
         but you should keep in mind that the values have only limited relevance

Expectation value of <S**2>     :     3.767817
Ideal value S*(S+1) for S=1.5   :     3.750000
Deviation                       :     0.017817

             **** THE GBW FILE WAS UPDATED (42_CoS.gbw) ****
             **** DENSITY FILE WAS UPDATED (42_CoS.scfp) ****
----------------
ORBITAL ENERGIES
----------------
                 SPIN UP ORBITALS
  NO   OCC          E(Eh)            E(eV) 
   0   1.0000    -277.288401     -7545.4010 
   1   1.0000     -88.708537     -2413.8820 
   2   1.0000     -32.685544      -889.4189 
   3   1.0000     -28.333384      -770.9906 
   4   1.0000     -28.283582      -769.6354 
   5   1.0000     -28.283582      -769.6354 
   6   1.0000      -7.833378      -213.1571 
   7   1.0000      -5.781628      -157.3261 
   8   1.0000      -5.781628      -157.3261 
   9   1.0000      -5.780786      -157.3032 
  10   1.0000      -3.722682      -101.2993 
  11   1.0000      -2.475574       -67.3638 
  12   1.0000      -2.370182       -64.4959 
  13   1.0000      -2.370182       -64.4959 
  14   1.0000      -0.631852       -17.1936 
  15   1.0000      -0.340248        -9.2586 
  16   1.0000      -0.323881        -8.8133 
  17   1.0000      -0.323881        -8.8133 
  18   1.0000      -0.246623        -6.7110 
  19   1.0000      -0.238516        -6.4903 
  20   1.0000      -0.238515        -6.4903 
  21   1.0000      -0.218172        -5.9368 
  22   1.0000      -0.218172        -5.9368 
  23   0.0000      -0.118902        -3.2355 
  24   0.0000      -0.015711        -0.4275 
  25   0.0000      -0.015711        -0.4275 
  26   0.0000       0.007435         0.2023 
  27   0.0000       0.011241         0.3059 
  28   0.0000       0.035741         0.9725 
  29   0.0000       0.035741         0.9726 
  30   0.0000       0.060782         1.6540 
  31   0.0000       0.066307         1.8043 
  32   0.0000       0.066307         1.8043 
  33   0.0000       0.079764         2.1705 
  34   0.0000       0.084137         2.2895 
  35   0.0000       0.084137         2.2895 
  36   0.0000       0.101957         2.7744 
  37   0.0000       0.101957         2.7744 
  38   0.0000       0.107927         2.9368 
  39   0.0000       0.127259         3.4629 
  40   0.0000       0.190713         5.1896 
  41   0.0000       0.190713         5.1896 
  42   0.0000       0.211067         5.7434 
  43   0.0000       0.211068         5.7435 
  44   0.0000       0.225128         6.1261 
  45   0.0000       0.242683         6.6037 
  46   0.0000       0.283555         7.7159 
  47   0.0000       0.283555         7.7159 
  48   0.0000       0.314094         8.5469 
  49   0.0000       0.314095         8.5470 
  50   0.0000       0.319594         8.6966 
  51   0.0000       0.366175         9.9641 
  52   0.0000       0.366175         9.9641 
  53   0.0000       0.495027        13.4704 
  54   0.0000       0.498794        13.5729 
  55   0.0000       0.498794        13.5729 
  56   0.0000       0.519471        14.1355 
  57   0.0000       0.593359        16.1461 
  58   0.0000       0.593363        16.1462 
  59   0.0000       0.628253        17.0956 
  60   0.0000       0.628253        17.0956 
  61   0.0000       0.628748        17.1091 
  62   0.0000       0.710734        19.3401 
  63   0.0000       0.710734        19.3401 
  64   0.0000       0.714371        19.4390 
  65   0.0000       0.750515        20.4226 
  66   0.0000       0.750515        20.4226 
  67   0.0000       0.816644        22.2220 
  68   0.0000       0.816644        22.2220 
  69   0.0000       0.880262        23.9532 
  70   0.0000       0.947051        25.7706 
  71   0.0000       0.947051        25.7706 
  72   0.0000       1.019869        27.7520 
  73   0.0000       1.019869        27.7520 
  74   0.0000       1.072721        29.1902 
  75   0.0000       1.178515        32.0690 
  76   0.0000       1.178518        32.0691 
  77   0.0000       1.210113        32.9288 
  78   0.0000       1.210113        32.9288 
  79   0.0000       1.246240        33.9119 
  80   0.0000       1.277508        34.7628 
  81   0.0000       1.277508        34.7628 
  82   0.0000       1.388762        37.7901 
  83   0.0000       1.568136        42.6711 
  84   0.0000       1.568136        42.6711 
  85   0.0000       1.797587        48.9148 
  86   0.0000       1.797731        48.9187 
  87   0.0000       1.900580        51.7174 
  88   0.0000       1.900580        51.7174 
  89   0.0000       1.916616        52.1538 
  90   0.0000       2.090441        56.8838 
  91   0.0000       2.104055        57.2542 
  92   0.0000       2.104055        57.2542 
  93   0.0000       2.115544        57.5669 
  94   0.0000       2.115544        57.5669 
  95   0.0000       2.129718        57.9526 
  96   0.0000       2.129735        57.9530 
  97   0.0000       2.200150        59.8691 
  98   0.0000       2.342882        63.7531 
  99   0.0000       2.342882        63.7531 
 100   0.0000       2.927490        79.6611 
 101   0.0000       3.152657        85.7882 
 102   0.0000       3.152657        85.7882 
 103   0.0000       3.198431        87.0337 
 104   0.0000       3.198446        87.0342 
 105   0.0000       3.226077        87.7860 
 106   0.0000       3.289079        89.5004 
 107   0.0000       3.289079        89.5004 
 108   0.0000       3.388102        92.1949 
 109   0.0000       3.388102        92.1949 
 110   0.0000       3.430075        93.3371 
 111   0.0000       3.940914       107.2377 
 112   0.0000       4.004542       108.9691 
 113   0.0000       4.004542       108.9691 
 114   0.0000       4.021247       109.4237 
 115   0.0000       4.021300       109.4251 
 116   0.0000       4.043578       110.0313 
 117   0.0000       4.043586       110.0316 
 118   0.0000       4.201560       114.3303 
 119   0.0000       4.258557       115.8812 
 120   0.0000       4.258557       115.8812 
 121   0.0000       5.117221       139.2467 
 122   0.0000       5.117231       139.2469 
 123   0.0000       5.372934       146.2050 
 124   0.0000       5.404582       147.0661 
 125   0.0000       5.404582       147.0661 
 126   0.0000       6.570743       178.7990 
 127   0.0000      10.392010       282.7810 
 128   0.0000      10.392160       282.7851 
 129   0.0000      10.419836       283.5382 
 130   0.0000      10.419836       283.5382 
 131   0.0000      10.420700       283.5617 
 132   0.0000      10.420700       283.5617 
 133   0.0000      10.465487       284.7804 
 134   0.0000      11.503415       313.0238 
 135   0.0000      11.503465       313.0252 
 136   0.0000      11.507441       313.1334 
 137   0.0000      11.507441       313.1334 
 138   0.0000      11.550466       314.3042 
 139   0.0000      11.550878       314.3154 
 140   0.0000      11.604890       315.7851 
 141   0.0000      11.604890       315.7851 
 142   0.0000      11.702805       318.4495 

                 SPIN DOWN ORBITALS
  NO   OCC          E(Eh)            E(eV) 
   0   1.0000    -277.287308     -7545.3713 
   1   1.0000     -88.705343     -2413.7951 
   2   1.0000     -32.646275      -888.3503 
   3   1.0000     -28.286170      -769.7058 
   4   1.0000     -28.257649      -768.9297 
   5   1.0000     -28.257649      -768.9297 
   6   1.0000      -7.830353      -213.0747 
   7   1.0000      -5.779387      -157.2651 
   8   1.0000      -5.775551      -157.1607 
   9   1.0000      -5.775551      -157.1607 
  10   1.0000      -3.624610       -98.6307 
  11   1.0000      -2.319851       -63.1264 
  12   1.0000      -2.297858       -62.5279 
  13   1.0000      -2.297858       -62.5279 
  14   1.0000      -0.607957       -16.5433 
  15   1.0000      -0.282370        -7.6837 
  16   1.0000      -0.235332        -6.4037 
  17   1.0000      -0.235332        -6.4037 
  18   1.0000      -0.184182        -5.0118 
  19   1.0000      -0.184181        -5.0118 
  20   0.0000      -0.141023        -3.8374 
  21   0.0000      -0.115649        -3.1470 
  22   0.0000      -0.115649        -3.1470 
  23   0.0000      -0.087807        -2.3894 
  24   0.0000       0.001051         0.0286 
  25   0.0000       0.001051         0.0286 
  26   0.0000       0.015171         0.4128 
  27   0.0000       0.017388         0.4731 
  28   0.0000       0.045143         1.2284 
  29   0.0000       0.045143         1.2284 
  30   0.0000       0.067141         1.8270 
  31   0.0000       0.074786         2.0350 
  32   0.0000       0.074787         2.0351 
  33   0.0000       0.087763         2.3881 
  34   0.0000       0.092298         2.5115 
  35   0.0000       0.092298         2.5115 
  36   0.0000       0.110941         3.0189 
  37   0.0000       0.110941         3.0189 
  38   0.0000       0.119287         3.2460 
  39   0.0000       0.138386         3.7657 
  40   0.0000       0.207463         5.6453 
  41   0.0000       0.207463         5.6453 
  42   0.0000       0.226437         6.1617 
  43   0.0000       0.226437         6.1617 
  44   0.0000       0.234085         6.3698 
  45   0.0000       0.258445         7.0326 
  46   0.0000       0.303730         8.2649 
  47   0.0000       0.303730         8.2649 
  48   0.0000       0.331307         9.0153 
  49   0.0000       0.331307         9.0153 
  50   0.0000       0.335669         9.1340 
  51   0.0000       0.381230        10.3738 
  52   0.0000       0.381230        10.3738 
  53   0.0000       0.508070        13.8253 
  54   0.0000       0.513027        13.9602 
  55   0.0000       0.513027        13.9602 
  56   0.0000       0.537382        14.6229 
  57   0.0000       0.616163        16.7666 
  58   0.0000       0.616164        16.7667 
  59   0.0000       0.640545        17.4301 
  60   0.0000       0.640545        17.4301 
  61   0.0000       0.650286        17.6952 
  62   0.0000       0.725553        19.7433 
  63   0.0000       0.727069        19.7845 
  64   0.0000       0.727069        19.7845 
  65   0.0000       0.764876        20.8133 
  66   0.0000       0.764876        20.8133 
  67   0.0000       0.842272        22.9194 
  68   0.0000       0.842272        22.9194 
  69   0.0000       0.902086        24.5470 
  70   0.0000       0.970556        26.4102 
  71   0.0000       0.970556        26.4102 
  72   0.0000       1.054514        28.6948 
  73   0.0000       1.054514        28.6948 
  74   0.0000       1.098104        29.8809 
  75   0.0000       1.216828        33.1116 
  76   0.0000       1.216829        33.1116 
  77   0.0000       1.253911        34.1207 
  78   0.0000       1.253911        34.1207 
  79   0.0000       1.276639        34.7391 
  80   0.0000       1.309423        35.6312 
  81   0.0000       1.309426        35.6313 
  82   0.0000       1.410824        38.3905 
  83   0.0000       1.599939        43.5366 
  84   0.0000       1.599939        43.5366 
  85   0.0000       1.820091        49.5272 
  86   0.0000       1.820229        49.5310 
  87   0.0000       1.916267        52.1443 
  88   0.0000       1.916267        52.1443 
  89   0.0000       1.949916        53.0599 
  90   0.0000       2.103131        57.2291 
  91   0.0000       2.118768        57.6546 
  92   0.0000       2.118768        57.6546 
  93   0.0000       2.142254        58.2937 
  94   0.0000       2.142254        58.2937 
  95   0.0000       2.148505        58.4638 
  96   0.0000       2.148516        58.4641 
  97   0.0000       2.211715        60.1838 
  98   0.0000       2.365897        64.3793 
  99   0.0000       2.365897        64.3793 
 100   0.0000       2.975514        80.9679 
 101   0.0000       3.187929        86.7480 
 102   0.0000       3.187929        86.7480 
 103   0.0000       3.254810        88.5679 
 104   0.0000       3.254810        88.5679 
 105   0.0000       3.288249        89.4778 
 106   0.0000       3.350982        91.1849 
 107   0.0000       3.350982        91.1849 
 108   0.0000       3.434739        93.4640 
 109   0.0000       3.434739        93.4640 
 110   0.0000       3.491011        94.9952 
 111   0.0000       3.984263       108.4173 
 112   0.0000       4.046296       110.1053 
 113   0.0000       4.046296       110.1053 
 114   0.0000       4.053653       110.3055 
 115   0.0000       4.053700       110.3068 
 116   0.0000       4.087304       111.2212 
 117   0.0000       4.087311       111.2214 
 118   0.0000       4.249979       115.6478 
 119   0.0000       4.305536       117.1596 
 120   0.0000       4.305536       117.1596 
 121   0.0000       5.164699       140.5386 
 122   0.0000       5.164711       140.5389 
 123   0.0000       5.391181       146.7015 
 124   0.0000       5.484895       149.2516 
 125   0.0000       5.484895       149.2516 
 126   0.0000       6.651708       181.0022 
 127   0.0000      10.477650       285.1114 
 128   0.0000      10.477650       285.1114 
 129   0.0000      10.503146       285.8051 
 130   0.0000      10.503283       285.8089 
 131   0.0000      10.548403       287.0367 
 132   0.0000      10.548403       287.0367 
 133   0.0000      10.593513       288.2641 
 134   0.0000      11.581463       315.1476 
 135   0.0000      11.581463       315.1476 
 136   0.0000      11.590108       315.3829 
 137   0.0000      11.590160       315.3843 
 138   0.0000      11.598737       315.6177 
 139   0.0000      11.599124       315.6282 
 140   0.0000      11.696682       318.2829 
 141   0.0000      11.696682       318.2829 
 142   0.0000      11.796634       321.0027 

                    ********************************
                    * MULLIKEN POPULATION ANALYSIS *
                    ********************************

--------------------------------------------
MULLIKEN ATOMIC CHARGES AND SPIN POPULATIONS
--------------------------------------------
   0 Co:    0.282620    2.260635
   1 S :   -0.282620    0.739365
Sum of atomic charges         :   -0.0000000
Sum of atomic spin populations:    3.0000000

-----------------------------------------------------
MULLIKEN REDUCED ORBITAL CHARGES AND SPIN POPULATIONS
-----------------------------------------------------
CHARGE
  0 Cos       :     6.574088  s :     6.574088
      pz      :     4.082521  p :    12.238986
      px      :     4.078232
      py      :     4.078232
      dz2     :     1.198127  d :     7.890042
      dxz     :     1.350014
      dyz     :     1.350014
      dx2y2   :     1.995944
      dxy     :     1.995944
      f0      :     0.003517  f :     0.013408
      f+1     :     0.004889
      f-1     :     0.004889
      f+2     :     0.000056
      f-2     :     0.000056
      f+3     :     0.000000
      f-3     :     0.000000
      g0      :     0.000316  g :     0.000856
      g+1     :     0.000239
      g-1     :     0.000239
      g+2     :     0.000031
      g-2     :     0.000031
      g+3     :     0.000000
      g-3     :     0.000000
      g+4     :     0.000000
      g-4     :     0.000000
  1 S s       :     5.911888  s :     5.911888
      pz      :     3.225336  p :    10.320491
      px      :     3.547577
      py      :     3.547577
      dz2     :     0.003546  d :     0.042432
      dxz     :     0.016882
      dyz     :     0.016882
      dx2y2   :     0.002561
      dxy     :     0.002561
      f0      :     0.000662  f :     0.007809
      f+1     :     0.002166
      f-1     :     0.002166
      f+2     :     0.001408
      f-2     :     0.001408
      f+3     :     0.000000
      f-3     :     0.000000

SPIN
  0 Cos       :     0.258683  s :     0.258683
      pz      :    -0.000796  p :     0.053352
      px      :     0.027074
      py      :     0.027074
      dz2     :     0.691886  d :     1.947444
      dxz     :     0.627162
      dyz     :     0.627162
      dx2y2   :     0.000618
      dxy     :     0.000618
      f0      :    -0.000026  f :     0.001200
      f+1     :     0.000571
      f-1     :     0.000571
      f+2     :     0.000042
      f-2     :     0.000042
      f+3     :    -0.000000
      f-3     :    -0.000000
      g0      :    -0.000014  g :    -0.000045
      g+1     :    -0.000032
      g-1     :    -0.000032
      g+2     :     0.000016
      g-2     :     0.000016
      g+3     :     0.000000
      g-3     :     0.000000
      g+4     :     0.000000
      g-4     :     0.000000
  1 S s       :     0.001651  s :     0.001651
      pz      :     0.047553  p :     0.745997
      px      :     0.349222
      py      :     0.349222
      dz2     :     0.000387  d :    -0.006833
      dxz     :    -0.003128
      dyz     :    -0.003128
      dx2y2   :    -0.000482
      dxy     :    -0.000482
      f0      :     0.000677  f :    -0.001449
      f+1     :    -0.000870
      f-1     :    -0.000870
      f+2     :    -0.000193
      f-2     :    -0.000193
      f+3     :     0.000000
      f-3     :     0.000000


                     *******************************
                     * LOEWDIN POPULATION ANALYSIS *
                     *******************************

-------------------------------------------
LOEWDIN ATOMIC CHARGES AND SPIN POPULATIONS
-------------------------------------------
   0 Co:    0.028910    2.322346
   1 S :   -0.028910    0.677654

----------------------------------------------------
LOEWDIN REDUCED ORBITAL CHARGES AND SPIN POPULATIONS
----------------------------------------------------
CHARGE
  0 Cos       :     6.322582  s :     6.322582
      pz      :     4.234511  p :    12.452079
      px      :     4.108784
      py      :     4.108784
      dz2     :     1.332873  d :     8.096585
      dxz     :     1.404828
      dyz     :     1.404828
      dx2y2   :     1.977028
      dxy     :     1.977028
      f0      :     0.036533  f :     0.097302
      f+1     :     0.029954
      f-1     :     0.029954
      f+2     :     0.000430
      f-2     :     0.000430
      f+3     :     0.000000
      f-3     :     0.000000
      g0      :     0.001085  g :     0.002542
      g+1     :     0.000710
      g-1     :     0.000710
      g+2     :     0.000018
      g-2     :     0.000018
      g+3     :     0.000000
      g-3     :     0.000000
      g+4     :     0.000000
      g-4     :     0.000000
  1 S s       :     5.470292  s :     5.470292
      pz      :     3.388788  p :    10.130179
      px      :     3.370695
      py      :     3.370695
      dz2     :     0.126461  d :     0.234459
      dxz     :     0.045578
      dyz     :     0.045578
      dx2y2   :     0.008421
      dxy     :     0.008421
      f0      :     0.086874  f :     0.193980
      f+1     :     0.039450
      f-1     :     0.039450
      f+2     :     0.014103
      f-2     :     0.014103
      f+3     :     0.000000
      f-3     :     0.000000

SPIN
  0 Cos       :     0.238925  s :     0.238925
      pz      :    -0.000973  p :     0.135690
      px      :     0.068331
      py      :     0.068331
      dz2     :     0.676806  d :     1.928489
      dxz     :     0.624265
      dyz     :     0.624265
      dx2y2   :     0.001576
      dxy     :     0.001576
      f0      :     0.000114  f :     0.018998
      f+1     :     0.009315
      f-1     :     0.009315
      f+2     :     0.000127
      f-2     :     0.000127
      f+3     :    -0.000000
      f-3     :    -0.000000
      g0      :    -0.000034  g :     0.000245
      g+1     :     0.000126
      g-1     :     0.000126
      g+2     :     0.000014
      g-2     :     0.000014
      g+3     :     0.000000
      g-3     :     0.000000
      g+4     :     0.000000
      g-4     :     0.000000
  1 S s       :     0.009983  s :     0.009983
      pz      :     0.063902  p :     0.625422
      px      :     0.280760
      py      :     0.280760
      dz2     :     0.008233  d :     0.024378
      dxz     :     0.009073
      dyz     :     0.009073
      dx2y2   :    -0.001000
      dxy     :    -0.001000
      f0      :     0.003046  f :     0.017871
      f+1     :     0.008130
      f-1     :     0.008130
      f+2     :    -0.000717
      f-2     :    -0.000717
      f+3     :     0.000000
      f-3     :     0.000000


                      *****************************
                      * MAYER POPULATION ANALYSIS *
                      *****************************

  NA   - Mulliken gross atomic population
  ZA   - Total nuclear charge
  QA   - Mulliken gross atomic charge
  VA   - Mayer's total valence
  BVA  - Mayer's bonded valence
  FA   - Mayer's free valence

  ATOM       NA         ZA         QA         VA         BVA        FA
  0 Co    26.7174    27.0000     0.2826     3.9532     2.2636     1.6895
  1 S     16.2826    16.0000    -0.2826     2.5325     2.2636     0.2689

  Mayer bond orders larger than 0.100000
B(  0-Co,  1-S ) :   2.2636 

-------
TIMINGS
-------

Total SCF time: 0 days 0 hours 2 min 38 sec 

Total time                  ....     158.130 sec
Sum of individual times     ....     157.770 sec  ( 99.8%)

Fock matrix formation       ....     157.352 sec  ( 99.5%)
  XC integration            ....       0.646 sec  (  0.4% of F)
    Basis function eval.    ....       0.091 sec  ( 14.1% of XC)
    Density eval.           ....       0.101 sec  ( 15.7% of XC)
    XC-Functional eval.     ....       0.025 sec  (  3.9% of XC)
    XC-Potential eval.      ....       0.266 sec  ( 41.1% of XC)
Diagonalization             ....       0.098 sec  (  0.1%)
Density matrix formation    ....       0.013 sec  (  0.0%)
Population analysis         ....       0.007 sec  (  0.0%)
Initial guess               ....       0.099 sec  (  0.1%)
Orbital Transformation      ....       0.000 sec  (  0.0%)
Orbital Orthonormalization  ....       0.000 sec  (  0.0%)
DIIS solution               ....       0.035 sec  (  0.0%)
Grid generation             ....       0.165 sec  (  0.1%)


-------------------------------------------------------------------------------
                          DFT DISPERSION CORRECTION                            
                                                                               
                              DFTD3 V3.1  Rev 1                                
                          USING Becke-Johnson damping                          
-------------------------------------------------------------------------------
The TPSSH functional is recognized
Active option DFTDOPT                   ...         4   

molecular C6(AA) [au] = 682.766983 


            DFT-D V3
 parameters
 s6 scaling factor         :     1.0000 
 a1 scaling factor         :     0.4529 
 s8 scaling factor         :     2.2382 
 a2 scaling factor         :     4.6550 
 ad hoc parameters k1-k3   :    16.0000     1.3333    -4.0000 

 Edisp/kcal,au: -0.975039853948  -0.001553824747 
 E6   /kcal   :  -0.311115331 
 E8   /kcal   :  -0.663924523 
 % E8         :  68.092039542 

-------------------------   ----------------
Dispersion correction           -0.001553825
-------------------------   ----------------


-------------------------   --------------------
FINAL SINGLE POINT ENERGY     -1781.016377365429
-------------------------   --------------------


                            ***************************************
                            *     ORCA property calculations      *
                            ***************************************

                                    ---------------------
                                    Active property flags
                                    ---------------------
   (+) Dipole Moment


------------------------------------------------------------------------------
                       ORCA ELECTRIC PROPERTIES CALCULATION
------------------------------------------------------------------------------

Dipole Moment Calculation                       ... on
Quadrupole Moment Calculation                   ... off
Polarizability Calculation                      ... off
GBWName                                         ... 42_CoS.gbw
Electron density file                           ... 42_CoS.scfp
The origin for moment calculation is the CENTER OF MASS  = ( 0.000000,  0.000000  1.336811)

-------------
DIPOLE MOMENT
-------------
                                X             Y             Z
Electronic contribution:     -0.00000       0.00000      -5.14932
Nuclear contribution   :      0.00000       0.00000       3.17962
                        -----------------------------------------
Total Dipole Moment    :     -0.00000       0.00000      -1.96970
                        -----------------------------------------
Magnitude (a.u.)       :      1.96970
Magnitude (Debye)      :      5.00659



--------------------
Rotational spectrum 
--------------------
 
Rotational constants in cm-1:     0.000000     0.206757     0.206757 
Rotational constants in MHz :     0.000000  6198.412278  6198.412278 

 Dipole components along the rotational axes: 
x,y,z [a.u.] :    -1.969704     0.000000    -0.000000 
x,y,z [Debye]:    -5.006590     0.000000    -0.000000 

 

Timings for individual modules:

Sum of individual times         ...      162.169 sec (=   2.703 min)
GTO integral calculation        ...        3.581 sec (=   0.060 min)   2.2 %
SCF iterations                  ...      158.588 sec (=   2.643 min)  97.8 %
                             ****ORCA TERMINATED NORMALLY****
TOTAL RUN TIME: 0 days 0 hours 2 minutes 42 seconds 811 msec
