
                                 *****************
                                 * O   R   C   A *
                                 *****************

           --- An Ab Initio, DFT and Semiempirical electronic structure package ---

                  #######################################################
                  #                        -***-                        #
                  #          Department of theory and spectroscopy      #
                  #               Directorship: Frank Neese             #
                  #        Max Planck Institute fuer Kohlenforschung    #
                  #                Kaiser Wilhelm Platz 1               #
                  #                 D-45470 Muelheim/Ruhr               #
                  #                      Germany                        #
                  #                                                     #
                  #                  All rights reserved                #
                  #                        -***-                        #
                  #######################################################


                         Program Version 4.2.0 -  RELEASE  -


 With contributions from (in alphabetic order):
   Daniel Aravena         : Magnetic Suceptibility
   Michael Atanasov       : Ab Initio Ligand Field Theory (pilot matlab implementation)
   Alexander A. Auer      : GIAO ZORA, VPT2
   Ute Becker             : Parallelization
   Giovanni Bistoni       : ED, misc. LED, open-shell LED, HFLED
   Martin Brehm           : Molecular dynamics
   Dmytro Bykov           : SCF Hessian
   Vijay G. Chilkuri      : MRCI spin determinant printing, contributions to CSF-ICE
   Dipayan Datta          : RHF DLPNO-CCSD density
   Achintya Kumar Dutta   : EOM-CC, STEOM-CC
   Dmitry Ganyushin       : Spin-Orbit,Spin-Spin,Magnetic field MRCI
   Miquel Garcia          : C-PCM Hessian, Gaussian charge scheme
   Yang Guo               : DLPNO-NEVPT2, CIM, IAO-localization
   Andreas Hansen         : Spin unrestricted coupled pair/coupled cluster methods
   Benjamin Helmich-Paris : CASSCF linear response (MC-RPA)
   Lee Huntington         : MR-EOM, pCC
   Robert Izsak           : Overlap fitted RIJCOSX, COSX-SCS-MP3, EOM
   Christian Kollmar      : KDIIS, OOCD, Brueckner-CCSD(T), CCSD density
   Simone Kossmann        : Meta GGA functionals, TD-DFT gradient, OOMP2, MP2 Hessian
   Martin Krupicka        : AUTO-CI
   Lucas Lang             : DCDCAS
   Dagmar Lenk            : GEPOL surface, SMD
   Dimitrios Liakos       : Extrapolation schemes; Compound Job, initial MDCI parallelization
   Dimitrios Manganas     : Further ROCIS development; embedding schemes
   Dimitrios Pantazis     : SARC Basis sets
   Taras Petrenko         : DFT Hessian,TD-DFT gradient, ASA, ECA, R-Raman, ABS, FL, XAS/XES, NRVS
   Peter Pinski           : DLPNO-MP2, DLPNO-MP2 Gradient
   Christoph Reimann      : Effective Core Potentials
   Marius Retegan         : Local ZFS, SOC
   Christoph Riplinger    : Optimizer, TS searches, QM/MM, DLPNO-CCSD(T), (RO)-DLPNO pert. Triples
   Tobias Risthaus        : Range-separated hybrids, TD-DFT gradient, RPA, STAB
   Michael Roemelt        : Original ROCIS implementation
   Masaaki Saitow         : Open-shell DLPNO-CCSD energy and density
   Barbara Sandhoefer     : DKH picture change effects
   Avijit Sen             : IP-ROCIS
   Kantharuban Sivalingam : CASSCF convergence, NEVPT2, FIC-MRCI
   Bernardo de Souza      : ESD, SOC TD-DFT
   Georgi Stoychev        : AutoAux, RI-MP2 NMR
   Willem Van den Heuvel  : Paramagnetic NMR
   Boris Wezisla          : Elementary symmetry handling
   Frank Wennmohs         : Technical directorship


 We gratefully acknowledge several colleagues who have allowed us to
 interface, adapt or use parts of their codes:
   Stefan Grimme, W. Hujo, H. Kruse,             : VdW corrections, initial TS optimization,
                  C. Bannwarth                     DFT functionals, gCP, sTDA/sTD-DF
   Ed Valeev, F. Pavosevic, A. Kumar             : LibInt (2-el integral package), F12 methods
   Garnet Chan, S. Sharma, J. Yang, R. Olivares  : DMRG
   Ulf Ekstrom                                   : XCFun DFT Library
   Mihaly Kallay                                 : mrcc  (arbitrary order and MRCC methods)
   Andreas Klamt, Michael Diedenhofen            : otool_cosmo (COSMO solvation model)
   Jiri Pittner, Ondrej Demel                    : Mk-CCSD
   Frank Weinhold                                : gennbo (NPA and NBO analysis)
   Christopher J. Cramer and Donald G. Truhlar   : smd solvation model
   Lars Goerigk                                  : TD-DFT with DH, B97 family of functionals
   V. Asgeirsson, H. Jonsson                     : NEB implementation
   FAccTs GmbH                                   : IRC, NEB, NEB-TS, Multilevel, MM, QM/MM, CI optimization
   S Lehtola, MJT Oliveira, MAL Marques          : LibXC Library


 Your calculation uses the libint2 library for the computation of 2-el integrals
 For citations please refer to: http://libint.valeyev.net

 Your ORCA version has been built with support for libXC version: 4.2.3
 For citations please refer to: https://tddft.org/programs/libxc/

 This ORCA versions uses:
   CBLAS   interface :  Fast vector & matrix operations
   LAPACKE interface :  Fast linear algebra routines
   SCALAPACK package :  Parallel linear algebra routines


Your calculation utilizes the atom-pairwise dispersion correction
with the Becke-Johnson damping scheme (D3BJ)
Cite in your paper:
S.Grimme, S.Ehrlich, L.Goerigk, J Comput Chem, (2011), 32, 1456–1465 
S.Grimme, J.Antony, S.Ehrlich and H.Krieg, J.Chem.Phys., 132, (2010), 154104 
   

----- Orbital basis set information -----
Your calculation utilizes the basis: aug-cc-pVTZ 
    H, B-Ne : Obtained from the ccRepo (grant-hill.group.shef.ac.uk/ccrepo) Feb. 2017
              R. A. Kendall, T. H. Dunning, Jr., R. J. Harrison, J. Chem. Phys. 96, 6796 (1992)
         He : Obtained from the ccRepo (grant-hill.group.shef.ac.uk/ccrepo) Feb. 2017
              D. E. Woon, T. H. Dunning, Jr., J. Chem. Phys. 100, 2975 (1994)
  Li-Be, Na : Obtained from the ccRepo (grant-hill.group.shef.ac.uk/ccrepo) Feb. 2017
              B. P. Prascher, D. E. Woon, K. A. Peterson, T. H. Dunning, Jr., A. K. Wilson, Theor. Chem. Acc. 128, 69 (2011)
         Mg : Obtained from the Peterson Research Group Website (tyr0.chem.wsu.edu/~kipeters) Feb. 2017
              B. P. Prascher, D. E. Woon, K. A. Peterson, T. H. Dunning, Jr., A. K. Wilson, Theor. Chem. Acc. 128, 69 (2011)
      Al-Ar : Obtained from the ccRepo (grant-hill.group.shef.ac.uk/ccrepo) Feb. 2017
              D. E. Woon, T. H. Dunning, Jr., J. Chem. Phys. 98, 1358 (1993)
      Sc-Zn : Obtained from the ccRepo (grant-hill.group.shef.ac.uk/ccrepo) Feb. 2017
              N. B. Balabanov, K. A. Peterson, J. Chem. Phys. 123, 064107 (2005)
              N. B. Balabanov, K. A. Peterson, J. Chem. Phys. 125, 074110 (2006)
      Ga-Kr : Obtained from the ccRepo (grant-hill.group.shef.ac.uk/ccrepo) Feb. 2017
              A. K. Wilson, D. E. Woon, K. A. Peterson, T. H. Dunning, Jr., J. Chem. Phys. 110, 7667 (1999)
     Ag, Au : Obtained from the Peterson Research Group Website (tyr0.chem.wsu.edu/~kipeters) Feb. 2017
              K. A. Peterson, C. Puzzarini, Theor. Chem. Acc. 114, 283 (2005)

----- AuxJK basis set information -----
Your calculation utilizes the auxiliary basis: def2/JK
   H-Ba, Hf-Rn: F. Weigend, J. Comput. Chem. 29, 167 (2008).

================================================================================
                                        WARNINGS
                       Please study these warnings very carefully!
================================================================================


WARNING: your system is open-shell and RHF/RKS was chosen
  ===> : WILL SWITCH to UHF/UKS


INFO   : the flag for use of LIBINT has been found!

================================================================================
                                       INPUT FILE
================================================================================
NAME = 44_NiF.in
|  1> #
|  2> # 44_NiF tpssh/aug-cc-pvtz
|  3> #
|  4> ! tpssh d3bj aug-cc-pvtz def2/jk grid4 nofinalgrid
|  5> 
|  6> *xyz 0 2
|  7>   Ni  0.00000000000000      0.00000000000000      0.12374716283349
|  8>   F   0.00000000000000      0.00000000000000      1.87625283716651
|  9> *
| 10> 
| 11> %pal
| 12> nprocs 24
| 13> end
| 14> 
| 15> 
| 16>                          ****END OF INPUT****
================================================================================

                       ****************************
                       * Single Point Calculation *
                       ****************************

---------------------------------
CARTESIAN COORDINATES (ANGSTROEM)
---------------------------------
  Ni     0.000000    0.000000    0.123747
  F      0.000000    0.000000    1.876253

----------------------------
CARTESIAN COORDINATES (A.U.)
----------------------------
  NO LB      ZA    FRAG     MASS         X           Y           Z
   0 Ni   28.0000    0    58.700    0.000000    0.000000    0.233848
   1 F     9.0000    0    18.998    0.000000    0.000000    3.545604

--------------------------------
INTERNAL COORDINATES (ANGSTROEM)
--------------------------------
 Ni     0   0   0     0.000000000000     0.00000000     0.00000000
 F      1   0   0     1.752505674333     0.00000000     0.00000000

---------------------------
INTERNAL COORDINATES (A.U.)
---------------------------
 Ni     0   0   0     0.000000000000     0.00000000     0.00000000
 F      1   0   0     3.311755772632     0.00000000     0.00000000

---------------------
BASIS SET INFORMATION
---------------------
There are 2 groups of distinct atoms

 Group   1 Type Ni  : 116s77p23d3f2g contracted to 8s7p5d3f2g pattern {19191919191911/151515151511/77711/111/11}
 Group   2 Type F   : 19s6p3d2f contracted to 5s4p3d2f pattern {88111/3111/111/11}

Atom   0Ni   basis set group =>   1
Atom   1F    basis set group =>   2
----------------------------------
AUXILIARY/JK BASIS SET INFORMATION
----------------------------------
There are 2 groups of distinct atoms

 Group   1 Type Ni  : 19s14p12d10f7g3h1i contracted to 16s13p11d9f5g3h1i pattern {4111111111111111/2111111111111/21111111111/211111111/31111/111/1}
 Group   2 Type F   : 14s10p6d2f1g contracted to 10s8p4d2f1g pattern {5111111111/31111111/3111/11/1}

Atom   0Ni   basis set group =>   1
Atom   1F    basis set group =>   2


           ************************************************************
           *        Program running with 24 parallel MPI-processes    *
           *              working on a common directory               *
           ************************************************************
------------------------------------------------------------------------------
                           ORCA GTO INTEGRAL CALCULATION
------------------------------------------------------------------------------

                         BASIS SET STATISTICS AND STARTUP INFO

 # of primitive gaussian shells          ...  251
 # of primitive gaussian functions       ...  567
 # of contracted shells                  ...   39
 # of contracted basis functions         ...  139
 Highest angular momentum                ...    4
 Maximum contraction depth               ...   19
 Integral package used                   ... LIBINT
 Integral threshhold            Thresh   ...  1.000e-10
 Primitive cut-off              TCut     ...  1.000e-11


------------------------------ INTEGRAL EVALUATION ----------------------------


 * One electron integrals 
 Pre-screening matrix                    ... done
 Shell pair data                         ... done (   0.001 sec)



           ************************************************************
           *        Program running with 24 parallel MPI-processes    *
           *              working on a common directory               *
           ************************************************************
-------------------------------------------------------------------------------
                                 ORCA SCF
-------------------------------------------------------------------------------

------------
SCF SETTINGS
------------
Hamiltonian:
 Density Functional     Method          .... DFT(GTOs)
 Exchange Functional    Exchange        .... TPSS
 Correlation Functional Correlation     .... TPSS
 LDA part of GGA corr.  LDAOpt          .... PW91-LDA
 Gradients option       PostSCFGGA      .... off
 Hybrid DFT is turned on
   Fraction HF Exchange ScalHFX         ....  0.100000
   Scaling of DF-GGA-X  ScalDFX         ....  0.900000
   Scaling of DF-GGA-C  ScalDFC         ....  1.000000
   Scaling of DF-LDA-C  ScalLDAC        ....  1.000000
   Perturbative correction              ....  0.000000
   Density functional embedding theory  .... OFF
   NL short-range parameter             ....  5.200000


General Settings:
 Integral files         IntName         .... 44_NiF
 Hartree-Fock type      HFTyp           .... UHF
 Total Charge           Charge          ....    0
 Multiplicity           Mult            ....    2
 Number of Electrons    NEL             ....   37
 Basis Dimension        Dim             ....  139
 Nuclear Repulsion      ENuc            ....     76.0925675989 Eh

Convergence Acceleration:
 DIIS                   CNVDIIS         .... on
   Start iteration      DIISMaxIt       ....    12
   Startup error        DIISStart       ....  0.200000
   # of expansion vecs  DIISMaxEq       ....     5
   Bias factor          DIISBfac        ....   1.050
   Max. coefficient     DIISMaxC        ....  10.000
 Newton-Raphson         CNVNR           .... off
 SOSCF                  CNVSOSCF        .... off
 Level Shifting         CNVShift        .... on
   Level shift para.    LevelShift      ....    0.2500
   Turn off err/grad.   ShiftErr        ....    0.0010
 Zerner damping         CNVZerner       .... off
 Static damping         CNVDamp         .... on
   Fraction old density DampFac         ....    0.7000
   Max. Damping (<1)    DampMax         ....    0.9800
   Min. Damping (>=0)   DampMin         ....    0.0000
   Turn off err/grad.   DampErr         ....    0.1000
 Fernandez-Rico         CNVRico         .... off

SCF Procedure:
 Maximum # iterations   MaxIter         ....   125
 SCF integral mode      SCFMode         .... Direct
   Integral package                     .... LIBINT
 Reset frequency        DirectResetFreq ....    20
 Integral Threshold     Thresh          ....  1.000e-10 Eh
 Primitive CutOff       TCut            ....  1.000e-11 Eh

Convergence Tolerance:
 Convergence Check Mode ConvCheckMode   .... Total+1el-Energy
 Convergence forced     ConvForced      .... 0
 Energy Change          TolE            ....  1.000e-06 Eh
 1-El. energy change                    ....  1.000e-03 Eh
 DIIS Error             TolErr          ....  1.000e-06


Diagonalization of the overlap matrix:
Smallest eigenvalue                        ... 2.518e-04
Time for diagonalization                   ...    0.006 sec
Threshold for overlap eigenvalues          ... 1.000e-08
Number of eigenvalues below threshold      ... 0
Time for construction of square roots      ...    0.002 sec
Total time needed                          ...    0.008 sec

-------------------
DFT GRID GENERATION
-------------------

General Integration Accuracy     IntAcc      ...  4.670
Radial Grid Type                 RadialGrid  ... Gauss-Chebyshev
Angular Grid (max. acc.)         AngularGrid ... Lebedev-302
Angular grid pruning method      GridPruning ... 3 (G Style)
Weight generation scheme         WeightScheme... Becke
Basis function cutoff            BFCut       ...    1.0000e-10
Integration weight cutoff        WCut        ...    1.0000e-14
Grids for H and He will be reduced by one unit

# of grid points (after initial pruning)     ...  15936 (   0.0 sec)
# of grid points (after weights+screening)   ...  15888 (   0.0 sec)
nearest neighbour list constructed           ...    0.0 sec
Grid point re-assignment to atoms done       ...    0.0 sec
Grid point division into batches done        ...    0.1 sec
Reduced shell lists constructed in    0.1 sec

Total number of grid points                  ...    15888
Total number of batches                      ...      249
Average number of points per batch           ...       63
Average number of grid points per atom       ...     7944
Average number of shells per batch           ...    14.83 (38.03%)
Average number of basis functions per batch  ...    34.83 (25.06%)
Average number of large shells per batch     ...     7.75 (52.25%)
Average number of large basis fcns per batch ...    17.75 (50.96%)
Maximum spatial batch extension              ...  22.45, 22.17, 15.82 au
Average spatial batch extension              ...   0.80,  0.79,  0.61 au

Time for grid setup =    0.149 sec

------------------------------
INITIAL GUESS: MODEL POTENTIAL
------------------------------
Loading Hartree-Fock densities                     ... done
Calculating cut-offs                               ... done
Setting up the integral package                    ... done
Initializing the effective Hamiltonian             ... done
Starting the Coulomb interaction                   ... done (   0.0 sec)
Reading the grid                                   ... done
Mapping shells                                     ... done
Starting the XC term evaluation                    ... done (   0.0 sec)
  promolecular density results
     # of electrons  =     37.000032960
     EX              =    -71.482824308
     EC              =     -1.582178446
     EX+EC           =    -73.065002754
Transforming the Hamiltonian                       ... done (   0.0 sec)
Diagonalizing the Hamiltonian                      ... done (   0.0 sec)
Back transforming the eigenvectors                 ... done (   0.0 sec)
Now organizing SCF variables                       ... done
                      ------------------
                      INITIAL GUESS DONE (   0.2 sec)
                      ------------------
--------------
SCF ITERATIONS
--------------
ITER       Energy         Delta-E        Max-DP      RMS-DP      [F,P]     Damp
               ***  Starting incremental Fock matrix formation  ***
  0  -1608.1275152055   0.000000000000 0.03420262  0.00090737  0.3134219 0.7000
  1  -1608.1847947425  -0.057279536952 0.02047531  0.00039717  0.0828796 0.7000
                               ***Turning on DIIS***
  2  -1608.1999735531  -0.015178810607 0.03228530  0.00056532  0.0426710 0.0000
  3  -1608.2397813834  -0.039807830269 0.01141299  0.00031914  0.0615525 0.0000
  4  -1608.2445084905  -0.004727107097 0.00335868  0.00010066  0.0299117 0.0000
  5  -1608.2453073639  -0.000798873396 0.00180554  0.00003953  0.0043634 0.0000
  6  -1608.2453492299  -0.000041866090 0.00097850  0.00001751  0.0016396 0.0000
  7  -1608.2453587375  -0.000009507534 0.00122290  0.00001583  0.0003938 0.0000
  8  -1608.2453622133  -0.000003475841 0.00031815  0.00000378  0.0002444 0.0000
                 **** Energy Check signals convergence ****

               *****************************************************
               *                     SUCCESS                       *
               *           SCF CONVERGED AFTER   9 CYCLES          *
               *****************************************************


----------------
TOTAL SCF ENERGY
----------------

Total Energy       :        -1608.24536253 Eh          -43762.58116 eV

Components:
Nuclear Repulsion  :           76.09256760 Eh            2070.58403 eV
Electronic Energy  :        -1684.33793013 Eh          -45833.16519 eV
One Electron Energy:        -2389.78229602 Eh          -65029.28230 eV
Two Electron Energy:          705.44436589 Eh           19196.11711 eV

Virial components:
Potential Energy   :        -3214.07139083 Eh          -87459.32889 eV
Kinetic Energy     :         1605.82602830 Eh           43696.74773 eV
Virial Ratio       :            2.00150660


DFT components:
N(Alpha)           :       19.000017844650 electrons
N(Beta)            :       18.000017635023 electrons
N(Total)           :       37.000035479673 electrons
E(X)               :      -64.961317173292 Eh       
E(C)               :       -1.603975603268 Eh       
E(XC)              :      -66.565292776560 Eh       
DFET-embed. en.    :        0.000000000000 Eh       

---------------
SCF CONVERGENCE
---------------

  Last Energy change         ...   -3.1553e-07  Tolerance :   1.0000e-06
  Last MAX-Density change    ...    1.8928e-04  Tolerance :   1.0000e-05
  Last RMS-Density change    ...    1.8371e-06  Tolerance :   1.0000e-06
  Last DIIS Error            ...    4.7770e-05  Tolerance :   1.0000e-06

             **** THE GBW FILE WAS UPDATED (44_NiF.gbw) ****
             **** DENSITY FILE WAS UPDATED (44_NiF.scfp) ****
             **** ENERGY FILE WAS UPDATED (44_NiF.en.tmp) ****
----------------------
UHF SPIN CONTAMINATION
----------------------

Warning: in a DFT calculation there is little theoretical justification to 
         calculate <S**2> as in Hartree-Fock theory. We will do it anyways
         but you should keep in mind that the values have only limited relevance

Expectation value of <S**2>     :     0.752973
Ideal value S*(S+1) for S=0.5   :     0.750000
Deviation                       :     0.002973

             **** THE GBW FILE WAS UPDATED (44_NiF.gbw) ****
             **** DENSITY FILE WAS UPDATED (44_NiF.scfp) ****
----------------
ORBITAL ENERGIES
----------------
                 SPIN UP ORBITALS
  NO   OCC          E(Eh)            E(eV) 
   0   1.0000    -299.552322     -8151.2331 
   1   1.0000     -35.555742      -967.5209 
   2   1.0000     -30.973240      -842.8247 
   3   1.0000     -30.942966      -842.0009 
   4   1.0000     -30.942966      -842.0009 
   5   1.0000     -24.499981      -666.6784 
   6   1.0000      -3.942678      -107.2857 
   7   1.0000      -2.576033       -70.0974 
   8   1.0000      -2.509889       -68.2976 
   9   1.0000      -2.509889       -68.2976 
  10   1.0000      -1.035217       -28.1697 
  11   1.0000      -0.365133        -9.9358 
  12   1.0000      -0.319126        -8.6839 
  13   1.0000      -0.319126        -8.6839 
  14   1.0000      -0.241377        -6.5682 
  15   1.0000      -0.214077        -5.8253 
  16   1.0000      -0.214077        -5.8253 
  17   1.0000      -0.211828        -5.7641 
  18   1.0000      -0.211828        -5.7641 
  19   0.0000      -0.117164        -3.1882 
  20   0.0000      -0.009815        -0.2671 
  21   0.0000      -0.009814        -0.2671 
  22   0.0000       0.010855         0.2954 
  23   0.0000       0.018510         0.5037 
  24   0.0000       0.046300         1.2599 
  25   0.0000       0.046300         1.2599 
  26   0.0000       0.073343         1.9958 
  27   0.0000       0.084421         2.2972 
  28   0.0000       0.084422         2.2972 
  29   0.0000       0.089364         2.4317 
  30   0.0000       0.089364         2.4317 
  31   0.0000       0.102562         2.7909 
  32   0.0000       0.131098         3.5674 
  33   0.0000       0.212808         5.7908 
  34   0.0000       0.212808         5.7908 
  35   0.0000       0.232980         6.3397 
  36   0.0000       0.261091         7.1046 
  37   0.0000       0.261091         7.1046 
  38   0.0000       0.277426         7.5491 
  39   0.0000       0.363980         9.9044 
  40   0.0000       0.363980         9.9044 
  41   0.0000       0.382079        10.3969 
  42   0.0000       0.382079        10.3969 
  43   0.0000       0.403269        10.9735 
  44   0.0000       0.531202        14.4547 
  45   0.0000       0.656427        17.8623 
  46   0.0000       0.785565        21.3763 
  47   0.0000       0.785587        21.3769 
  48   0.0000       0.867055        23.5938 
  49   0.0000       0.867055        23.5938 
  50   0.0000       0.902487        24.5579 
  51   0.0000       0.971851        26.4454 
  52   0.0000       0.971851        26.4454 
  53   0.0000       1.076887        29.3036 
  54   0.0000       1.088103        29.6088 
  55   0.0000       1.088103        29.6088 
  56   0.0000       1.252595        34.0848 
  57   0.0000       1.252595        34.0848 
  58   0.0000       1.329845        36.1869 
  59   0.0000       1.343531        36.5593 
  60   0.0000       1.343532        36.5594 
  61   0.0000       1.383322        37.6421 
  62   0.0000       1.383322        37.6421 
  63   0.0000       1.414300        38.4851 
  64   0.0000       1.414301        38.4851 
  65   0.0000       1.512938        41.1691 
  66   0.0000       1.678324        45.6695 
  67   0.0000       1.736919        47.2640 
  68   0.0000       1.736919        47.2640 
  69   0.0000       2.334493        63.5248 
  70   0.0000       2.619380        71.2770 
  71   0.0000       2.619518        71.2807 
  72   0.0000       2.703083        73.5546 
  73   0.0000       2.703083        73.5546 
  74   0.0000       2.708684        73.7070 
  75   0.0000       2.708684        73.7070 
  76   0.0000       2.838707        77.2451 
  77   0.0000       2.838729        77.2457 
  78   0.0000       2.939448        79.9864 
  79   0.0000       3.276802        89.1663 
  80   0.0000       3.276802        89.1663 
  81   0.0000       3.548138        96.5497 
  82   0.0000       3.624496        98.6276 
  83   0.0000       3.857324       104.9631 
  84   0.0000       3.857324       104.9631 
  85   0.0000       3.904562       106.2485 
  86   0.0000       3.904566       106.2487 
  87   0.0000       3.938922       107.1835 
  88   0.0000       3.938922       107.1835 
  89   0.0000       3.994937       108.7078 
  90   0.0000       3.994937       108.7078 
  91   0.0000       4.277720       116.4027 
  92   0.0000       4.371396       118.9517 
  93   0.0000       4.863795       132.3506 
  94   0.0000       4.883315       132.8818 
  95   0.0000       4.883315       132.8818 
  96   0.0000       5.041803       137.1944 
  97   0.0000       5.041836       137.1953 
  98   0.0000       5.045378       137.2917 
  99   0.0000       5.045378       137.2917 
 100   0.0000       5.122891       139.4010 
 101   0.0000       5.122894       139.4010 
 102   0.0000       5.330323       145.0455 
 103   0.0000       5.330323       145.0455 
 104   0.0000       5.590998       152.1388 
 105   0.0000       5.659995       154.0163 
 106   0.0000       5.659997       154.0164 
 107   0.0000       5.983842       162.8286 
 108   0.0000       5.983842       162.8286 
 109   0.0000       6.974932       189.7976 
 110   0.0000       8.446458       229.8398 
 111   0.0000       8.446458       229.8398 
 112   0.0000       8.529581       232.1017 
 113   0.0000       8.529605       232.1023 
 114   0.0000       8.805293       239.6042 
 115   0.0000       8.806250       239.6303 
 116   0.0000       8.827736       240.2149 
 117   0.0000       8.857939       241.0368 
 118   0.0000       8.857939       241.0368 
 119   0.0000       8.919343       242.7077 
 120   0.0000       8.919343       242.7077 
 121   0.0000       9.236110       251.3273 
 122   0.0000      12.431487       338.2780 
 123   0.0000      12.431487       338.2780 
 124   0.0000      12.445255       338.6526 
 125   0.0000      12.445278       338.6532 
 126   0.0000      12.468369       339.2816 
 127   0.0000      12.468369       339.2816 
 128   0.0000      12.475225       339.4681 
 129   0.0000      13.516682       367.8076 
 130   0.0000      14.063215       382.6795 
 131   0.0000      14.063215       382.6795 
 132   0.0000      14.063526       382.6880 
 133   0.0000      14.063532       382.6882 
 134   0.0000      14.080978       383.1629 
 135   0.0000      14.080990       383.1632 
 136   0.0000      14.249646       387.7526 
 137   0.0000      14.249646       387.7526 
 138   0.0000      14.552054       395.9815 

                 SPIN DOWN ORBITALS
  NO   OCC          E(Eh)            E(eV) 
   0   1.0000    -299.551835     -8151.2198 
   1   1.0000     -35.539297      -967.0734 
   2   1.0000     -30.950943      -842.2180 
   3   1.0000     -30.933396      -841.7405 
   4   1.0000     -30.933396      -841.7405 
   5   1.0000     -24.500073      -666.6809 
   6   1.0000      -3.901930      -106.1769 
   7   1.0000      -2.497037       -67.9478 
   8   1.0000      -2.486611       -67.6641 
   9   1.0000      -2.486611       -67.6641 
  10   1.0000      -1.035258       -28.1708 
  11   1.0000      -0.348699        -9.4886 
  12   1.0000      -0.317244        -8.6326 
  13   1.0000      -0.317244        -8.6326 
  14   1.0000      -0.204222        -5.5572 
  15   1.0000      -0.204222        -5.5572 
  16   1.0000      -0.185020        -5.0347 
  17   1.0000      -0.185020        -5.0347 
  18   0.0000      -0.122853        -3.3430 
  19   0.0000      -0.074378        -2.0239 
  20   0.0000      -0.003644        -0.0992 
  21   0.0000      -0.003644        -0.0992 
  22   0.0000       0.013589         0.3698 
  23   0.0000       0.021509         0.5853 
  24   0.0000       0.050543         1.3753 
  25   0.0000       0.050543         1.3753 
  26   0.0000       0.081183         2.2091 
  27   0.0000       0.088771         2.4156 
  28   0.0000       0.088772         2.4156 
  29   0.0000       0.091698         2.4952 
  30   0.0000       0.091698         2.4952 
  31   0.0000       0.104353         2.8396 
  32   0.0000       0.136574         3.7164 
  33   0.0000       0.224493         6.1088 
  34   0.0000       0.224493         6.1088 
  35   0.0000       0.236080         6.4241 
  36   0.0000       0.261794         7.1238 
  37   0.0000       0.261794         7.1238 
  38   0.0000       0.288923         7.8620 
  39   0.0000       0.374117        10.1803 
  40   0.0000       0.374118        10.1803 
  41   0.0000       0.386602        10.5200 
  42   0.0000       0.386602        10.5200 
  43   0.0000       0.408038        11.1033 
  44   0.0000       0.540188        14.6993 
  45   0.0000       0.664559        18.0836 
  46   0.0000       0.787154        21.4195 
  47   0.0000       0.787176        21.4201 
  48   0.0000       0.875235        23.8163 
  49   0.0000       0.875235        23.8163 
  50   0.0000       0.908162        24.7123 
  51   0.0000       0.980720        26.6868 
  52   0.0000       0.980720        26.6868 
  53   0.0000       1.086478        29.5646 
  54   0.0000       1.091498        29.7012 
  55   0.0000       1.091498        29.7012 
  56   0.0000       1.281421        34.8692 
  57   0.0000       1.281421        34.8692 
  58   0.0000       1.345211        36.6051 
  59   0.0000       1.350506        36.7491 
  60   0.0000       1.350506        36.7491 
  61   0.0000       1.392531        37.8927 
  62   0.0000       1.392531        37.8927 
  63   0.0000       1.438134        39.1336 
  64   0.0000       1.438134        39.1336 
  65   0.0000       1.537730        41.8437 
  66   0.0000       1.696483        46.1636 
  67   0.0000       1.745213        47.4897 
  68   0.0000       1.745213        47.4897 
  69   0.0000       2.342716        63.7485 
  70   0.0000       2.619562        71.2819 
  71   0.0000       2.619700        71.2857 
  72   0.0000       2.703267        73.5596 
  73   0.0000       2.703267        73.5596 
  74   0.0000       2.710493        73.7563 
  75   0.0000       2.710493        73.7563 
  76   0.0000       2.840556        77.2955 
  77   0.0000       2.840576        77.2960 
  78   0.0000       2.947072        80.1939 
  79   0.0000       3.281175        89.2853 
  80   0.0000       3.281175        89.2853 
  81   0.0000       3.575597        97.2969 
  82   0.0000       3.643331        99.1401 
  83   0.0000       3.880931       105.6055 
  84   0.0000       3.880931       105.6055 
  85   0.0000       3.907568       106.3303 
  86   0.0000       3.907570       106.3304 
  87   0.0000       3.959545       107.7447 
  88   0.0000       3.959545       107.7447 
  89   0.0000       4.024578       109.5143 
  90   0.0000       4.024578       109.5143 
  91   0.0000       4.324638       117.6794 
  92   0.0000       4.399338       119.7121 
  93   0.0000       4.875961       132.6816 
  94   0.0000       4.883134       132.8768 
  95   0.0000       4.883134       132.8768 
  96   0.0000       5.049421       137.4017 
  97   0.0000       5.049421       137.4017 
  98   0.0000       5.067148       137.8841 
  99   0.0000       5.067176       137.8849 
 100   0.0000       5.132895       139.6732 
 101   0.0000       5.132900       139.6733 
 102   0.0000       5.357053       145.7728 
 103   0.0000       5.357053       145.7728 
 104   0.0000       5.646139       153.6392 
 105   0.0000       5.683054       154.6438 
 106   0.0000       5.683055       154.6438 
 107   0.0000       5.996665       163.1775 
 108   0.0000       5.996665       163.1775 
 109   0.0000       7.015945       190.9136 
 110   0.0000       8.446118       229.8306 
 111   0.0000       8.446118       229.8306 
 112   0.0000       8.529779       232.1071 
 113   0.0000       8.529813       232.1080 
 114   0.0000       8.804739       239.5891 
 115   0.0000       8.805692       239.6151 
 116   0.0000       8.830156       240.2808 
 117   0.0000       8.858907       241.0631 
 118   0.0000       8.858907       241.0631 
 119   0.0000       8.919920       242.7234 
 120   0.0000       8.919920       242.7234 
 121   0.0000       9.239632       251.4232 
 122   0.0000      12.458047       339.0007 
 123   0.0000      12.458070       339.0013 
 124   0.0000      12.461130       339.0846 
 125   0.0000      12.461130       339.0846 
 126   0.0000      12.536630       341.1391 
 127   0.0000      12.536630       341.1391 
 128   0.0000      12.569458       342.0323 
 129   0.0000      13.532553       368.2395 
 130   0.0000      14.080227       383.1425 
 131   0.0000      14.080227       383.1425 
 132   0.0000      14.091265       383.4428 
 133   0.0000      14.091269       383.4429 
 134   0.0000      14.115100       384.0914 
 135   0.0000      14.115115       384.0918 
 136   0.0000      14.306469       389.2988 
 137   0.0000      14.306469       389.2988 
 138   0.0000      14.615812       397.7165 

                    ********************************
                    * MULLIKEN POPULATION ANALYSIS *
                    ********************************

--------------------------------------------
MULLIKEN ATOMIC CHARGES AND SPIN POPULATIONS
--------------------------------------------
   0 Ni:    0.644030    0.978847
   1 F :   -0.644030    0.021153
Sum of atomic charges         :   -0.0000000
Sum of atomic spin populations:    1.0000000

-----------------------------------------------------
MULLIKEN REDUCED ORBITAL CHARGES AND SPIN POPULATIONS
-----------------------------------------------------
CHARGE
  0 Nis       :     6.237153  s :     6.237153
      pz      :     4.032848  p :    12.124462
      px      :     4.045807
      py      :     4.045807
      dz2     :     1.003144  d :     8.979427
      dxz     :     1.988768
      dyz     :     1.988768
      dx2y2   :     1.999374
      dxy     :     1.999374
      f0      :     0.006367  f :     0.014366
      f+1     :     0.003861
      f-1     :     0.003861
      f+2     :     0.000139
      f-2     :     0.000139
      f+3     :     0.000000
      f-3     :     0.000000
      g0      :     0.000277  g :     0.000563
      g+1     :     0.000132
      g-1     :     0.000132
      g+2     :     0.000011
      g-2     :     0.000011
      g+3     :     0.000000
      g-3     :     0.000000
      g+4     :     0.000000
      g-4     :     0.000000
  1 F s       :     3.995330  s :     3.995330
      pz      :     1.722483  p :     5.636888
      px      :     1.957203
      py      :     1.957203
      dz2     :     0.001894  d :     0.010039
      dxz     :     0.003744
      dyz     :     0.003744
      dx2y2   :     0.000328
      dxy     :     0.000328
      f0      :     0.000503  f :     0.001772
      f+1     :     0.000486
      f-1     :     0.000486
      f+2     :     0.000148
      f-2     :     0.000148
      f+3     :     0.000000
      f-3     :     0.000000

SPIN
  0 Nis       :     0.146821  s :     0.146821
      pz      :     0.001628  p :     0.006000
      px      :     0.002186
      py      :     0.002186
      dz2     :     0.823592  d :     0.826388
      dxz     :     0.001228
      dyz     :     0.001228
      dx2y2   :     0.000170
      dxy     :     0.000170
      f0      :     0.000137  f :    -0.000411
      f+1     :    -0.000255
      f-1     :    -0.000255
      f+2     :    -0.000019
      f-2     :    -0.000019
      f+3     :    -0.000000
      f-3     :    -0.000000
      g0      :     0.000059  g :     0.000048
      g+1     :     0.000005
      g-1     :     0.000005
      g+2     :    -0.000010
      g-2     :    -0.000010
      g+3     :    -0.000000
      g-3     :    -0.000000
      g+4     :    -0.000000
      g-4     :     0.000000
  1 F s       :     0.007267  s :     0.007267
      pz      :     0.019383  p :     0.013133
      px      :    -0.003125
      py      :    -0.003125
      dz2     :     0.000873  d :     0.000609
      dxz     :    -0.000018
      dyz     :    -0.000018
      dx2y2   :    -0.000114
      dxy     :    -0.000114
      f0      :     0.000238  f :     0.000145
      f+1     :    -0.000021
      f-1     :    -0.000021
      f+2     :    -0.000026
      f-2     :    -0.000026
      f+3     :    -0.000000
      f-3     :    -0.000000


                     *******************************
                     * LOEWDIN POPULATION ANALYSIS *
                     *******************************

-------------------------------------------
LOEWDIN ATOMIC CHARGES AND SPIN POPULATIONS
-------------------------------------------
   0 Ni:    0.455355    0.970684
   1 F :   -0.455355    0.029316

----------------------------------------------------
LOEWDIN REDUCED ORBITAL CHARGES AND SPIN POPULATIONS
----------------------------------------------------
CHARGE
  0 Nis       :     6.169780  s :     6.169780
      pz      :     4.093840  p :    12.237144
      px      :     4.071652
      py      :     4.071652
      dz2     :     1.087719  d :     9.030702
      dxz     :     1.976662
      dyz     :     1.976662
      dx2y2   :     1.994830
      dxy     :     1.994830
      f0      :     0.046368  f :     0.104305
      f+1     :     0.028688
      f-1     :     0.028688
      f+2     :     0.000280
      f-2     :     0.000280
      f+3     :     0.000000
      f-3     :     0.000000
      g0      :     0.001336  g :     0.002714
      g+1     :     0.000682
      g-1     :     0.000682
      g+2     :     0.000008
      g-2     :     0.000008
      g+3     :     0.000000
      g-3     :     0.000000
      g+4     :     0.000000
      g-4     :     0.000000
  1 F s       :     3.732470  s :     3.732470
      pz      :     1.774743  p :     5.509394
      px      :     1.867326
      py      :     1.867326
      dz2     :     0.077288  d :     0.167998
      dxz     :     0.041845
      dyz     :     0.041845
      dx2y2   :     0.003510
      dxy     :     0.003510
      f0      :     0.016457  f :     0.045493
      f+1     :     0.013146
      f-1     :     0.013146
      f+2     :     0.001372
      f-2     :     0.001372
      f+3     :     0.000000
      f-3     :     0.000000

SPIN
  0 Nis       :     0.152666  s :     0.152666
      pz      :     0.005969  p :     0.009311
      px      :     0.001671
      py      :     0.001671
      dz2     :     0.805295  d :     0.808385
      dxz     :     0.001373
      dyz     :     0.001373
      dx2y2   :     0.000171
      dxy     :     0.000171
      f0      :     0.001008  f :     0.000232
      f+1     :    -0.000359
      f-1     :    -0.000359
      f+2     :    -0.000029
      f-2     :    -0.000029
      f+3     :    -0.000000
      f-3     :    -0.000000
      g0      :     0.000103  g :     0.000090
      g+1     :    -0.000001
      g-1     :    -0.000001
      g+2     :    -0.000006
      g-2     :    -0.000006
      g+3     :    -0.000000
      g-3     :    -0.000000
      g+4     :    -0.000000
      g-4     :     0.000000
  1 F s       :     0.005239  s :     0.005239
      pz      :     0.023192  p :     0.018389
      px      :    -0.002401
      py      :    -0.002401
      dz2     :     0.003195  d :     0.002481
      dxz     :    -0.000237
      dyz     :    -0.000237
      dx2y2   :    -0.000120
      dxy     :    -0.000120
      f0      :     0.003333  f :     0.003207
      f+1     :    -0.000046
      f-1     :    -0.000046
      f+2     :    -0.000017
      f-2     :    -0.000017
      f+3     :    -0.000000
      f-3     :    -0.000000


                      *****************************
                      * MAYER POPULATION ANALYSIS *
                      *****************************

  NA   - Mulliken gross atomic population
  ZA   - Total nuclear charge
  QA   - Mulliken gross atomic charge
  VA   - Mayer's total valence
  BVA  - Mayer's bonded valence
  FA   - Mayer's free valence

  ATOM       NA         ZA         QA         VA         BVA        FA
  0 Ni    27.3560    28.0000     0.6440     1.5708     0.6705     0.9004
  1 F      9.6440     9.0000    -0.6440     0.6722     0.6705     0.0017

  Mayer bond orders larger than 0.100000
B(  0-Ni,  1-F ) :   0.6705 

-------
TIMINGS
-------

Total SCF time: 0 days 0 hours 1 min 4 sec 

Total time                  ....      64.650 sec
Sum of individual times     ....      64.301 sec  ( 99.5%)

Fock matrix formation       ....      63.978 sec  ( 99.0%)
  XC integration            ....       0.310 sec  (  0.5% of F)
    Basis function eval.    ....       0.043 sec  ( 13.9% of XC)
    Density eval.           ....       0.048 sec  ( 15.3% of XC)
    XC-Functional eval.     ....       0.013 sec  (  4.2% of XC)
    XC-Potential eval.      ....       0.126 sec  ( 40.8% of XC)
Diagonalization             ....       0.049 sec  (  0.1%)
Density matrix formation    ....       0.007 sec  (  0.0%)
Population analysis         ....       0.006 sec  (  0.0%)
Initial guess               ....       0.097 sec  (  0.1%)
Orbital Transformation      ....       0.000 sec  (  0.0%)
Orbital Orthonormalization  ....       0.000 sec  (  0.0%)
DIIS solution               ....       0.016 sec  (  0.0%)
Grid generation             ....       0.149 sec  (  0.2%)


-------------------------------------------------------------------------------
                          DFT DISPERSION CORRECTION                            
                                                                               
                              DFTD3 V3.1  Rev 1                                
                          USING Becke-Johnson damping                          
-------------------------------------------------------------------------------
The TPSSH functional is recognized
Active option DFTDOPT                   ...         4   

molecular C6(AA) [au] = 322.665914 


            DFT-D V3
 parameters
 s6 scaling factor         :     1.0000 
 a1 scaling factor         :     0.4529 
 s8 scaling factor         :     2.2382 
 a2 scaling factor         :     4.6550 
 ad hoc parameters k1-k3   :    16.0000     1.3333    -4.0000 

 Edisp/kcal,au: -0.317015188813  -0.000505195807 
 E6   /kcal   :  -0.124818714 
 E8   /kcal   :  -0.192196475 
 % E8         :  60.626898017 

-------------------------   ----------------
Dispersion correction           -0.000505196
-------------------------   ----------------


-------------------------   --------------------
FINAL SINGLE POINT ENERGY     -1608.245867724656
-------------------------   --------------------


                            ***************************************
                            *     ORCA property calculations      *
                            ***************************************

                                    ---------------------
                                    Active property flags
                                    ---------------------
   (+) Dipole Moment


------------------------------------------------------------------------------
                       ORCA ELECTRIC PROPERTIES CALCULATION
------------------------------------------------------------------------------

Dipole Moment Calculation                       ... on
Quadrupole Moment Calculation                   ... off
Polarizability Calculation                      ... off
GBWName                                         ... 44_NiF.gbw
Electron density file                           ... 44_NiF.scfp
The origin for moment calculation is the CENTER OF MASS  = ( 0.000000,  0.000000  1.043608)

-------------
DIPOLE MOMENT
-------------
                                X             Y             Z
Electronic contribution:      0.00000       0.00000      -1.73516
Nuclear contribution   :      0.00000       0.00000      -0.15532
                        -----------------------------------------
Total Dipole Moment    :      0.00000       0.00000      -1.89048
                        -----------------------------------------
Magnitude (a.u.)       :      1.89048
Magnitude (Debye)      :      4.80522



--------------------
Rotational spectrum 
--------------------
 
Rotational constants in cm-1:     0.000000     0.382421     0.382421 
Rotational constants in MHz :     0.000000 11464.697327 11464.697327 

 Dipole components along the rotational axes: 
x,y,z [a.u.] :    -1.890480     0.000000     0.000000 
x,y,z [Debye]:    -4.805218     0.000000     0.000000 

 

Timings for individual modules:

Sum of individual times         ...       68.287 sec (=   1.138 min)
GTO integral calculation        ...        3.161 sec (=   0.053 min)   4.6 %
SCF iterations                  ...       65.126 sec (=   1.085 min)  95.4 %
                             ****ORCA TERMINATED NORMALLY****
TOTAL RUN TIME: 0 days 0 hours 1 minutes 8 seconds 925 msec
