
                                 *****************
                                 * O   R   C   A *
                                 *****************

           --- An Ab Initio, DFT and Semiempirical electronic structure package ---

                  #######################################################
                  #                        -***-                        #
                  #          Department of theory and spectroscopy      #
                  #               Directorship: Frank Neese             #
                  #        Max Planck Institute fuer Kohlenforschung    #
                  #                Kaiser Wilhelm Platz 1               #
                  #                 D-45470 Muelheim/Ruhr               #
                  #                      Germany                        #
                  #                                                     #
                  #                  All rights reserved                #
                  #                        -***-                        #
                  #######################################################


                         Program Version 4.2.0 -  RELEASE  -


 With contributions from (in alphabetic order):
   Daniel Aravena         : Magnetic Suceptibility
   Michael Atanasov       : Ab Initio Ligand Field Theory (pilot matlab implementation)
   Alexander A. Auer      : GIAO ZORA, VPT2
   Ute Becker             : Parallelization
   Giovanni Bistoni       : ED, misc. LED, open-shell LED, HFLED
   Martin Brehm           : Molecular dynamics
   Dmytro Bykov           : SCF Hessian
   Vijay G. Chilkuri      : MRCI spin determinant printing, contributions to CSF-ICE
   Dipayan Datta          : RHF DLPNO-CCSD density
   Achintya Kumar Dutta   : EOM-CC, STEOM-CC
   Dmitry Ganyushin       : Spin-Orbit,Spin-Spin,Magnetic field MRCI
   Miquel Garcia          : C-PCM Hessian, Gaussian charge scheme
   Yang Guo               : DLPNO-NEVPT2, CIM, IAO-localization
   Andreas Hansen         : Spin unrestricted coupled pair/coupled cluster methods
   Benjamin Helmich-Paris : CASSCF linear response (MC-RPA)
   Lee Huntington         : MR-EOM, pCC
   Robert Izsak           : Overlap fitted RIJCOSX, COSX-SCS-MP3, EOM
   Christian Kollmar      : KDIIS, OOCD, Brueckner-CCSD(T), CCSD density
   Simone Kossmann        : Meta GGA functionals, TD-DFT gradient, OOMP2, MP2 Hessian
   Martin Krupicka        : AUTO-CI
   Lucas Lang             : DCDCAS
   Dagmar Lenk            : GEPOL surface, SMD
   Dimitrios Liakos       : Extrapolation schemes; Compound Job, initial MDCI parallelization
   Dimitrios Manganas     : Further ROCIS development; embedding schemes
   Dimitrios Pantazis     : SARC Basis sets
   Taras Petrenko         : DFT Hessian,TD-DFT gradient, ASA, ECA, R-Raman, ABS, FL, XAS/XES, NRVS
   Peter Pinski           : DLPNO-MP2, DLPNO-MP2 Gradient
   Christoph Reimann      : Effective Core Potentials
   Marius Retegan         : Local ZFS, SOC
   Christoph Riplinger    : Optimizer, TS searches, QM/MM, DLPNO-CCSD(T), (RO)-DLPNO pert. Triples
   Tobias Risthaus        : Range-separated hybrids, TD-DFT gradient, RPA, STAB
   Michael Roemelt        : Original ROCIS implementation
   Masaaki Saitow         : Open-shell DLPNO-CCSD energy and density
   Barbara Sandhoefer     : DKH picture change effects
   Avijit Sen             : IP-ROCIS
   Kantharuban Sivalingam : CASSCF convergence, NEVPT2, FIC-MRCI
   Bernardo de Souza      : ESD, SOC TD-DFT
   Georgi Stoychev        : AutoAux, RI-MP2 NMR
   Willem Van den Heuvel  : Paramagnetic NMR
   Boris Wezisla          : Elementary symmetry handling
   Frank Wennmohs         : Technical directorship


 We gratefully acknowledge several colleagues who have allowed us to
 interface, adapt or use parts of their codes:
   Stefan Grimme, W. Hujo, H. Kruse,             : VdW corrections, initial TS optimization,
                  C. Bannwarth                     DFT functionals, gCP, sTDA/sTD-DF
   Ed Valeev, F. Pavosevic, A. Kumar             : LibInt (2-el integral package), F12 methods
   Garnet Chan, S. Sharma, J. Yang, R. Olivares  : DMRG
   Ulf Ekstrom                                   : XCFun DFT Library
   Mihaly Kallay                                 : mrcc  (arbitrary order and MRCC methods)
   Andreas Klamt, Michael Diedenhofen            : otool_cosmo (COSMO solvation model)
   Jiri Pittner, Ondrej Demel                    : Mk-CCSD
   Frank Weinhold                                : gennbo (NPA and NBO analysis)
   Christopher J. Cramer and Donald G. Truhlar   : smd solvation model
   Lars Goerigk                                  : TD-DFT with DH, B97 family of functionals
   V. Asgeirsson, H. Jonsson                     : NEB implementation
   FAccTs GmbH                                   : IRC, NEB, NEB-TS, Multilevel, MM, QM/MM, CI optimization
   S Lehtola, MJT Oliveira, MAL Marques          : LibXC Library


 Your calculation uses the libint2 library for the computation of 2-el integrals
 For citations please refer to: http://libint.valeyev.net

 Your ORCA version has been built with support for libXC version: 4.2.3
 For citations please refer to: https://tddft.org/programs/libxc/

 This ORCA versions uses:
   CBLAS   interface :  Fast vector & matrix operations
   LAPACKE interface :  Fast linear algebra routines
   SCALAPACK package :  Parallel linear algebra routines


Your calculation utilizes the atom-pairwise dispersion correction
with the Becke-Johnson damping scheme (D3BJ)
Cite in your paper:
S.Grimme, S.Ehrlich, L.Goerigk, J Comput Chem, (2011), 32, 1456–1465 
S.Grimme, J.Antony, S.Ehrlich and H.Krieg, J.Chem.Phys., 132, (2010), 154104 
   

----- Orbital basis set information -----
Your calculation utilizes the basis: aug-cc-pVTZ 
    H, B-Ne : Obtained from the ccRepo (grant-hill.group.shef.ac.uk/ccrepo) Feb. 2017
              R. A. Kendall, T. H. Dunning, Jr., R. J. Harrison, J. Chem. Phys. 96, 6796 (1992)
         He : Obtained from the ccRepo (grant-hill.group.shef.ac.uk/ccrepo) Feb. 2017
              D. E. Woon, T. H. Dunning, Jr., J. Chem. Phys. 100, 2975 (1994)
  Li-Be, Na : Obtained from the ccRepo (grant-hill.group.shef.ac.uk/ccrepo) Feb. 2017
              B. P. Prascher, D. E. Woon, K. A. Peterson, T. H. Dunning, Jr., A. K. Wilson, Theor. Chem. Acc. 128, 69 (2011)
         Mg : Obtained from the Peterson Research Group Website (tyr0.chem.wsu.edu/~kipeters) Feb. 2017
              B. P. Prascher, D. E. Woon, K. A. Peterson, T. H. Dunning, Jr., A. K. Wilson, Theor. Chem. Acc. 128, 69 (2011)
      Al-Ar : Obtained from the ccRepo (grant-hill.group.shef.ac.uk/ccrepo) Feb. 2017
              D. E. Woon, T. H. Dunning, Jr., J. Chem. Phys. 98, 1358 (1993)
      Sc-Zn : Obtained from the ccRepo (grant-hill.group.shef.ac.uk/ccrepo) Feb. 2017
              N. B. Balabanov, K. A. Peterson, J. Chem. Phys. 123, 064107 (2005)
              N. B. Balabanov, K. A. Peterson, J. Chem. Phys. 125, 074110 (2006)
      Ga-Kr : Obtained from the ccRepo (grant-hill.group.shef.ac.uk/ccrepo) Feb. 2017
              A. K. Wilson, D. E. Woon, K. A. Peterson, T. H. Dunning, Jr., J. Chem. Phys. 110, 7667 (1999)
     Ag, Au : Obtained from the Peterson Research Group Website (tyr0.chem.wsu.edu/~kipeters) Feb. 2017
              K. A. Peterson, C. Puzzarini, Theor. Chem. Acc. 114, 283 (2005)

----- AuxJK basis set information -----
Your calculation utilizes the auxiliary basis: def2/JK
   H-Ba, Hf-Rn: F. Weigend, J. Comput. Chem. 29, 167 (2008).

================================================================================
                                        WARNINGS
                       Please study these warnings very carefully!
================================================================================


WARNING: your system is open-shell and RHF/RKS was chosen
  ===> : WILL SWITCH to UHF/UKS


INFO   : the flag for use of LIBINT has been found!

================================================================================
                                       INPUT FILE
================================================================================
NAME = 46_NiBr.in
|  1> #
|  2> # 46_NiBr tpssh/aug-cc-pvtz
|  3> #
|  4> ! tpssh d3bj aug-cc-pvtz def2/jk grid4 nofinalgrid
|  5> 
|  6> *xyz 0 2
|  7>   Ni  0.00000000000000      0.00000000000000     -0.09144593844003
|  8>   Br  0.00000000000000      0.00000000000000      2.09144593844003
|  9> *
| 10> 
| 11> %pal
| 12> nprocs 24
| 13> end
| 14> 
| 15> 
| 16>                          ****END OF INPUT****
================================================================================

                       ****************************
                       * Single Point Calculation *
                       ****************************

---------------------------------
CARTESIAN COORDINATES (ANGSTROEM)
---------------------------------
  Ni     0.000000    0.000000   -0.091446
  Br     0.000000    0.000000    2.091446

----------------------------
CARTESIAN COORDINATES (A.U.)
----------------------------
  NO LB      ZA    FRAG     MASS         X           Y           Z
   0 Ni   28.0000    0    58.700    0.000000    0.000000   -0.172808
   1 Br   35.0000    0    79.900    0.000000    0.000000    3.952260

--------------------------------
INTERNAL COORDINATES (ANGSTROEM)
--------------------------------
 Ni     0   0   0     0.000000000000     0.00000000     0.00000000
 Br     1   0   0     2.182891876880     0.00000000     0.00000000

---------------------------
INTERNAL COORDINATES (A.U.)
---------------------------
 Ni     0   0   0     0.000000000000     0.00000000     0.00000000
 Br     1   0   0     4.125067827265     0.00000000     0.00000000

---------------------
BASIS SET INFORMATION
---------------------
There are 2 groups of distinct atoms

 Group   1 Type Ni  : 116s77p23d3f2g contracted to 8s7p5d3f2g pattern {19191919191911/151515151511/77711/111/11}
 Group   2 Type Br  : 75s36p10d2f contracted to 7s6p4d2f pattern {18181818111/111111111/7111/11}

Atom   0Ni   basis set group =>   1
Atom   1Br   basis set group =>   2
----------------------------------
AUXILIARY/JK BASIS SET INFORMATION
----------------------------------
There are 2 groups of distinct atoms

 Group   1 Type Ni  : 19s14p12d10f7g3h1i contracted to 16s13p11d9f5g3h1i pattern {4111111111111111/2111111111111/21111111111/211111111/31111/111/1}
 Group   2 Type Br  : 20s14p13d10f7g3h contracted to 17s13p12d9f6g3h pattern {41111111111111111/2111111111111/211111111111/211111111/211111/111}

Atom   0Ni   basis set group =>   1
Atom   1Br   basis set group =>   2


           ************************************************************
           *        Program running with 24 parallel MPI-processes    *
           *              working on a common directory               *
           ************************************************************
------------------------------------------------------------------------------
                           ORCA GTO INTEGRAL CALCULATION
------------------------------------------------------------------------------

                         BASIS SET STATISTICS AND STARTUP INFO

 # of primitive gaussian shells          ...  344
 # of primitive gaussian functions       ...  748
 # of contracted shells                  ...   44
 # of contracted basis functions         ...  152
 Highest angular momentum                ...    4
 Maximum contraction depth               ...   19
 Integral package used                   ... LIBINT
 Integral threshhold            Thresh   ...  1.000e-10
 Primitive cut-off              TCut     ...  1.000e-11


------------------------------ INTEGRAL EVALUATION ----------------------------


 * One electron integrals 
 Pre-screening matrix                    ... done
 Shell pair data                         ... done (   0.002 sec)



           ************************************************************
           *        Program running with 24 parallel MPI-processes    *
           *              working on a common directory               *
           ************************************************************
-------------------------------------------------------------------------------
                                 ORCA SCF
-------------------------------------------------------------------------------

------------
SCF SETTINGS
------------
Hamiltonian:
 Density Functional     Method          .... DFT(GTOs)
 Exchange Functional    Exchange        .... TPSS
 Correlation Functional Correlation     .... TPSS
 LDA part of GGA corr.  LDAOpt          .... PW91-LDA
 Gradients option       PostSCFGGA      .... off
 Hybrid DFT is turned on
   Fraction HF Exchange ScalHFX         ....  0.100000
   Scaling of DF-GGA-X  ScalDFX         ....  0.900000
   Scaling of DF-GGA-C  ScalDFC         ....  1.000000
   Scaling of DF-LDA-C  ScalLDAC        ....  1.000000
   Perturbative correction              ....  0.000000
   Density functional embedding theory  .... OFF
   NL short-range parameter             ....  5.200000


General Settings:
 Integral files         IntName         .... 46_NiBr
 Hartree-Fock type      HFTyp           .... UHF
 Total Charge           Charge          ....    0
 Multiplicity           Mult            ....    2
 Number of Electrons    NEL             ....   63
 Basis Dimension        Dim             ....  152
 Nuclear Repulsion      ENuc            ....    237.5718511882 Eh

Convergence Acceleration:
 DIIS                   CNVDIIS         .... on
   Start iteration      DIISMaxIt       ....    12
   Startup error        DIISStart       ....  0.200000
   # of expansion vecs  DIISMaxEq       ....     5
   Bias factor          DIISBfac        ....   1.050
   Max. coefficient     DIISMaxC        ....  10.000
 Newton-Raphson         CNVNR           .... off
 SOSCF                  CNVSOSCF        .... off
 Level Shifting         CNVShift        .... on
   Level shift para.    LevelShift      ....    0.2500
   Turn off err/grad.   ShiftErr        ....    0.0010
 Zerner damping         CNVZerner       .... off
 Static damping         CNVDamp         .... on
   Fraction old density DampFac         ....    0.7000
   Max. Damping (<1)    DampMax         ....    0.9800
   Min. Damping (>=0)   DampMin         ....    0.0000
   Turn off err/grad.   DampErr         ....    0.1000
 Fernandez-Rico         CNVRico         .... off

SCF Procedure:
 Maximum # iterations   MaxIter         ....   125
 SCF integral mode      SCFMode         .... Direct
   Integral package                     .... LIBINT
 Reset frequency        DirectResetFreq ....    20
 Integral Threshold     Thresh          ....  1.000e-10 Eh
 Primitive CutOff       TCut            ....  1.000e-11 Eh

Convergence Tolerance:
 Convergence Check Mode ConvCheckMode   .... Total+1el-Energy
 Convergence forced     ConvForced      .... 0
 Energy Change          TolE            ....  1.000e-06 Eh
 1-El. energy change                    ....  1.000e-03 Eh
 DIIS Error             TolErr          ....  1.000e-06


Diagonalization of the overlap matrix:
Smallest eigenvalue                        ... 1.507e-04
Time for diagonalization                   ...    0.006 sec
Threshold for overlap eigenvalues          ... 1.000e-08
Number of eigenvalues below threshold      ... 0
Time for construction of square roots      ...    0.002 sec
Total time needed                          ...    0.008 sec

-------------------
DFT GRID GENERATION
-------------------

General Integration Accuracy     IntAcc      ...  4.670
Radial Grid Type                 RadialGrid  ... Gauss-Chebyshev
Angular Grid (max. acc.)         AngularGrid ... Lebedev-302
Angular grid pruning method      GridPruning ... 3 (G Style)
Weight generation scheme         WeightScheme... Becke
Basis function cutoff            BFCut       ...    1.0000e-10
Integration weight cutoff        WCut        ...    1.0000e-14
Grids for H and He will be reduced by one unit

# of grid points (after initial pruning)     ...  19280 (   0.0 sec)
# of grid points (after weights+screening)   ...  19253 (   0.0 sec)
nearest neighbour list constructed           ...    0.0 sec
Grid point re-assignment to atoms done       ...    0.0 sec
Grid point division into batches done        ...    0.2 sec
Reduced shell lists constructed in    0.2 sec

Total number of grid points                  ...    19253
Total number of batches                      ...      302
Average number of points per batch           ...       63
Average number of grid points per atom       ...     9626
Average number of shells per batch           ...    16.36 (37.18%)
Average number of basis functions per batch  ...    40.36 (26.55%)
Average number of large shells per batch     ...     9.71 (59.39%)
Average number of large basis fcns per batch ...    23.57 (58.41%)
Maximum spatial batch extension              ...  22.45, 22.17, 16.62 au
Average spatial batch extension              ...   0.77,  0.77,  0.63 au

Time for grid setup =    0.201 sec

------------------------------
INITIAL GUESS: MODEL POTENTIAL
------------------------------
Loading Hartree-Fock densities                     ... done
Calculating cut-offs                               ... done
Setting up the integral package                    ... done
Initializing the effective Hamiltonian             ... done
Starting the Coulomb interaction                   ... done (   0.0 sec)
Reading the grid                                   ... done
Mapping shells                                     ... done
Starting the XC term evaluation                    ... done (   0.0 sec)
  promolecular density results
     # of electrons  =     63.000019529
     EX              =   -150.822394439
     EC              =     -2.994433070
     EX+EC           =   -153.816827509
Transforming the Hamiltonian                       ... done (   0.0 sec)
Diagonalizing the Hamiltonian                      ... done (   0.0 sec)
Back transforming the eigenvectors                 ... done (   0.0 sec)
Now organizing SCF variables                       ... done
                      ------------------
                      INITIAL GUESS DONE (   0.3 sec)
                      ------------------
--------------
SCF ITERATIONS
--------------
ITER       Energy         Delta-E        Max-DP      RMS-DP      [F,P]     Damp
               ***  Starting incremental Fock matrix formation  ***
  0  -4082.3279649909   0.000000000000 0.11879148  0.00156999  0.4273384 0.7000
  1  -4082.3600717330  -0.032106742141 0.03431722  0.00047182  0.1831706 0.7000
                               ***Turning on DIIS***
  2  -4082.4072821561  -0.047210423106 0.06178741  0.00107429  0.0810899 0.0000
  3  -4082.4494573554  -0.042175199223 0.01174762  0.00018170  0.3101561 0.7000
  4  -4082.4713980014  -0.021940646073 0.01706727  0.00018036  0.2428015 0.7000
  5  -4082.4891123150  -0.017714313577 0.01893053  0.00016598  0.1811053 0.7000
  6  -4082.5014918488  -0.012379533823 0.01884202  0.00015230  0.1300215 0.7000
  7  -4082.5095803491  -0.008088500266 0.06114072  0.00049295  0.0888140 0.0000
  8  -4082.5211319934  -0.011551644301 0.00869594  0.00010055  0.0268826 0.0000
  9  -4082.5220661829  -0.000934189553 0.00583989  0.00007877  0.0100553 0.0000
 10  -4082.5224227331  -0.000356550133 0.00503076  0.00006012  0.0031916 0.0000
 11  -4082.5225757771  -0.000153044009 0.00335013  0.00004284  0.0021454 0.0000
 12  -4082.5226533132  -0.000077536146 0.00237016  0.00003312  0.0015614 0.0000
 13  -4082.5226935618  -0.000040248568 0.00156593  0.00002352  0.0010141 0.0000
 14  -4082.5227136215  -0.000020059685 0.00391805  0.00005770  0.0006430 0.0000
 15  -4082.5227376095  -0.000023988036 0.00015720  0.00000224  0.0011024 0.0000
 16  -4082.5227388127  -0.000001203167 0.00079333  0.00001136  0.0005112 0.0000
 17  -4082.5227413082  -0.000002495480 0.00063321  0.00000978  0.0001808 0.0000
 18  -4082.5227427702  -0.000001461999 0.00064439  0.00001023  0.0002213 0.0000
 19  -4082.5227439117  -0.000001141517 0.00082720  0.00001297  0.0001946 0.0000
               *** Restarting incremental Fock matrix formation ***
                                   *** Resetting DIIS ***
                 **** Energy Check signals convergence ****

               *****************************************************
               *                     SUCCESS                       *
               *           SCF CONVERGED AFTER  20 CYCLES          *
               *****************************************************


----------------
TOTAL SCF ENERGY
----------------

Total Energy       :        -4082.52274463 Eh         -111091.09164 eV

Components:
Nuclear Repulsion  :          237.57185119 Eh            6464.65873 eV
Electronic Energy  :        -4320.09459581 Eh         -117555.75037 eV
One Electron Energy:        -6154.56221650 Eh         -167474.15213 eV
Two Electron Energy:         1834.46762069 Eh           49918.40176 eV

Virial components:
Potential Energy   :        -8159.34702662 Eh         -222027.12024 eV
Kinetic Energy     :         4076.82428200 Eh          110936.02859 eV
Virial Ratio       :            2.00139777


DFT components:
N(Alpha)           :       32.000005388634 electrons
N(Beta)            :       31.000004909770 electrons
N(Total)           :       63.000010298405 electrons
E(X)               :     -136.349532767769 Eh       
E(C)               :       -3.012339111679 Eh       
E(XC)              :     -139.361871879449 Eh       
DFET-embed. en.    :        0.000000000000 Eh       

---------------
SCF CONVERGENCE
---------------

  Last Energy change         ...   -7.1438e-07  Tolerance :   1.0000e-06
  Last MAX-Density change    ...    1.0370e-04  Tolerance :   1.0000e-05
  Last RMS-Density change    ...    1.4657e-06  Tolerance :   1.0000e-06
  Last DIIS Error            ...    2.0793e-05  Tolerance :   1.0000e-06

             **** THE GBW FILE WAS UPDATED (46_NiBr.gbw) ****
             **** DENSITY FILE WAS UPDATED (46_NiBr.scfp) ****
             **** ENERGY FILE WAS UPDATED (46_NiBr.en.tmp) ****
----------------------
UHF SPIN CONTAMINATION
----------------------

Warning: in a DFT calculation there is little theoretical justification to 
         calculate <S**2> as in Hartree-Fock theory. We will do it anyways
         but you should keep in mind that the values have only limited relevance

Expectation value of <S**2>     :     0.770329
Ideal value S*(S+1) for S=0.5   :     0.750000
Deviation                       :     0.020329

             **** THE GBW FILE WAS UPDATED (46_NiBr.gbw) ****
             **** DENSITY FILE WAS UPDATED (46_NiBr.scfp) ****
----------------
ORBITAL ENERGIES
----------------
                 SPIN UP ORBITALS
  NO   OCC          E(Eh)            E(eV) 
   0   1.0000    -482.531727    -13130.3558 
   1   1.0000    -299.581418     -8152.0248 
   2   1.0000     -62.244924     -1693.7705 
   3   1.0000     -56.029694     -1524.6455 
   4   1.0000     -56.028620     -1524.6163 
   5   1.0000     -56.028009     -1524.5996 
   6   1.0000     -35.589849      -968.4490 
   7   1.0000     -30.997663      -843.4893 
   8   1.0000     -30.995894      -843.4412 
   9   1.0000     -30.966124      -842.6311 
  10   1.0000      -8.587267      -233.6714 
  11   1.0000      -6.403597      -174.2507 
  12   1.0000      -6.399705      -174.1448 
  13   1.0000      -6.397960      -174.0974 
  14   1.0000      -3.976798      -108.2142 
  15   1.0000      -2.592074       -70.5339 
  16   1.0000      -2.582190       -70.2650 
  17   1.0000      -2.528774       -68.8114 
  18   1.0000      -2.527938       -68.7887 
  19   1.0000      -2.526701       -68.7550 
  20   1.0000      -2.523554       -68.6694 
  21   1.0000      -2.523440       -68.6663 
  22   1.0000      -2.522518       -68.6412 
  23   1.0000      -0.710429       -19.3318 
  24   1.0000      -0.332548        -9.0491 
  25   1.0000      -0.327108        -8.9011 
  26   1.0000      -0.286057        -7.7840 
  27   1.0000      -0.253656        -6.9023 
  28   1.0000      -0.252267        -6.8645 
  29   1.0000      -0.243387        -6.6229 
  30   1.0000      -0.232128        -6.3165 
  31   1.0000      -0.226207        -6.1554 
  32   0.0000      -0.118394        -3.2217 
  33   0.0000      -0.014139        -0.3847 
  34   0.0000      -0.009180        -0.2498 
  35   0.0000       0.010534         0.2866 
  36   0.0000       0.011881         0.3233 
  37   0.0000       0.037490         1.0202 
  38   0.0000       0.040293         1.0964 
  39   0.0000       0.059761         1.6262 
  40   0.0000       0.077815         2.1175 
  41   0.0000       0.078099         2.1252 
  42   0.0000       0.080193         2.1822 
  43   0.0000       0.083159         2.2629 
  44   0.0000       0.084216         2.2916 
  45   0.0000       0.110316         3.0019 
  46   0.0000       0.112347         3.0571 
  47   0.0000       0.120468         3.2781 
  48   0.0000       0.134177         3.6511 
  49   0.0000       0.197323         5.3694 
  50   0.0000       0.197816         5.3828 
  51   0.0000       0.203970         5.5503 
  52   0.0000       0.212480         5.7819 
  53   0.0000       0.212491         5.7822 
  54   0.0000       0.228123         6.2076 
  55   0.0000       0.282425         7.6852 
  56   0.0000       0.288162         7.8413 
  57   0.0000       0.346242         9.4217 
  58   0.0000       0.358383         9.7521 
  59   0.0000       0.358812         9.7638 
  60   0.0000       0.399155        10.8616 
  61   0.0000       0.405271        11.0280 
  62   0.0000       0.458939        12.4884 
  63   0.0000       0.462844        12.5946 
  64   0.0000       0.497133        13.5277 
  65   0.0000       0.557283        15.1644 
  66   0.0000       0.583299        15.8724 
  67   0.0000       0.635164        17.2837 
  68   0.0000       0.635171        17.2839 
  69   0.0000       0.672996        18.3132 
  70   0.0000       0.673255        18.3202 
  71   0.0000       0.677244        18.4288 
  72   0.0000       0.790736        21.5170 
  73   0.0000       0.790737        21.5170 
  74   0.0000       0.804622        21.8949 
  75   0.0000       0.804655        21.8958 
  76   0.0000       0.872059        23.7299 
  77   0.0000       0.875245        23.8166 
  78   0.0000       0.887321        24.1452 
  79   0.0000       0.972775        26.4705 
  80   0.0000       0.983266        26.7560 
  81   0.0000       1.127336        30.6764 
  82   0.0000       1.261834        34.3363 
  83   0.0000       1.261840        34.3364 
  84   0.0000       1.289614        35.0922 
  85   0.0000       1.373311        37.3697 
  86   0.0000       1.373528        37.3756 
  87   0.0000       1.407274        38.2939 
  88   0.0000       1.407618        38.3032 
  89   0.0000       1.420069        38.6420 
  90   0.0000       1.444142        39.2971 
  91   0.0000       1.515204        41.2308 
  92   0.0000       1.616282        43.9813 
  93   0.0000       1.630720        44.3742 
  94   0.0000       1.773289        48.2536 
  95   0.0000       1.898169        51.6518 
  96   0.0000       1.903003        51.7833 
  97   0.0000       2.011597        54.7383 
  98   0.0000       2.011729        54.7419 
  99   0.0000       2.044372        55.6302 
 100   0.0000       2.044373        55.6302 
 101   0.0000       2.061517        56.0967 
 102   0.0000       2.071702        56.3739 
 103   0.0000       2.071919        56.3798 
 104   0.0000       2.111675        57.4616 
 105   0.0000       2.114943        57.5505 
 106   0.0000       2.190143        59.5968 
 107   0.0000       2.196479        59.7692 
 108   0.0000       2.255846        61.3847 
 109   0.0000       2.681250        72.9605 
 110   0.0000       3.575779        97.3019 
 111   0.0000       3.838675       104.4557 
 112   0.0000       3.840014       104.4921 
 113   0.0000       3.865412       105.1832 
 114   0.0000       3.867959       105.2525 
 115   0.0000       3.888588       105.8139 
 116   0.0000       3.927948       106.8849 
 117   0.0000       3.981312       108.3370 
 118   0.0000       4.019370       109.3726 
 119   0.0000       4.022786       109.4656 
 120   0.0000       4.120399       112.1218 
 121   0.0000       4.395063       119.5957 
 122   0.0000       5.013862       136.4341 
 123   0.0000       5.014276       136.4454 
 124   0.0000       5.016183       136.4973 
 125   0.0000       5.017554       136.5346 
 126   0.0000       5.035578       137.0250 
 127   0.0000       5.035676       137.0277 
 128   0.0000       5.056981       137.6074 
 129   0.0000       5.087037       138.4253 
 130   0.0000       5.160238       140.4172 
 131   0.0000       5.622970       153.0088 
 132   0.0000       5.622988       153.0093 
 133   0.0000       5.701270       155.1394 
 134   0.0000       5.753921       156.5722 
 135   0.0000       6.446156       175.4088 
 136   0.0000      12.374620       336.7305 
 137   0.0000      12.381985       336.9309 
 138   0.0000      12.394137       337.2616 
 139   0.0000      12.394180       337.2628 
 140   0.0000      12.430240       338.2440 
 141   0.0000      12.492444       339.9367 
 142   0.0000      12.516868       340.6013 
 143   0.0000      13.991485       380.7277 
 144   0.0000      13.993812       380.7910 
 145   0.0000      14.002065       381.0156 
 146   0.0000      14.002368       381.0238 
 147   0.0000      14.016974       381.4212 
 148   0.0000      14.036949       381.9648 
 149   0.0000      14.036991       381.9659 
 150   0.0000      14.061699       382.6383 
 151   0.0000      14.092755       383.4834 

                 SPIN DOWN ORBITALS
  NO   OCC          E(Eh)            E(eV) 
   0   1.0000    -482.531562    -13130.3513 
   1   1.0000    -299.581178     -8152.0183 
   2   1.0000     -62.244862     -1693.7688 
   3   1.0000     -56.029662     -1524.6446 
   4   1.0000     -56.028275     -1524.6069 
   5   1.0000     -56.027948     -1524.5980 
   6   1.0000     -35.569891      -967.9059 
   7   1.0000     -30.975309      -842.8810 
   8   1.0000     -30.974492      -842.8588 
   9   1.0000     -30.959524      -842.4515 
  10   1.0000      -8.587031      -233.6650 
  11   1.0000      -6.403553      -174.2495 
  12   1.0000      -6.399033      -174.1265 
  13   1.0000      -6.397831      -174.0938 
  14   1.0000      -3.927950      -106.8849 
  15   1.0000      -2.529964       -68.8438 
  16   1.0000      -2.527565       -68.7786 
  17   1.0000      -2.526619       -68.7528 
  18   1.0000      -2.523420       -68.6657 
  19   1.0000      -2.523083       -68.6566 
  20   1.0000      -2.522878       -68.6510 
  21   1.0000      -2.517921       -68.5161 
  22   1.0000      -2.503009       -68.1103 
  23   1.0000      -0.708034       -19.2666 
  24   1.0000      -0.327853        -8.9213 
  25   1.0000      -0.278500        -7.5784 
  26   1.0000      -0.269464        -7.3325 
  27   1.0000      -0.244204        -6.6451 
  28   1.0000      -0.219340        -5.9685 
  29   1.0000      -0.209960        -5.7133 
  30   1.0000      -0.202731        -5.5166 
  31   0.0000      -0.118411        -3.2221 
  32   0.0000      -0.111079        -3.0226 
  33   0.0000      -0.012762        -0.3473 
  34   0.0000      -0.011198        -0.3047 
  35   0.0000       0.009988         0.2718 
  36   0.0000       0.012017         0.3270 
  37   0.0000       0.038052         1.0355 
  38   0.0000       0.038659         1.0520 
  39   0.0000       0.059510         1.6193 
  40   0.0000       0.076913         2.0929 
  41   0.0000       0.077058         2.0968 
  42   0.0000       0.080853         2.2001 
  43   0.0000       0.083666         2.2767 
  44   0.0000       0.083763         2.2793 
  45   0.0000       0.110306         3.0016 
  46   0.0000       0.112861         3.0711 
  47   0.0000       0.121732         3.3125 
  48   0.0000       0.133930         3.6444 
  49   0.0000       0.197518         5.3747 
  50   0.0000       0.201020         5.4700 
  51   0.0000       0.201609         5.4861 
  52   0.0000       0.213546         5.8109 
  53   0.0000       0.213602         5.8124 
  54   0.0000       0.231890         6.3100 
  55   0.0000       0.287313         7.8182 
  56   0.0000       0.290329         7.9003 
  57   0.0000       0.346844         9.4381 
  58   0.0000       0.358379         9.7520 
  59   0.0000       0.359168         9.7734 
  60   0.0000       0.404751        11.0138 
  61   0.0000       0.407983        11.1018 
  62   0.0000       0.462602        12.5880 
  63   0.0000       0.463443        12.6109 
  64   0.0000       0.499870        13.6021 
  65   0.0000       0.560663        15.2564 
  66   0.0000       0.584534        15.9060 
  67   0.0000       0.637373        17.3438 
  68   0.0000       0.637401        17.3446 
  69   0.0000       0.675051        18.3691 
  70   0.0000       0.676692        18.4137 
  71   0.0000       0.680111        18.5068 
  72   0.0000       0.792701        21.5705 
  73   0.0000       0.792702        21.5705 
  74   0.0000       0.806346        21.9418 
  75   0.0000       0.806367        21.9424 
  76   0.0000       0.881700        23.9923 
  77   0.0000       0.887765        24.1573 
  78   0.0000       0.887791        24.1580 
  79   0.0000       0.981351        26.7039 
  80   0.0000       0.982944        26.7473 
  81   0.0000       1.134160        30.8621 
  82   0.0000       1.259799        34.2809 
  83   0.0000       1.259915        34.2840 
  84   0.0000       1.293238        35.1908 
  85   0.0000       1.386285        37.7227 
  86   0.0000       1.387572        37.7578 
  87   0.0000       1.415563        38.5194 
  88   0.0000       1.416787        38.5527 
  89   0.0000       1.449194        39.4346 
  90   0.0000       1.470393        40.0114 
  91   0.0000       1.523738        41.4630 
  92   0.0000       1.632827        44.4315 
  93   0.0000       1.637386        44.5555 
  94   0.0000       1.777731        48.3745 
  95   0.0000       1.903101        51.7860 
  96   0.0000       1.903855        51.8065 
  97   0.0000       2.013975        54.8031 
  98   0.0000       2.014114        54.8068 
  99   0.0000       2.047400        55.7126 
 100   0.0000       2.047403        55.7127 
 101   0.0000       2.063455        56.1495 
 102   0.0000       2.073682        56.4277 
 103   0.0000       2.073730        56.4291 
 104   0.0000       2.113940        57.5232 
 105   0.0000       2.115300        57.5602 
 106   0.0000       2.197459        59.7959 
 107   0.0000       2.197863        59.8069 
 108   0.0000       2.258311        61.4518 
 109   0.0000       2.693196        73.2856 
 110   0.0000       3.603998        98.0698 
 111   0.0000       3.852117       104.8214 
 112   0.0000       3.852175       104.8230 
 113   0.0000       3.909366       106.3793 
 114   0.0000       3.912629       106.4680 
 115   0.0000       3.921679       106.7143 
 116   0.0000       3.937821       107.1536 
 117   0.0000       4.028100       109.6102 
 118   0.0000       4.035575       109.8136 
 119   0.0000       4.037082       109.8546 
 120   0.0000       4.132925       112.4626 
 121   0.0000       4.419560       120.2623 
 122   0.0000       5.034292       136.9900 
 123   0.0000       5.035503       137.0230 
 124   0.0000       5.044042       137.2554 
 125   0.0000       5.044251       137.2611 
 126   0.0000       5.054490       137.5397 
 127   0.0000       5.057386       137.6185 
 128   0.0000       5.092599       138.5767 
 129   0.0000       5.097266       138.7037 
 130   0.0000       5.176767       140.8670 
 131   0.0000       5.644941       153.6067 
 132   0.0000       5.645965       153.6345 
 133   0.0000       5.775156       157.1500 
 134   0.0000       5.786130       157.4486 
 135   0.0000       6.472801       176.1339 
 136   0.0000      12.423505       338.0607 
 137   0.0000      12.423555       338.0621 
 138   0.0000      12.459268       339.0339 
 139   0.0000      12.461209       339.0867 
 140   0.0000      12.520896       340.7109 
 141   0.0000      12.525228       340.8288 
 142   0.0000      12.554962       341.6379 
 143   0.0000      14.051617       382.3639 
 144   0.0000      14.052153       382.3785 
 145   0.0000      14.054272       382.4362 
 146   0.0000      14.055352       382.4656 
 147   0.0000      14.067323       382.7913 
 148   0.0000      14.067453       382.7949 
 149   0.0000      14.074720       382.9926 
 150   0.0000      14.088529       383.3684 
 151   0.0000      14.126087       384.3904 

                    ********************************
                    * MULLIKEN POPULATION ANALYSIS *
                    ********************************

--------------------------------------------
MULLIKEN ATOMIC CHARGES AND SPIN POPULATIONS
--------------------------------------------
   0 Ni:    0.460257    0.944034
   1 Br:   -0.460257    0.055966
Sum of atomic charges         :   -0.0000000
Sum of atomic spin populations:    1.0000000

-----------------------------------------------------
MULLIKEN REDUCED ORBITAL CHARGES AND SPIN POPULATIONS
-----------------------------------------------------
CHARGE
  0 Nis       :     6.450972  s :     6.450972
      pz      :     4.056096  p :    12.150776
      px      :     4.048808
      py      :     4.045873
      dz2     :     1.884827  d :     8.930058
      dxz     :     1.839650
      dyz     :     1.221762
      dx2y2   :     1.992386
      dxy     :     1.991433
      f0      :     0.002611  f :     0.007684
      f+1     :     0.002476
      f-1     :     0.002449
      f+2     :     0.000057
      f-2     :     0.000060
      f+3     :     0.000015
      f-3     :     0.000016
      g0      :     0.000096  g :     0.000253
      g+1     :     0.000048
      g-1     :     0.000037
      g+2     :     0.000015
      g-2     :     0.000016
      g+3     :     0.000010
      g-3     :     0.000010
      g+4     :     0.000010
      g-4     :     0.000010
  1 Brs       :     8.054363  s :     8.054363
      pz      :     5.557285  p :    17.373445
      px      :     5.936037
      py      :     5.880123
      dz2     :     2.005637  d :    10.026435
      dxz     :     2.010406
      dyz     :     2.008206
      dx2y2   :     2.001093
      dxy     :     2.001093
      f0      :     0.000433  f :     0.006013
      f+1     :     0.002243
      f-1     :     0.001825
      f+2     :     0.000752
      f-2     :     0.000753
      f+3     :     0.000003
      f-3     :     0.000003

SPIN
  0 Nis       :    -0.020255  s :    -0.020255
      pz      :     0.001598  p :     0.001857
      px      :    -0.002074
      py      :     0.002334
      dz2     :     0.030230  d :     0.961968
      dxz     :     0.148505
      dyz     :     0.770688
      dx2y2   :     0.005797
      dxy     :     0.006748
      f0      :     0.000118  f :     0.000439
      f+1     :     0.000102
      f-1     :     0.000181
      f+2     :     0.000011
      f-2     :     0.000012
      f+3     :     0.000008
      f-3     :     0.000007
      g0      :    -0.000030  g :     0.000026
      g+1     :     0.000000
      g-1     :     0.000005
      g+2     :     0.000011
      g-2     :     0.000012
      g+3     :     0.000010
      g-3     :     0.000009
      g+4     :     0.000004
      g-4     :     0.000004
  1 Brs       :    -0.009489  s :    -0.009489
      pz      :    -0.014024  p :     0.065842
      px      :     0.014070
      py      :     0.065797
      dz2     :    -0.000497  d :    -0.000523
      dxz     :    -0.000310
      dyz     :     0.000496
      dx2y2   :    -0.000106
      dxy     :    -0.000106
      f0      :    -0.000038  f :     0.000136
      f+1     :    -0.000009
      f-1     :     0.000176
      f+2     :     0.000001
      f-2     :     0.000001
      f+3     :     0.000003
      f-3     :     0.000003


                     *******************************
                     * LOEWDIN POPULATION ANALYSIS *
                     *******************************

-------------------------------------------
LOEWDIN ATOMIC CHARGES AND SPIN POPULATIONS
-------------------------------------------
   0 Ni:   -0.059943    0.924647
   1 Br:    0.059943    0.075353

----------------------------------------------------
LOEWDIN REDUCED ORBITAL CHARGES AND SPIN POPULATIONS
----------------------------------------------------
CHARGE
  0 Nis       :     6.434223  s :     6.434223
      pz      :     4.227215  p :    12.412812
      px      :     4.098604
      py      :     4.086994
      dz2     :     2.004410  d :     9.160810
      dxz     :     1.892359
      dyz     :     1.291820
      dx2y2   :     1.986586
      dxy     :     1.985634
      f0      :     0.023111  f :     0.051448
      f+1     :     0.014534
      f-1     :     0.013538
      f+2     :     0.000116
      f-2     :     0.000119
      f+3     :     0.000015
      f-3     :     0.000016
      g0      :     0.000307  g :     0.000651
      g+1     :     0.000143
      g-1     :     0.000133
      g+2     :     0.000013
      g-2     :     0.000014
      g+3     :     0.000010
      g-3     :     0.000010
      g+4     :     0.000010
      g-4     :     0.000010
  1 Brs       :     7.621750  s :     7.621750
      pz      :     5.559274  p :    17.058869
      px      :     5.773466
      py      :     5.726130
      dz2     :     2.093482  d :    10.155498
      dxz     :     2.033018
      dyz     :     2.022209
      dx2y2   :     2.003394
      dxy     :     2.003395
      f0      :     0.048550  f :     0.103939
      f+1     :     0.027545
      f-1     :     0.019452
      f+2     :     0.004193
      f-2     :     0.004193
      f+3     :     0.000003
      f-3     :     0.000003

SPIN
  0 Nis       :    -0.030306  s :    -0.030306
      pz      :     0.000348  p :     0.008637
      px      :    -0.001423
      py      :     0.009712
      dz2     :     0.028327  d :     0.944820
      dxz     :     0.147283
      dyz     :     0.755875
      dx2y2   :     0.006192
      dxy     :     0.007143
      f0      :    -0.000019  f :     0.001473
      f+1     :     0.000280
      f-1     :     0.001173
      f+2     :     0.000012
      f-2     :     0.000012
      f+3     :     0.000008
      f-3     :     0.000007
      g0      :    -0.000032  g :     0.000023
      g+1     :     0.000001
      g-1     :     0.000008
      g+2     :     0.000009
      g-2     :     0.000009
      g+3     :     0.000010
      g-3     :     0.000009
      g+4     :     0.000004
      g-4     :     0.000004
  1 Brs       :    -0.002328  s :    -0.002328
      pz      :    -0.008084  p :     0.061225
      px      :     0.012199
      py      :     0.057110
      dz2     :    -0.000341  d :     0.007410
      dxz     :     0.000643
      dyz     :     0.007743
      dx2y2   :    -0.000317
      dxy     :    -0.000318
      f0      :     0.000047  f :     0.009046
      f+1     :     0.001301
      f-1     :     0.008055
      f+2     :    -0.000182
      f-2     :    -0.000181
      f+3     :     0.000003
      f-3     :     0.000003


                      *****************************
                      * MAYER POPULATION ANALYSIS *
                      *****************************

  NA   - Mulliken gross atomic population
  ZA   - Total nuclear charge
  QA   - Mulliken gross atomic charge
  VA   - Mayer's total valence
  BVA  - Mayer's bonded valence
  FA   - Mayer's free valence

  ATOM       NA         ZA         QA         VA         BVA        FA
  0 Ni    27.5397    28.0000     0.4603     2.0881     1.1892     0.8989
  1 Br    35.4603    35.0000    -0.4603     1.1972     1.1892     0.0080

  Mayer bond orders larger than 0.100000
B(  0-Ni,  1-Br) :   1.1892 

-------
TIMINGS
-------

Total SCF time: 0 days 0 hours 3 min 56 sec 

Total time                  ....     236.829 sec
Sum of individual times     ....     236.444 sec  ( 99.8%)

Fock matrix formation       ....     235.942 sec  ( 99.6%)
  XC integration            ....       0.968 sec  (  0.4% of F)
    Basis function eval.    ....       0.174 sec  ( 18.0% of XC)
    Density eval.           ....       0.184 sec  ( 19.0% of XC)
    XC-Functional eval.     ....       0.040 sec  (  4.2% of XC)
    XC-Potential eval.      ....       0.387 sec  ( 39.9% of XC)
Diagonalization             ....       0.118 sec  (  0.0%)
Density matrix formation    ....       0.016 sec  (  0.0%)
Population analysis         ....       0.007 sec  (  0.0%)
Initial guess               ....       0.116 sec  (  0.0%)
Orbital Transformation      ....       0.000 sec  (  0.0%)
Orbital Orthonormalization  ....       0.000 sec  (  0.0%)
DIIS solution               ....       0.046 sec  (  0.0%)
Grid generation             ....       0.201 sec  (  0.1%)


-------------------------------------------------------------------------------
                          DFT DISPERSION CORRECTION                            
                                                                               
                              DFTD3 V3.1  Rev 1                                
                          USING Becke-Johnson damping                          
-------------------------------------------------------------------------------
The TPSSH functional is recognized
Active option DFTDOPT                   ...         4   

molecular C6(AA) [au] = 792.281557 


            DFT-D V3
 parameters
 s6 scaling factor         :     1.0000 
 a1 scaling factor         :     0.4529 
 s8 scaling factor         :     2.2382 
 a2 scaling factor         :     4.6550 
 ad hoc parameters k1-k3   :    16.0000     1.3333    -4.0000 

 Edisp/kcal,au: -1.021733436156  -0.001628235699 
 E6   /kcal   :  -0.312750078 
 E8   /kcal   :  -0.708983359 
 % E8         :  69.390247352 

-------------------------   ----------------
Dispersion correction           -0.001628236
-------------------------   ----------------


-------------------------   --------------------
FINAL SINGLE POINT ENERGY     -4082.524372861769
-------------------------   --------------------


                            ***************************************
                            *     ORCA property calculations      *
                            ***************************************

                                    ---------------------
                                    Active property flags
                                    ---------------------
   (+) Dipole Moment


------------------------------------------------------------------------------
                       ORCA ELECTRIC PROPERTIES CALCULATION
------------------------------------------------------------------------------

Dipole Moment Calculation                       ... on
Quadrupole Moment Calculation                   ... off
Polarizability Calculation                      ... off
GBWName                                         ... 46_NiBr.gbw
Electron density file                           ... 46_NiBr.scfp
The origin for moment calculation is the CENTER OF MASS  = ( 0.000000,  0.000000  2.205208)

-------------
DIPOLE MOMENT
-------------
                                X             Y             Z
Electronic contribution:      0.00000      -0.00000       3.64025
Nuclear contribution   :      0.00000       0.00000      -5.43759
                        -----------------------------------------
Total Dipole Moment    :      0.00000      -0.00000      -1.79733
                        -----------------------------------------
Magnitude (a.u.)       :      1.79733
Magnitude (Debye)      :      4.56846



--------------------
Rotational spectrum 
--------------------
 
Rotational constants in cm-1:     0.000000     0.104547     0.104547 
Rotational constants in MHz :     0.000000  3134.234625  3134.234625 

 Dipole components along the rotational axes: 
x,y,z [a.u.] :    -1.797335    -0.000000     0.000000 
x,y,z [Debye]:    -4.568462    -0.000000     0.000000 

 

Timings for individual modules:

Sum of individual times         ...      242.293 sec (=   4.038 min)
GTO integral calculation        ...        5.030 sec (=   0.084 min)   2.1 %
SCF iterations                  ...      237.262 sec (=   3.954 min)  97.9 %
                             ****ORCA TERMINATED NORMALLY****
TOTAL RUN TIME: 0 days 0 hours 4 minutes 2 seconds 960 msec
