
                                 *****************
                                 * O   R   C   A *
                                 *****************

           --- An Ab Initio, DFT and Semiempirical electronic structure package ---

                  #######################################################
                  #                        -***-                        #
                  #          Department of theory and spectroscopy      #
                  #               Directorship: Frank Neese             #
                  #        Max Planck Institute fuer Kohlenforschung    #
                  #                Kaiser Wilhelm Platz 1               #
                  #                 D-45470 Muelheim/Ruhr               #
                  #                      Germany                        #
                  #                                                     #
                  #                  All rights reserved                #
                  #                        -***-                        #
                  #######################################################


                         Program Version 4.2.0 -  RELEASE  -


 With contributions from (in alphabetic order):
   Daniel Aravena         : Magnetic Suceptibility
   Michael Atanasov       : Ab Initio Ligand Field Theory (pilot matlab implementation)
   Alexander A. Auer      : GIAO ZORA, VPT2
   Ute Becker             : Parallelization
   Giovanni Bistoni       : ED, misc. LED, open-shell LED, HFLED
   Martin Brehm           : Molecular dynamics
   Dmytro Bykov           : SCF Hessian
   Vijay G. Chilkuri      : MRCI spin determinant printing, contributions to CSF-ICE
   Dipayan Datta          : RHF DLPNO-CCSD density
   Achintya Kumar Dutta   : EOM-CC, STEOM-CC
   Dmitry Ganyushin       : Spin-Orbit,Spin-Spin,Magnetic field MRCI
   Miquel Garcia          : C-PCM Hessian, Gaussian charge scheme
   Yang Guo               : DLPNO-NEVPT2, CIM, IAO-localization
   Andreas Hansen         : Spin unrestricted coupled pair/coupled cluster methods
   Benjamin Helmich-Paris : CASSCF linear response (MC-RPA)
   Lee Huntington         : MR-EOM, pCC
   Robert Izsak           : Overlap fitted RIJCOSX, COSX-SCS-MP3, EOM
   Christian Kollmar      : KDIIS, OOCD, Brueckner-CCSD(T), CCSD density
   Simone Kossmann        : Meta GGA functionals, TD-DFT gradient, OOMP2, MP2 Hessian
   Martin Krupicka        : AUTO-CI
   Lucas Lang             : DCDCAS
   Dagmar Lenk            : GEPOL surface, SMD
   Dimitrios Liakos       : Extrapolation schemes; Compound Job, initial MDCI parallelization
   Dimitrios Manganas     : Further ROCIS development; embedding schemes
   Dimitrios Pantazis     : SARC Basis sets
   Taras Petrenko         : DFT Hessian,TD-DFT gradient, ASA, ECA, R-Raman, ABS, FL, XAS/XES, NRVS
   Peter Pinski           : DLPNO-MP2, DLPNO-MP2 Gradient
   Christoph Reimann      : Effective Core Potentials
   Marius Retegan         : Local ZFS, SOC
   Christoph Riplinger    : Optimizer, TS searches, QM/MM, DLPNO-CCSD(T), (RO)-DLPNO pert. Triples
   Tobias Risthaus        : Range-separated hybrids, TD-DFT gradient, RPA, STAB
   Michael Roemelt        : Original ROCIS implementation
   Masaaki Saitow         : Open-shell DLPNO-CCSD energy and density
   Barbara Sandhoefer     : DKH picture change effects
   Avijit Sen             : IP-ROCIS
   Kantharuban Sivalingam : CASSCF convergence, NEVPT2, FIC-MRCI
   Bernardo de Souza      : ESD, SOC TD-DFT
   Georgi Stoychev        : AutoAux, RI-MP2 NMR
   Willem Van den Heuvel  : Paramagnetic NMR
   Boris Wezisla          : Elementary symmetry handling
   Frank Wennmohs         : Technical directorship


 We gratefully acknowledge several colleagues who have allowed us to
 interface, adapt or use parts of their codes:
   Stefan Grimme, W. Hujo, H. Kruse,             : VdW corrections, initial TS optimization,
                  C. Bannwarth                     DFT functionals, gCP, sTDA/sTD-DF
   Ed Valeev, F. Pavosevic, A. Kumar             : LibInt (2-el integral package), F12 methods
   Garnet Chan, S. Sharma, J. Yang, R. Olivares  : DMRG
   Ulf Ekstrom                                   : XCFun DFT Library
   Mihaly Kallay                                 : mrcc  (arbitrary order and MRCC methods)
   Andreas Klamt, Michael Diedenhofen            : otool_cosmo (COSMO solvation model)
   Jiri Pittner, Ondrej Demel                    : Mk-CCSD
   Frank Weinhold                                : gennbo (NPA and NBO analysis)
   Christopher J. Cramer and Donald G. Truhlar   : smd solvation model
   Lars Goerigk                                  : TD-DFT with DH, B97 family of functionals
   V. Asgeirsson, H. Jonsson                     : NEB implementation
   FAccTs GmbH                                   : IRC, NEB, NEB-TS, Multilevel, MM, QM/MM, CI optimization
   S Lehtola, MJT Oliveira, MAL Marques          : LibXC Library


 Your calculation uses the libint2 library for the computation of 2-el integrals
 For citations please refer to: http://libint.valeyev.net

 Your ORCA version has been built with support for libXC version: 4.2.3
 For citations please refer to: https://tddft.org/programs/libxc/

 This ORCA versions uses:
   CBLAS   interface :  Fast vector & matrix operations
   LAPACKE interface :  Fast linear algebra routines
   SCALAPACK package :  Parallel linear algebra routines


Your calculation utilizes the atom-pairwise dispersion correction
with the Becke-Johnson damping scheme (D3BJ)
Cite in your paper:
S.Grimme, S.Ehrlich, L.Goerigk, J Comput Chem, (2011), 32, 1456–1465 
S.Grimme, J.Antony, S.Ehrlich and H.Krieg, J.Chem.Phys., 132, (2010), 154104 
   

----- Orbital basis set information -----
Your calculation utilizes the basis: aug-cc-pVTZ 
    H, B-Ne : Obtained from the ccRepo (grant-hill.group.shef.ac.uk/ccrepo) Feb. 2017
              R. A. Kendall, T. H. Dunning, Jr., R. J. Harrison, J. Chem. Phys. 96, 6796 (1992)
         He : Obtained from the ccRepo (grant-hill.group.shef.ac.uk/ccrepo) Feb. 2017
              D. E. Woon, T. H. Dunning, Jr., J. Chem. Phys. 100, 2975 (1994)
  Li-Be, Na : Obtained from the ccRepo (grant-hill.group.shef.ac.uk/ccrepo) Feb. 2017
              B. P. Prascher, D. E. Woon, K. A. Peterson, T. H. Dunning, Jr., A. K. Wilson, Theor. Chem. Acc. 128, 69 (2011)
         Mg : Obtained from the Peterson Research Group Website (tyr0.chem.wsu.edu/~kipeters) Feb. 2017
              B. P. Prascher, D. E. Woon, K. A. Peterson, T. H. Dunning, Jr., A. K. Wilson, Theor. Chem. Acc. 128, 69 (2011)
      Al-Ar : Obtained from the ccRepo (grant-hill.group.shef.ac.uk/ccrepo) Feb. 2017
              D. E. Woon, T. H. Dunning, Jr., J. Chem. Phys. 98, 1358 (1993)
      Sc-Zn : Obtained from the ccRepo (grant-hill.group.shef.ac.uk/ccrepo) Feb. 2017
              N. B. Balabanov, K. A. Peterson, J. Chem. Phys. 123, 064107 (2005)
              N. B. Balabanov, K. A. Peterson, J. Chem. Phys. 125, 074110 (2006)
      Ga-Kr : Obtained from the ccRepo (grant-hill.group.shef.ac.uk/ccrepo) Feb. 2017
              A. K. Wilson, D. E. Woon, K. A. Peterson, T. H. Dunning, Jr., J. Chem. Phys. 110, 7667 (1999)
     Ag, Au : Obtained from the Peterson Research Group Website (tyr0.chem.wsu.edu/~kipeters) Feb. 2017
              K. A. Peterson, C. Puzzarini, Theor. Chem. Acc. 114, 283 (2005)

----- AuxJK basis set information -----
Your calculation utilizes the auxiliary basis: def2/JK
   H-Ba, Hf-Rn: F. Weigend, J. Comput. Chem. 29, 167 (2008).

================================================================================
                                        WARNINGS
                       Please study these warnings very carefully!
================================================================================


WARNING: your system is open-shell and RHF/RKS was chosen
  ===> : WILL SWITCH to UHF/UKS


INFO   : the flag for use of LIBINT has been found!

================================================================================
                                       INPUT FILE
================================================================================
NAME = 54_CuS.in
|  1> #
|  2> # 54_CuS tpssh/aug-cc-pvtz
|  3> #
|  4> ! tpssh d3bj aug-cc-pvtz def2/jk grid4 nofinalgrid
|  5> 
|  6> *xyz 0 2
|  7>   Cu  0.00000000000000      0.00000000000000     -0.02892798555449
|  8>   S   0.00000000000000      0.00000000000000      2.02892798555449
|  9> *
| 10> 
| 11> %pal
| 12> nprocs 24
| 13> end
| 14> 
| 15> 
| 16>                          ****END OF INPUT****
================================================================================

                       ****************************
                       * Single Point Calculation *
                       ****************************

---------------------------------
CARTESIAN COORDINATES (ANGSTROEM)
---------------------------------
  Cu     0.000000    0.000000   -0.028928
  S      0.000000    0.000000    2.028928

----------------------------
CARTESIAN COORDINATES (A.U.)
----------------------------
  NO LB      ZA    FRAG     MASS         X           Y           Z
   0 Cu   29.0000    0    63.550    0.000000    0.000000   -0.054666
   1 S    16.0000    0    32.060    0.000000    0.000000    3.834118

--------------------------------
INTERNAL COORDINATES (ANGSTROEM)
--------------------------------
 Cu     0   0   0     0.000000000000     0.00000000     0.00000000
 S      1   0   0     2.057855971109     0.00000000     0.00000000

---------------------------
INTERNAL COORDINATES (A.U.)
---------------------------
 Cu     0   0   0     0.000000000000     0.00000000     0.00000000
 S      1   0   0     3.888784208451     0.00000000     0.00000000

---------------------
BASIS SET INFORMATION
---------------------
There are 2 groups of distinct atoms

 Group   1 Type Cu  : 116s77p23d3f2g contracted to 8s7p5d3f2g pattern {19191919191911/151515151511/77711/111/11}
 Group   2 Type S   : 42s17p3d2f contracted to 6s5p3d2f pattern {131313111/77111/111/11}

Atom   0Cu   basis set group =>   1
Atom   1S    basis set group =>   2
----------------------------------
AUXILIARY/JK BASIS SET INFORMATION
----------------------------------
There are 2 groups of distinct atoms

 Group   1 Type Cu  : 19s14p12d10f7g3h1i contracted to 16s13p11d9f5g3h1i pattern {4111111111111111/2111111111111/21111111111/211111111/31111/111/1}
 Group   2 Type S   : 16s12p10d4f1g contracted to 13s11p9d4f1g pattern {4111111111111/21111111111/211111111/1111/1}

Atom   0Cu   basis set group =>   1
Atom   1S    basis set group =>   2


           ************************************************************
           *        Program running with 24 parallel MPI-processes    *
           *              working on a common directory               *
           ************************************************************
------------------------------------------------------------------------------
                           ORCA GTO INTEGRAL CALCULATION
------------------------------------------------------------------------------

                         BASIS SET STATISTICS AND STARTUP INFO

 # of primitive gaussian shells          ...  285
 # of primitive gaussian functions       ...  623
 # of contracted shells                  ...   41
 # of contracted basis functions         ...  143
 Highest angular momentum                ...    4
 Maximum contraction depth               ...   19
 Integral package used                   ... LIBINT
 Integral threshhold            Thresh   ...  1.000e-10
 Primitive cut-off              TCut     ...  1.000e-11


------------------------------ INTEGRAL EVALUATION ----------------------------


 * One electron integrals 
 Pre-screening matrix                    ... done
 Shell pair data                         ... done (   0.001 sec)



           ************************************************************
           *        Program running with 24 parallel MPI-processes    *
           *              working on a common directory               *
           ************************************************************
-------------------------------------------------------------------------------
                                 ORCA SCF
-------------------------------------------------------------------------------

------------
SCF SETTINGS
------------
Hamiltonian:
 Density Functional     Method          .... DFT(GTOs)
 Exchange Functional    Exchange        .... TPSS
 Correlation Functional Correlation     .... TPSS
 LDA part of GGA corr.  LDAOpt          .... PW91-LDA
 Gradients option       PostSCFGGA      .... off
 Hybrid DFT is turned on
   Fraction HF Exchange ScalHFX         ....  0.100000
   Scaling of DF-GGA-X  ScalDFX         ....  0.900000
   Scaling of DF-GGA-C  ScalDFC         ....  1.000000
   Scaling of DF-LDA-C  ScalLDAC        ....  1.000000
   Perturbative correction              ....  0.000000
   Density functional embedding theory  .... OFF
   NL short-range parameter             ....  5.200000


General Settings:
 Integral files         IntName         .... 54_CuS
 Hartree-Fock type      HFTyp           .... UHF
 Total Charge           Charge          ....    0
 Multiplicity           Mult            ....    2
 Number of Electrons    NEL             ....   45
 Basis Dimension        Dim             ....  143
 Nuclear Repulsion      ENuc            ....    119.3174974820 Eh

Convergence Acceleration:
 DIIS                   CNVDIIS         .... on
   Start iteration      DIISMaxIt       ....    12
   Startup error        DIISStart       ....  0.200000
   # of expansion vecs  DIISMaxEq       ....     5
   Bias factor          DIISBfac        ....   1.050
   Max. coefficient     DIISMaxC        ....  10.000
 Newton-Raphson         CNVNR           .... off
 SOSCF                  CNVSOSCF        .... off
 Level Shifting         CNVShift        .... on
   Level shift para.    LevelShift      ....    0.2500
   Turn off err/grad.   ShiftErr        ....    0.0010
 Zerner damping         CNVZerner       .... off
 Static damping         CNVDamp         .... on
   Fraction old density DampFac         ....    0.7000
   Max. Damping (<1)    DampMax         ....    0.9800
   Min. Damping (>=0)   DampMin         ....    0.0000
   Turn off err/grad.   DampErr         ....    0.1000
 Fernandez-Rico         CNVRico         .... off

SCF Procedure:
 Maximum # iterations   MaxIter         ....   125
 SCF integral mode      SCFMode         .... Direct
   Integral package                     .... LIBINT
 Reset frequency        DirectResetFreq ....    20
 Integral Threshold     Thresh          ....  1.000e-10 Eh
 Primitive CutOff       TCut            ....  1.000e-11 Eh

Convergence Tolerance:
 Convergence Check Mode ConvCheckMode   .... Total+1el-Energy
 Convergence forced     ConvForced      .... 0
 Energy Change          TolE            ....  1.000e-06 Eh
 1-El. energy change                    ....  1.000e-03 Eh
 DIIS Error             TolErr          ....  1.000e-06


Diagonalization of the overlap matrix:
Smallest eigenvalue                        ... 1.697e-04
Time for diagonalization                   ...    0.005 sec
Threshold for overlap eigenvalues          ... 1.000e-08
Number of eigenvalues below threshold      ... 0
Time for construction of square roots      ...    0.003 sec
Total time needed                          ...    0.008 sec

-------------------
DFT GRID GENERATION
-------------------

General Integration Accuracy     IntAcc      ...  4.670
Radial Grid Type                 RadialGrid  ... Gauss-Chebyshev
Angular Grid (max. acc.)         AngularGrid ... Lebedev-302
Angular grid pruning method      GridPruning ... 3 (G Style)
Weight generation scheme         WeightScheme... Becke
Basis function cutoff            BFCut       ...    1.0000e-10
Integration weight cutoff        WCut        ...    1.0000e-14
Grids for H and He will be reduced by one unit

# of grid points (after initial pruning)     ...  16402 (   0.0 sec)
# of grid points (after weights+screening)   ...  16374 (   0.0 sec)
nearest neighbour list constructed           ...    0.0 sec
Grid point re-assignment to atoms done       ...    0.0 sec
Grid point division into batches done        ...    0.1 sec
Reduced shell lists constructed in    0.1 sec

Total number of grid points                  ...    16374
Total number of batches                      ...      257
Average number of points per batch           ...       63
Average number of grid points per atom       ...     8187
Average number of shells per batch           ...    15.00 (36.59%)
Average number of basis functions per batch  ...    36.17 (25.29%)
Average number of large shells per batch     ...     7.58 (50.56%)
Average number of large basis fcns per batch ...    18.42 (50.92%)
Maximum spatial batch extension              ...  23.02, 23.02, 16.62 au
Average spatial batch extension              ...   0.79,  0.78,  0.61 au

Time for grid setup =    0.161 sec

------------------------------
INITIAL GUESS: MODEL POTENTIAL
------------------------------
Loading Hartree-Fock densities                     ... done
Calculating cut-offs                               ... done
Setting up the integral package                    ... done
Initializing the effective Hamiltonian             ... done
Starting the Coulomb interaction                   ... done (   0.0 sec)
Reading the grid                                   ... done
Mapping shells                                     ... done
Starting the XC term evaluation                    ... done (   0.0 sec)
  promolecular density results
     # of electrons  =     45.000028287
     EX              =    -90.335450598
     EC              =     -1.957395918
     EX+EC           =    -92.292846517
Transforming the Hamiltonian                       ... done (   0.0 sec)
Diagonalizing the Hamiltonian                      ... done (   0.0 sec)
Back transforming the eigenvectors                 ... done (   0.0 sec)
Now organizing SCF variables                       ... done
                      ------------------
                      INITIAL GUESS DONE (   0.3 sec)
                      ------------------
--------------
SCF ITERATIONS
--------------
ITER       Energy         Delta-E        Max-DP      RMS-DP      [F,P]     Damp
               ***  Starting incremental Fock matrix formation  ***
  0  -2038.7353633074   0.000000000000 0.02662760  0.00059997  0.1062075 0.7000
  1  -2038.7550941011  -0.019730793637 0.02121353  0.00044529  0.0514987 0.7000
                               ***Turning on DIIS***
  2  -2038.7637319107  -0.008637809639 0.04027367  0.00079140  0.0254236 0.0000
  3  -2038.7722048255  -0.008472914754 0.01496225  0.00030419  0.0551470 0.0000
  4  -2038.7780810339  -0.005876208384 0.00802656  0.00013790  0.0192649 0.0000
  5  -2038.7787683554  -0.000687321526 0.00369832  0.00006342  0.0162866 0.0000
  6  -2038.7791261293  -0.000357773900 0.00262698  0.00004318  0.0051481 0.0000
  7  -2038.7792157535  -0.000089624217 0.00247978  0.00002642  0.0026061 0.0000
  8  -2038.7792463415  -0.000030588036 0.00185542  0.00002013  0.0018361 0.0000
  9  -2038.7792627399  -0.000016398336 0.00134201  0.00001475  0.0011500 0.0000
 10  -2038.7792703721  -0.000007632267 0.00271743  0.00002524  0.0005493 0.0000
 11  -2038.7792750055  -0.000004633384 0.00012738  0.00000235  0.0010174 0.0000
 12  -2038.7792758971  -0.000000891537 0.00024791  0.00000357  0.0002760 0.0000
 13  -2038.7792760238  -0.000000126771 0.00005715  0.00000095  0.0002399 0.0000
                 **** Energy Check signals convergence ****

               *****************************************************
               *                     SUCCESS                       *
               *           SCF CONVERGED AFTER  14 CYCLES          *
               *****************************************************


----------------
TOTAL SCF ENERGY
----------------

Total Energy       :        -2038.77927610 Eh          -55478.00455 eV

Components:
Nuclear Repulsion  :          119.31749748 Eh            3246.79417 eV
Electronic Energy  :        -2158.09677358 Eh          -58724.79872 eV
One Electron Energy:        -3074.75930550 Eh          -83668.45432 eV
Two Electron Energy:          916.66253192 Eh           24943.65560 eV

Virial components:
Potential Energy   :        -4074.34013090 Eh         -110868.43140 eV
Kinetic Energy     :         2035.56085481 Eh           55390.42685 eV
Virial Ratio       :            2.00158110


DFT components:
N(Alpha)           :       23.000009390922 electrons
N(Beta)            :       22.000009677277 electrons
N(Total)           :       45.000019068199 electrons
E(X)               :      -81.833171062612 Eh       
E(C)               :       -1.974230311475 Eh       
E(XC)              :      -83.807401374087 Eh       
DFET-embed. en.    :        0.000000000000 Eh       

---------------
SCF CONVERGENCE
---------------

  Last Energy change         ...   -7.2581e-08  Tolerance :   1.0000e-06
  Last MAX-Density change    ...    2.8583e-05  Tolerance :   1.0000e-05
  Last RMS-Density change    ...    4.0574e-07  Tolerance :   1.0000e-06
  Last DIIS Error            ...    1.3597e-05  Tolerance :   1.0000e-06

             **** THE GBW FILE WAS UPDATED (54_CuS.gbw) ****
             **** DENSITY FILE WAS UPDATED (54_CuS.scfp) ****
             **** ENERGY FILE WAS UPDATED (54_CuS.en.tmp) ****
----------------------
UHF SPIN CONTAMINATION
----------------------

Warning: in a DFT calculation there is little theoretical justification to 
         calculate <S**2> as in Hartree-Fock theory. We will do it anyways
         but you should keep in mind that the values have only limited relevance

Expectation value of <S**2>     :     0.755993
Ideal value S*(S+1) for S=0.5   :     0.750000
Deviation                       :     0.005993

             **** THE GBW FILE WAS UPDATED (54_CuS.gbw) ****
             **** DENSITY FILE WAS UPDATED (54_CuS.scfp) ****
----------------
ORBITAL ENERGIES
----------------
                 SPIN UP ORBITALS
  NO   OCC          E(Eh)            E(eV) 
   0   1.0000    -322.787079     -8783.4830 
   1   1.0000     -88.733424     -2414.5592 
   2   1.0000     -38.667951     -1052.2084 
   3   1.0000     -33.845062      -920.9710 
   4   1.0000     -33.844437      -920.9539 
   5   1.0000     -33.838991      -920.8057 
   6   1.0000      -7.856182      -213.7776 
   7   1.0000      -5.813489      -158.1931 
   8   1.0000      -5.802910      -157.9052 
   9   1.0000      -5.797363      -157.7543 
  10   1.0000      -4.289341      -116.7189 
  11   1.0000      -2.787672       -75.8564 
  12   1.0000      -2.780913       -75.6725 
  13   1.0000      -2.770591       -75.3916 
  14   1.0000      -0.649961       -17.6863 
  15   1.0000      -0.325102        -8.8465 
  16   1.0000      -0.320336        -8.7168 
  17   1.0000      -0.302144        -8.2218 
  18   1.0000      -0.281537        -7.6610 
  19   1.0000      -0.281437        -7.6583 
  20   1.0000      -0.251944        -6.8558 
  21   1.0000      -0.248604        -6.7648 
  22   1.0000      -0.216715        -5.8971 
  23   0.0000      -0.113317        -3.0835 
  24   0.0000      -0.013006        -0.3539 
  25   0.0000      -0.008263        -0.2249 
  26   0.0000       0.011487         0.3126 
  27   0.0000       0.012087         0.3289 
  28   0.0000       0.038128         1.0375 
  29   0.0000       0.040715         1.1079 
  30   0.0000       0.067402         1.8341 
  31   0.0000       0.079650         2.1674 
  32   0.0000       0.085092         2.3155 
  33   0.0000       0.092505         2.5172 
  34   0.0000       0.118513         3.2249 
  35   0.0000       0.119244         3.2448 
  36   0.0000       0.126638         3.4460 
  37   0.0000       0.160798         4.3755 
  38   0.0000       0.166768         4.5380 
  39   0.0000       0.167280         4.5519 
  40   0.0000       0.202243         5.5033 
  41   0.0000       0.206982         5.6323 
  42   0.0000       0.215520         5.8646 
  43   0.0000       0.216379         5.8880 
  44   0.0000       0.222600         6.0572 
  45   0.0000       0.290245         7.8980 
  46   0.0000       0.302474         8.2307 
  47   0.0000       0.313796         8.5388 
  48   0.0000       0.353336         9.6148 
  49   0.0000       0.478686        13.0257 
  50   0.0000       0.499247        13.5852 
  51   0.0000       0.525791        14.3075 
  52   0.0000       0.527903        14.3650 
  53   0.0000       0.545742        14.8504 
  54   0.0000       0.548530        14.9262 
  55   0.0000       0.559254        15.2181 
  56   0.0000       0.605964        16.4891 
  57   0.0000       0.606345        16.4995 
  58   0.0000       0.642597        17.4860 
  59   0.0000       0.673494        18.3267 
  60   0.0000       0.709132        19.2965 
  61   0.0000       0.709699        19.3119 
  62   0.0000       0.710371        19.3302 
  63   0.0000       0.725203        19.7338 
  64   0.0000       0.749384        20.3918 
  65   0.0000       0.764547        20.8044 
  66   0.0000       0.767499        20.8847 
  67   0.0000       0.902874        24.5685 
  68   0.0000       0.912194        24.8221 
  69   0.0000       0.926166        25.2023 
  70   0.0000       1.009735        27.4763 
  71   0.0000       1.020958        27.7817 
  72   0.0000       1.146490        31.1976 
  73   0.0000       1.410438        38.3800 
  74   0.0000       1.429067        38.8869 
  75   0.0000       1.429070        38.8870 
  76   0.0000       1.541404        41.9437 
  77   0.0000       1.541550        41.9477 
  78   0.0000       1.688983        45.9596 
  79   0.0000       1.703803        46.3628 
  80   0.0000       1.778956        48.4079 
  81   0.0000       1.780117        48.4394 
  82   0.0000       1.888534        51.3896 
  83   0.0000       1.912749        52.0486 
  84   0.0000       1.920094        52.2484 
  85   0.0000       2.001084        54.4523 
  86   0.0000       2.049456        55.7685 
  87   0.0000       2.067922        56.2710 
  88   0.0000       2.094937        57.0061 
  89   0.0000       2.094940        57.0062 
  90   0.0000       2.095405        57.0189 
  91   0.0000       2.095426        57.0194 
  92   0.0000       2.138964        58.2042 
  93   0.0000       2.139622        58.2221 
  94   0.0000       2.149167        58.4818 
  95   0.0000       2.170679        59.0672 
  96   0.0000       2.173210        59.1360 
  97   0.0000       2.253808        61.3292 
  98   0.0000       2.391716        65.0819 
  99   0.0000       2.414858        65.7116 
 100   0.0000       3.047381        82.9235 
 101   0.0000       3.874287       105.4247 
 102   0.0000       4.238254       115.3287 
 103   0.0000       4.246594       115.5557 
 104   0.0000       4.335324       117.9702 
 105   0.0000       4.335328       117.9703 
 106   0.0000       4.390881       119.4819 
 107   0.0000       4.390973       119.4844 
 108   0.0000       4.558768       124.0504 
 109   0.0000       4.564810       124.2148 
 110   0.0000       4.572500       124.4241 
 111   0.0000       4.861594       132.2907 
 112   0.0000       4.985438       135.6607 
 113   0.0000       6.037952       164.3010 
 114   0.0000       6.037956       164.3011 
 115   0.0000       6.039878       164.3534 
 116   0.0000       6.039921       164.3546 
 117   0.0000       6.045413       164.5041 
 118   0.0000       6.045433       164.5046 
 119   0.0000       6.105783       166.1468 
 120   0.0000       6.112187       166.3211 
 121   0.0000       6.247507       170.0033 
 122   0.0000       7.885126       214.5652 
 123   0.0000       7.885131       214.5653 
 124   0.0000       7.932982       215.8674 
 125   0.0000       7.942671       216.1311 
 126   0.0000       8.417845       229.0612 
 127   0.0000      13.956477       379.7750 
 128   0.0000      13.956477       379.7751 
 129   0.0000      13.981422       380.4538 
 130   0.0000      13.981698       380.4613 
 131   0.0000      14.070965       382.8904 
 132   0.0000      14.081527       383.1778 
 133   0.0000      14.127360       384.4250 
 134   0.0000      16.512747       449.3347 
 135   0.0000      16.512819       449.3366 
 136   0.0000      16.512866       449.3379 
 137   0.0000      16.513520       449.3557 
 138   0.0000      16.519278       449.5124 
 139   0.0000      16.519327       449.5138 
 140   0.0000      16.540351       450.0858 
 141   0.0000      16.549275       450.3287 
 142   0.0000      16.594138       451.5494 

                 SPIN DOWN ORBITALS
  NO   OCC          E(Eh)            E(eV) 
   0   1.0000    -322.787036     -8783.4818 
   1   1.0000     -88.728855     -2414.4349 
   2   1.0000     -38.664990     -1052.1279 
   3   1.0000     -33.841702      -920.8795 
   4   1.0000     -33.841124      -920.8638 
   5   1.0000     -33.838089      -920.7812 
   6   1.0000      -7.851753      -213.6571 
   7   1.0000      -5.800207      -157.8317 
   8   1.0000      -5.799007      -157.7990 
   9   1.0000      -5.794783      -157.6841 
  10   1.0000      -4.282853      -116.5424 
  11   1.0000      -2.778608       -75.6098 
  12   1.0000      -2.772062       -75.4316 
  13   1.0000      -2.768432       -75.3329 
  14   1.0000      -0.611111       -16.6292 
  15   1.0000      -0.318003        -8.6533 
  16   1.0000      -0.298391        -8.1196 
  17   1.0000      -0.287923        -7.8348 
  18   1.0000      -0.278320        -7.5735 
  19   1.0000      -0.278287        -7.5726 
  20   1.0000      -0.243409        -6.6235 
  21   1.0000      -0.207191        -5.6380 
  22   0.0000      -0.156056        -4.2465 
  23   0.0000      -0.109530        -2.9805 
  24   0.0000      -0.008486        -0.2309 
  25   0.0000      -0.006416        -0.1746 
  26   0.0000       0.012316         0.3351 
  27   0.0000       0.014354         0.3906 
  28   0.0000       0.040407         1.0995 
  29   0.0000       0.041335         1.1248 
  30   0.0000       0.068828         1.8729 
  31   0.0000       0.086378         2.3505 
  32   0.0000       0.090274         2.4565 
  33   0.0000       0.094884         2.5819 
  34   0.0000       0.123104         3.3498 
  35   0.0000       0.123436         3.3589 
  36   0.0000       0.128195         3.4884 
  37   0.0000       0.167389         4.5549 
  38   0.0000       0.168981         4.5982 
  39   0.0000       0.171587         4.6691 
  40   0.0000       0.206509         5.6194 
  41   0.0000       0.206726         5.6253 
  42   0.0000       0.224972         6.1218 
  43   0.0000       0.231652         6.3036 
  44   0.0000       0.233136         6.3439 
  45   0.0000       0.295358         8.0371 
  46   0.0000       0.315220         8.5776 
  47   0.0000       0.318913         8.6781 
  48   0.0000       0.357247         9.7212 
  49   0.0000       0.504199        13.7199 
  50   0.0000       0.510351        13.8873 
  51   0.0000       0.538362        14.6496 
  52   0.0000       0.539350        14.6765 
  53   0.0000       0.554579        15.0909 
  54   0.0000       0.561343        15.2749 
  55   0.0000       0.562521        15.3070 
  56   0.0000       0.631113        17.1735 
  57   0.0000       0.633946        17.2506 
  58   0.0000       0.653891        17.7933 
  59   0.0000       0.680041        18.5049 
  60   0.0000       0.727229        19.7889 
  61   0.0000       0.728600        19.8262 
  62   0.0000       0.729394        19.8478 
  63   0.0000       0.730051        19.8657 
  64   0.0000       0.758152        20.6304 
  65   0.0000       0.775750        21.1092 
  66   0.0000       0.777036        21.1442 
  67   0.0000       0.911041        24.7907 
  68   0.0000       0.912381        24.8271 
  69   0.0000       0.932405        25.3720 
  70   0.0000       1.020422        27.7671 
  71   0.0000       1.021763        27.8036 
  72   0.0000       1.152451        31.3598 
  73   0.0000       1.426795        38.8251 
  74   0.0000       1.429192        38.8903 
  75   0.0000       1.429201        38.8905 
  76   0.0000       1.545465        42.0542 
  77   0.0000       1.545831        42.0642 
  78   0.0000       1.705414        46.4067 
  79   0.0000       1.708457        46.4895 
  80   0.0000       1.811466        49.2925 
  81   0.0000       1.814943        49.3871 
  82   0.0000       1.917870        52.1879 
  83   0.0000       1.923674        52.3458 
  84   0.0000       1.929017        52.4912 
  85   0.0000       2.014800        54.8255 
  86   0.0000       2.071848        56.3778 
  87   0.0000       2.075433        56.4754 
  88   0.0000       2.107893        57.3587 
  89   0.0000       2.108420        57.3730 
  90   0.0000       2.133968        58.0682 
  91   0.0000       2.135065        58.0981 
  92   0.0000       2.157683        58.7135 
  93   0.0000       2.158759        58.7428 
  94   0.0000       2.172787        59.1245 
  95   0.0000       2.181569        59.3635 
  96   0.0000       2.182669        59.3934 
  97   0.0000       2.265347        61.6432 
  98   0.0000       2.419357        65.8340 
  99   0.0000       2.425655        66.0054 
 100   0.0000       3.060232        83.2732 
 101   0.0000       3.878586       105.5417 
 102   0.0000       4.243192       115.4631 
 103   0.0000       4.247803       115.5886 
 104   0.0000       4.336768       118.0095 
 105   0.0000       4.336773       118.0096 
 106   0.0000       4.396344       119.6306 
 107   0.0000       4.396413       119.6325 
 108   0.0000       4.562594       124.1545 
 109   0.0000       4.572054       124.4119 
 110   0.0000       4.573916       124.4626 
 111   0.0000       4.875327       132.6644 
 112   0.0000       4.992550       135.8542 
 113   0.0000       6.040879       164.3807 
 114   0.0000       6.040882       164.3808 
 115   0.0000       6.042259       164.4182 
 116   0.0000       6.042330       164.4202 
 117   0.0000       6.046441       164.5320 
 118   0.0000       6.046460       164.5325 
 119   0.0000       6.109918       166.2593 
 120   0.0000       6.112807       166.3379 
 121   0.0000       6.250281       170.0788 
 122   0.0000       7.888286       214.6512 
 123   0.0000       7.888302       214.6516 
 124   0.0000       7.945323       216.2032 
 125   0.0000       7.945892       216.2187 
 126   0.0000       8.422524       229.1885 
 127   0.0000      13.960211       379.8767 
 128   0.0000      13.960213       379.8767 
 129   0.0000      13.991981       380.7412 
 130   0.0000      13.992092       380.7442 
 131   0.0000      14.083283       383.2256 
 132   0.0000      14.084624       383.2621 
 133   0.0000      14.132780       384.5725 
 134   0.0000      16.519362       449.5147 
 135   0.0000      16.519693       449.5237 
 136   0.0000      16.519730       449.5247 
 137   0.0000      16.519851       449.5280 
 138   0.0000      16.522970       449.6129 
 139   0.0000      16.523033       449.6146 
 140   0.0000      16.548514       450.3079 
 141   0.0000      16.552468       450.4155 
 142   0.0000      16.599125       451.6852 

                    ********************************
                    * MULLIKEN POPULATION ANALYSIS *
                    ********************************

--------------------------------------------
MULLIKEN ATOMIC CHARGES AND SPIN POPULATIONS
--------------------------------------------
   0 Cu:    0.419976    0.075303
   1 S :   -0.419976    0.924697
Sum of atomic charges         :   -0.0000000
Sum of atomic spin populations:    1.0000000

-----------------------------------------------------
MULLIKEN REDUCED ORBITAL CHARGES AND SPIN POPULATIONS
-----------------------------------------------------
CHARGE
  0 Cus       :     6.634980  s :     6.634980
      pz      :     4.055892  p :    12.166705
      px      :     4.069423
      py      :     4.041390
      dz2     :     1.897522  d :     9.772625
      dxz     :     1.962064
      dyz     :     1.916266
      dx2y2   :     1.998392
      dxy     :     1.998381
      f0      :     0.001844  f :     0.005641
      f+1     :     0.002148
      f-1     :     0.001573
      f+2     :     0.000036
      f-2     :     0.000038
      f+3     :     0.000001
      f-3     :     0.000001
      g0      :     0.000032  g :     0.000073
      g+1     :     0.000019
      g-1     :     0.000018
      g+2     :     0.000001
      g-2     :     0.000002
      g+3     :     0.000000
      g-3     :     0.000000
      g+4     :     0.000000
      g-4     :     0.000000
  1 S s       :     6.003594  s :     6.003594
      pz      :     3.397476  p :    10.376311
      px      :     3.703090
      py      :     3.275745
      dz2     :     0.007176  d :     0.034978
      dxz     :     0.012222
      dyz     :     0.012354
      dx2y2   :     0.001327
      dxy     :     0.001899
      f0      :     0.000245  f :     0.005093
      f+1     :     0.001502
      f-1     :     0.001754
      f+2     :     0.000556
      f-2     :     0.000608
      f+3     :     0.000199
      f-3     :     0.000231

SPIN
  0 Cus       :    -0.030757  s :    -0.030757
      pz      :    -0.001277  p :     0.013315
      px      :     0.000166
      py      :     0.014426
      dz2     :     0.002709  d :     0.091816
      dxz     :     0.022074
      dyz     :     0.067319
      dx2y2   :    -0.000159
      dxy     :    -0.000125
      f0      :     0.000021  f :     0.000926
      f+1     :     0.000199
      f-1     :     0.000699
      f+2     :     0.000004
      f-2     :     0.000004
      f+3     :     0.000000
      f-3     :     0.000000
      g0      :    -0.000001  g :     0.000002
      g+1     :     0.000000
      g-1     :     0.000001
      g+2     :     0.000001
      g-2     :     0.000001
      g+3     :     0.000000
      g-3     :     0.000000
      g+4     :     0.000000
      g-4     :     0.000000
  1 S s       :     0.003321  s :     0.003321
      pz      :     0.025242  p :     0.920207
      px      :     0.226774
      py      :     0.668191
      dz2     :     0.000103  d :     0.001306
      dxz     :     0.000099
      dyz     :     0.000259
      dx2y2   :     0.000273
      dxy     :     0.000573
      f0      :    -0.000143  f :    -0.000137
      f+1     :    -0.000206
      f-1     :    -0.000398
      f+2     :     0.000078
      f-2     :     0.000134
      f+3     :     0.000193
      f-3     :     0.000205


                     *******************************
                     * LOEWDIN POPULATION ANALYSIS *
                     *******************************

-------------------------------------------
LOEWDIN ATOMIC CHARGES AND SPIN POPULATIONS
-------------------------------------------
   0 Cu:   -0.029825    0.180672
   1 S :    0.029825    0.819328

----------------------------------------------------
LOEWDIN REDUCED ORBITAL CHARGES AND SPIN POPULATIONS
----------------------------------------------------
CHARGE
  0 Cus       :     6.539823  s :     6.539823
      pz      :     4.239166  p :    12.436864
      px      :     4.126123
      py      :     4.071575
      dz2     :     2.044141  d :    10.014217
      dxz     :     2.027812
      dyz     :     1.958713
      dx2y2   :     1.991781
      dxy     :     1.991770
      f0      :     0.017910  f :     0.038633
      f+1     :     0.011770
      f-1     :     0.008766
      f+2     :     0.000090
      f-2     :     0.000094
      f+3     :     0.000001
      f-3     :     0.000001
      g0      :     0.000155  g :     0.000287
      g+1     :     0.000073
      g-1     :     0.000057
      g+2     :     0.000001
      g-2     :     0.000001
      g+3     :     0.000000
      g-3     :     0.000000
      g+4     :     0.000000
      g-4     :     0.000000
  1 S s       :     5.547801  s :     5.547801
      pz      :     3.440096  p :    10.114050
      px      :     3.524664
      py      :     3.149290
      dz2     :     0.103230  d :     0.171600
      dxz     :     0.030402
      dyz     :     0.030958
      dx2y2   :     0.003220
      dxy     :     0.003791
      f0      :     0.066439  f :     0.136724
      f+1     :     0.029624
      f-1     :     0.029741
      f+2     :     0.005219
      f-2     :     0.005272
      f+3     :     0.000199
      f-3     :     0.000231

SPIN
  0 Cus       :    -0.022047  s :    -0.022047
      pz      :    -0.000092  p :     0.056604
      px      :     0.010287
      py      :     0.046408
      dz2     :     0.003605  d :     0.139388
      dxz     :     0.034020
      dyz     :     0.101868
      dx2y2   :    -0.000070
      dxy     :    -0.000035
      f0      :     0.000232  f :     0.006691
      f+1     :     0.001637
      f-1     :     0.004804
      f+2     :     0.000008
      f-2     :     0.000009
      f+3     :     0.000000
      f-3     :     0.000000
      g0      :    -0.000000  g :     0.000036
      g+1     :     0.000009
      g-1     :     0.000026
      g+2     :     0.000000
      g-2     :     0.000000
      g+3     :     0.000000
      g-3     :     0.000000
      g+4     :     0.000000
      g-4     :     0.000000
  1 S s       :     0.004782  s :     0.004782
      pz      :     0.012700  p :     0.812624
      px      :     0.203017
      py      :     0.596906
      dz2     :     0.000096  d :     0.001006
      dxz     :     0.000011
      dyz     :     0.000131
      dx2y2   :     0.000234
      dxy     :     0.000533
      f0      :    -0.000059  f :     0.000916
      f+1     :     0.000124
      f-1     :     0.000352
      f+2     :     0.000024
      f-2     :     0.000078
      f+3     :     0.000193
      f-3     :     0.000205


                      *****************************
                      * MAYER POPULATION ANALYSIS *
                      *****************************

  NA   - Mulliken gross atomic population
  ZA   - Total nuclear charge
  QA   - Mulliken gross atomic charge
  VA   - Mayer's total valence
  BVA  - Mayer's bonded valence
  FA   - Mayer's free valence

  ATOM       NA         ZA         QA         VA         BVA        FA
  0 Cu    28.5800    29.0000     0.4200     1.3430     1.3168     0.0262
  1 S     16.4200    16.0000    -0.4200     2.1133     1.3168     0.7966

  Mayer bond orders larger than 0.100000
B(  0-Cu,  1-S ) :   1.3168 

-------
TIMINGS
-------

Total SCF time: 0 days 0 hours 2 min 0 sec 

Total time                  ....     120.232 sec
Sum of individual times     ....     119.872 sec  ( 99.7%)

Fock matrix formation       ....     119.482 sec  ( 99.4%)
  XC integration            ....       0.510 sec  (  0.4% of F)
    Basis function eval.    ....       0.073 sec  ( 14.3% of XC)
    Density eval.           ....       0.081 sec  ( 15.9% of XC)
    XC-Functional eval.     ....       0.021 sec  (  4.1% of XC)
    XC-Potential eval.      ....       0.212 sec  ( 41.6% of XC)
Diagonalization             ....       0.078 sec  (  0.1%)
Density matrix formation    ....       0.010 sec  (  0.0%)
Population analysis         ....       0.010 sec  (  0.0%)
Initial guess               ....       0.102 sec  (  0.1%)
Orbital Transformation      ....       0.000 sec  (  0.0%)
Orbital Orthonormalization  ....       0.000 sec  (  0.0%)
DIIS solution               ....       0.028 sec  (  0.0%)
Grid generation             ....       0.161 sec  (  0.1%)


-------------------------------------------------------------------------------
                          DFT DISPERSION CORRECTION                            
                                                                               
                              DFTD3 V3.1  Rev 1                                
                          USING Becke-Johnson damping                          
-------------------------------------------------------------------------------
The TPSSH functional is recognized
Active option DFTDOPT                   ...         4   

molecular C6(AA) [au] = 606.090819 


            DFT-D V3
 parameters
 s6 scaling factor         :     1.0000 
 a1 scaling factor         :     0.4529 
 s8 scaling factor         :     2.2382 
 a2 scaling factor         :     4.6550 
 ad hoc parameters k1-k3   :    16.0000     1.3333    -4.0000 

 Edisp/kcal,au: -0.900843504521  -0.001435585351 
 E6   /kcal   :  -0.290971276 
 E8   /kcal   :  -0.609872228 
 % E8         :  67.700130525 

-------------------------   ----------------
Dispersion correction           -0.001435585
-------------------------   ----------------


-------------------------   --------------------
FINAL SINGLE POINT ENERGY     -2038.780711681766
-------------------------   --------------------


                            ***************************************
                            *     ORCA property calculations      *
                            ***************************************

                                    ---------------------
                                    Active property flags
                                    ---------------------
   (+) Dipole Moment


------------------------------------------------------------------------------
                       ORCA ELECTRIC PROPERTIES CALCULATION
------------------------------------------------------------------------------

Dipole Moment Calculation                       ... on
Quadrupole Moment Calculation                   ... off
Polarizability Calculation                      ... off
GBWName                                         ... 54_CuS.gbw
Electron density file                           ... 54_CuS.scfp
The origin for moment calculation is the CENTER OF MASS  = ( 0.000000,  0.000000  1.249323)

-------------
DIPOLE MOMENT
-------------
                                X             Y             Z
Electronic contribution:      0.00000      -0.00000      -5.21797
Nuclear contribution   :      0.00000       0.00000       3.54103
                        -----------------------------------------
Total Dipole Moment    :      0.00000      -0.00000      -1.67694
                        -----------------------------------------
Magnitude (a.u.)       :      1.67694
Magnitude (Debye)      :      4.26244



--------------------
Rotational spectrum 
--------------------
 
Rotational constants in cm-1:     0.000000     0.186806     0.186806 
Rotational constants in MHz :     0.000000  5600.307820  5600.307820 

 Dipole components along the rotational axes: 
x,y,z [a.u.] :    -1.676939    -0.000000     0.000000 
x,y,z [Debye]:    -4.262441    -0.000000     0.000000 

 

Timings for individual modules:

Sum of individual times         ...      124.330 sec (=   2.072 min)
GTO integral calculation        ...        3.624 sec (=   0.060 min)   2.9 %
SCF iterations                  ...      120.706 sec (=   2.012 min)  97.1 %
                             ****ORCA TERMINATED NORMALLY****
TOTAL RUN TIME: 0 days 0 hours 2 minutes 4 seconds 985 msec
