
                                 *****************
                                 * O   R   C   A *
                                 *****************

           --- An Ab Initio, DFT and Semiempirical electronic structure package ---

                  #######################################################
                  #                        -***-                        #
                  #          Department of theory and spectroscopy      #
                  #               Directorship: Frank Neese             #
                  #        Max Planck Institute fuer Kohlenforschung    #
                  #                Kaiser Wilhelm Platz 1               #
                  #                 D-45470 Muelheim/Ruhr               #
                  #                      Germany                        #
                  #                                                     #
                  #                  All rights reserved                #
                  #                        -***-                        #
                  #######################################################


                         Program Version 4.2.0 -  RELEASE  -


 With contributions from (in alphabetic order):
   Daniel Aravena         : Magnetic Suceptibility
   Michael Atanasov       : Ab Initio Ligand Field Theory (pilot matlab implementation)
   Alexander A. Auer      : GIAO ZORA, VPT2
   Ute Becker             : Parallelization
   Giovanni Bistoni       : ED, misc. LED, open-shell LED, HFLED
   Martin Brehm           : Molecular dynamics
   Dmytro Bykov           : SCF Hessian
   Vijay G. Chilkuri      : MRCI spin determinant printing, contributions to CSF-ICE
   Dipayan Datta          : RHF DLPNO-CCSD density
   Achintya Kumar Dutta   : EOM-CC, STEOM-CC
   Dmitry Ganyushin       : Spin-Orbit,Spin-Spin,Magnetic field MRCI
   Miquel Garcia          : C-PCM Hessian, Gaussian charge scheme
   Yang Guo               : DLPNO-NEVPT2, CIM, IAO-localization
   Andreas Hansen         : Spin unrestricted coupled pair/coupled cluster methods
   Benjamin Helmich-Paris : CASSCF linear response (MC-RPA)
   Lee Huntington         : MR-EOM, pCC
   Robert Izsak           : Overlap fitted RIJCOSX, COSX-SCS-MP3, EOM
   Christian Kollmar      : KDIIS, OOCD, Brueckner-CCSD(T), CCSD density
   Simone Kossmann        : Meta GGA functionals, TD-DFT gradient, OOMP2, MP2 Hessian
   Martin Krupicka        : AUTO-CI
   Lucas Lang             : DCDCAS
   Dagmar Lenk            : GEPOL surface, SMD
   Dimitrios Liakos       : Extrapolation schemes; Compound Job, initial MDCI parallelization
   Dimitrios Manganas     : Further ROCIS development; embedding schemes
   Dimitrios Pantazis     : SARC Basis sets
   Taras Petrenko         : DFT Hessian,TD-DFT gradient, ASA, ECA, R-Raman, ABS, FL, XAS/XES, NRVS
   Peter Pinski           : DLPNO-MP2, DLPNO-MP2 Gradient
   Christoph Reimann      : Effective Core Potentials
   Marius Retegan         : Local ZFS, SOC
   Christoph Riplinger    : Optimizer, TS searches, QM/MM, DLPNO-CCSD(T), (RO)-DLPNO pert. Triples
   Tobias Risthaus        : Range-separated hybrids, TD-DFT gradient, RPA, STAB
   Michael Roemelt        : Original ROCIS implementation
   Masaaki Saitow         : Open-shell DLPNO-CCSD energy and density
   Barbara Sandhoefer     : DKH picture change effects
   Avijit Sen             : IP-ROCIS
   Kantharuban Sivalingam : CASSCF convergence, NEVPT2, FIC-MRCI
   Bernardo de Souza      : ESD, SOC TD-DFT
   Georgi Stoychev        : AutoAux, RI-MP2 NMR
   Willem Van den Heuvel  : Paramagnetic NMR
   Boris Wezisla          : Elementary symmetry handling
   Frank Wennmohs         : Technical directorship


 We gratefully acknowledge several colleagues who have allowed us to
 interface, adapt or use parts of their codes:
   Stefan Grimme, W. Hujo, H. Kruse,             : VdW corrections, initial TS optimization,
                  C. Bannwarth                     DFT functionals, gCP, sTDA/sTD-DF
   Ed Valeev, F. Pavosevic, A. Kumar             : LibInt (2-el integral package), F12 methods
   Garnet Chan, S. Sharma, J. Yang, R. Olivares  : DMRG
   Ulf Ekstrom                                   : XCFun DFT Library
   Mihaly Kallay                                 : mrcc  (arbitrary order and MRCC methods)
   Andreas Klamt, Michael Diedenhofen            : otool_cosmo (COSMO solvation model)
   Jiri Pittner, Ondrej Demel                    : Mk-CCSD
   Frank Weinhold                                : gennbo (NPA and NBO analysis)
   Christopher J. Cramer and Donald G. Truhlar   : smd solvation model
   Lars Goerigk                                  : TD-DFT with DH, B97 family of functionals
   V. Asgeirsson, H. Jonsson                     : NEB implementation
   FAccTs GmbH                                   : IRC, NEB, NEB-TS, Multilevel, MM, QM/MM, CI optimization
   S Lehtola, MJT Oliveira, MAL Marques          : LibXC Library


 Your calculation uses the libint2 library for the computation of 2-el integrals
 For citations please refer to: http://libint.valeyev.net

 Your ORCA version has been built with support for libXC version: 4.2.3
 For citations please refer to: https://tddft.org/programs/libxc/

 This ORCA versions uses:
   CBLAS   interface :  Fast vector & matrix operations
   LAPACKE interface :  Fast linear algebra routines
   SCALAPACK package :  Parallel linear algebra routines


Your calculation utilizes the atom-pairwise dispersion correction
with the Becke-Johnson damping scheme (D3BJ)
Cite in your paper:
S.Grimme, S.Ehrlich, L.Goerigk, J Comput Chem, (2011), 32, 1456–1465 
S.Grimme, J.Antony, S.Ehrlich and H.Krieg, J.Chem.Phys., 132, (2010), 154104 
   

----- Orbital basis set information -----
Your calculation utilizes the basis: aug-cc-pVTZ 
    H, B-Ne : Obtained from the ccRepo (grant-hill.group.shef.ac.uk/ccrepo) Feb. 2017
              R. A. Kendall, T. H. Dunning, Jr., R. J. Harrison, J. Chem. Phys. 96, 6796 (1992)
         He : Obtained from the ccRepo (grant-hill.group.shef.ac.uk/ccrepo) Feb. 2017
              D. E. Woon, T. H. Dunning, Jr., J. Chem. Phys. 100, 2975 (1994)
  Li-Be, Na : Obtained from the ccRepo (grant-hill.group.shef.ac.uk/ccrepo) Feb. 2017
              B. P. Prascher, D. E. Woon, K. A. Peterson, T. H. Dunning, Jr., A. K. Wilson, Theor. Chem. Acc. 128, 69 (2011)
         Mg : Obtained from the Peterson Research Group Website (tyr0.chem.wsu.edu/~kipeters) Feb. 2017
              B. P. Prascher, D. E. Woon, K. A. Peterson, T. H. Dunning, Jr., A. K. Wilson, Theor. Chem. Acc. 128, 69 (2011)
      Al-Ar : Obtained from the ccRepo (grant-hill.group.shef.ac.uk/ccrepo) Feb. 2017
              D. E. Woon, T. H. Dunning, Jr., J. Chem. Phys. 98, 1358 (1993)
      Sc-Zn : Obtained from the ccRepo (grant-hill.group.shef.ac.uk/ccrepo) Feb. 2017
              N. B. Balabanov, K. A. Peterson, J. Chem. Phys. 123, 064107 (2005)
              N. B. Balabanov, K. A. Peterson, J. Chem. Phys. 125, 074110 (2006)
      Ga-Kr : Obtained from the ccRepo (grant-hill.group.shef.ac.uk/ccrepo) Feb. 2017
              A. K. Wilson, D. E. Woon, K. A. Peterson, T. H. Dunning, Jr., J. Chem. Phys. 110, 7667 (1999)
     Ag, Au : Obtained from the Peterson Research Group Website (tyr0.chem.wsu.edu/~kipeters) Feb. 2017
              K. A. Peterson, C. Puzzarini, Theor. Chem. Acc. 114, 283 (2005)

----- AuxJK basis set information -----
Your calculation utilizes the auxiliary basis: def2/JK
   H-Ba, Hf-Rn: F. Weigend, J. Comput. Chem. 29, 167 (2008).

================================================================================
                                        WARNINGS
                       Please study these warnings very carefully!
================================================================================


WARNING: your system is open-shell and RHF/RKS was chosen
  ===> : WILL SWITCH to UHF/UKS


INFO   : the flag for use of LIBINT has been found!

================================================================================
                                       INPUT FILE
================================================================================
NAME = 57_ZnCl.in
|  1> #
|  2> # 57_ZnCl tpssh/aug-cc-pvtz
|  3> #
|  4> ! tpssh d3bj aug-cc-pvtz def2/jk grid4 nofinalgrid
|  5> 
|  6> *xyz 0 2
|  7>   Zn  0.00000000000000      0.00000000000000     -0.08307444970280
|  8>   Cl  0.00000000000000      0.00000000000000      2.08307444970280
|  9> *
| 10> 
| 11> %pal
| 12> nprocs 24
| 13> end
| 14> 
| 15> 
| 16>                          ****END OF INPUT****
================================================================================

                       ****************************
                       * Single Point Calculation *
                       ****************************

---------------------------------
CARTESIAN COORDINATES (ANGSTROEM)
---------------------------------
  Zn     0.000000    0.000000   -0.083074
  Cl     0.000000    0.000000    2.083074

----------------------------
CARTESIAN COORDINATES (A.U.)
----------------------------
  NO LB      ZA    FRAG     MASS         X           Y           Z
   0 Zn   30.0000    0    65.380    0.000000    0.000000   -0.156988
   1 Cl   17.0000    0    35.453    0.000000    0.000000    3.936440

--------------------------------
INTERNAL COORDINATES (ANGSTROEM)
--------------------------------
 Zn     0   0   0     0.000000000000     0.00000000     0.00000000
 Cl     1   0   0     2.166148899406     0.00000000     0.00000000

---------------------------
INTERNAL COORDINATES (A.U.)
---------------------------
 Zn     0   0   0     0.000000000000     0.00000000     0.00000000
 Cl     1   0   0     4.093428185172     0.00000000     0.00000000

---------------------
BASIS SET INFORMATION
---------------------
There are 2 groups of distinct atoms

 Group   1 Type Zn  : 116s77p23d3f2g contracted to 8s7p5d3f2g pattern {19191919191911/151515151511/77711/111/11}
 Group   2 Type Cl  : 42s17p3d2f contracted to 6s5p3d2f pattern {131313111/77111/111/11}

Atom   0Zn   basis set group =>   1
Atom   1Cl   basis set group =>   2
----------------------------------
AUXILIARY/JK BASIS SET INFORMATION
----------------------------------
There are 2 groups of distinct atoms

 Group   1 Type Zn  : 19s14p12d10f7g3h1i contracted to 16s13p11d9f5g3h1i pattern {4111111111111111/2111111111111/21111111111/211111111/31111/111/1}
 Group   2 Type Cl  : 16s12p10d4f1g contracted to 13s11p9d4f1g pattern {4111111111111/21111111111/211111111/1111/1}

Atom   0Zn   basis set group =>   1
Atom   1Cl   basis set group =>   2


           ************************************************************
           *        Program running with 24 parallel MPI-processes    *
           *              working on a common directory               *
           ************************************************************
------------------------------------------------------------------------------
                           ORCA GTO INTEGRAL CALCULATION
------------------------------------------------------------------------------

                         BASIS SET STATISTICS AND STARTUP INFO

 # of primitive gaussian shells          ...  285
 # of primitive gaussian functions       ...  623
 # of contracted shells                  ...   41
 # of contracted basis functions         ...  143
 Highest angular momentum                ...    4
 Maximum contraction depth               ...   19
 Integral package used                   ... LIBINT
 Integral threshhold            Thresh   ...  1.000e-10
 Primitive cut-off              TCut     ...  1.000e-11


------------------------------ INTEGRAL EVALUATION ----------------------------


 * One electron integrals 
 Pre-screening matrix                    ... done
 Shell pair data                         ... done (   0.001 sec)



           ************************************************************
           *        Program running with 24 parallel MPI-processes    *
           *              working on a common directory               *
           ************************************************************
-------------------------------------------------------------------------------
                                 ORCA SCF
-------------------------------------------------------------------------------

------------
SCF SETTINGS
------------
Hamiltonian:
 Density Functional     Method          .... DFT(GTOs)
 Exchange Functional    Exchange        .... TPSS
 Correlation Functional Correlation     .... TPSS
 LDA part of GGA corr.  LDAOpt          .... PW91-LDA
 Gradients option       PostSCFGGA      .... off
 Hybrid DFT is turned on
   Fraction HF Exchange ScalHFX         ....  0.100000
   Scaling of DF-GGA-X  ScalDFX         ....  0.900000
   Scaling of DF-GGA-C  ScalDFC         ....  1.000000
   Scaling of DF-LDA-C  ScalLDAC        ....  1.000000
   Perturbative correction              ....  0.000000
   Density functional embedding theory  .... OFF
   NL short-range parameter             ....  5.200000


General Settings:
 Integral files         IntName         .... 57_ZnCl
 Hartree-Fock type      HFTyp           .... UHF
 Total Charge           Charge          ....    0
 Multiplicity           Mult            ....    2
 Number of Electrons    NEL             ....   47
 Basis Dimension        Dim             ....  143
 Nuclear Repulsion      ENuc            ....    124.5899468439 Eh

Convergence Acceleration:
 DIIS                   CNVDIIS         .... on
   Start iteration      DIISMaxIt       ....    12
   Startup error        DIISStart       ....  0.200000
   # of expansion vecs  DIISMaxEq       ....     5
   Bias factor          DIISBfac        ....   1.050
   Max. coefficient     DIISMaxC        ....  10.000
 Newton-Raphson         CNVNR           .... off
 SOSCF                  CNVSOSCF        .... off
 Level Shifting         CNVShift        .... on
   Level shift para.    LevelShift      ....    0.2500
   Turn off err/grad.   ShiftErr        ....    0.0010
 Zerner damping         CNVZerner       .... off
 Static damping         CNVDamp         .... on
   Fraction old density DampFac         ....    0.7000
   Max. Damping (<1)    DampMax         ....    0.9800
   Min. Damping (>=0)   DampMin         ....    0.0000
   Turn off err/grad.   DampErr         ....    0.1000
 Fernandez-Rico         CNVRico         .... off

SCF Procedure:
 Maximum # iterations   MaxIter         ....   125
 SCF integral mode      SCFMode         .... Direct
   Integral package                     .... LIBINT
 Reset frequency        DirectResetFreq ....    20
 Integral Threshold     Thresh          ....  1.000e-10 Eh
 Primitive CutOff       TCut            ....  1.000e-11 Eh

Convergence Tolerance:
 Convergence Check Mode ConvCheckMode   .... Total+1el-Energy
 Convergence forced     ConvForced      .... 0
 Energy Change          TolE            ....  1.000e-06 Eh
 1-El. energy change                    ....  1.000e-03 Eh
 DIIS Error             TolErr          ....  1.000e-06


Diagonalization of the overlap matrix:
Smallest eigenvalue                        ... 2.608e-04
Time for diagonalization                   ...    0.005 sec
Threshold for overlap eigenvalues          ... 1.000e-08
Number of eigenvalues below threshold      ... 0
Time for construction of square roots      ...    0.002 sec
Total time needed                          ...    0.008 sec

-------------------
DFT GRID GENERATION
-------------------

General Integration Accuracy     IntAcc      ...  4.670
Radial Grid Type                 RadialGrid  ... Gauss-Chebyshev
Angular Grid (max. acc.)         AngularGrid ... Lebedev-302
Angular grid pruning method      GridPruning ... 3 (G Style)
Weight generation scheme         WeightScheme... Becke
Basis function cutoff            BFCut       ...    1.0000e-10
Integration weight cutoff        WCut        ...    1.0000e-14
Grids for H and He will be reduced by one unit

# of grid points (after initial pruning)     ...  16378 (   0.0 sec)
# of grid points (after weights+screening)   ...  16351 (   0.0 sec)
nearest neighbour list constructed           ...    0.0 sec
Grid point re-assignment to atoms done       ...    0.0 sec
Grid point division into batches done        ...    0.1 sec
Reduced shell lists constructed in    0.1 sec

Total number of grid points                  ...    16351
Total number of batches                      ...      256
Average number of points per batch           ...       63
Average number of grid points per atom       ...     8176
Average number of shells per batch           ...    14.00 (34.15%)
Average number of basis functions per batch  ...    31.50 (22.03%)
Average number of large shells per batch     ...     6.83 (48.81%)
Average number of large basis fcns per batch ...    16.17 (51.32%)
Maximum spatial batch extension              ...  23.02, 23.02, 16.62 au
Average spatial batch extension              ...   0.80,  0.78,  0.61 au

Time for grid setup =    0.161 sec

------------------------------
INITIAL GUESS: MODEL POTENTIAL
------------------------------
Loading Hartree-Fock densities                     ... done
Calculating cut-offs                               ... done
Setting up the integral package                    ... done
Initializing the effective Hamiltonian             ... done
Starting the Coulomb interaction                   ... done (   0.0 sec)
Reading the grid                                   ... done
Mapping shells                                     ... done
Starting the XC term evaluation                    ... done (   0.0 sec)
  promolecular density results
     # of electrons  =     46.999999447
     EX              =    -96.925510210
     EC              =     -2.075672651
     EX+EC           =    -99.001182860
Transforming the Hamiltonian                       ... done (   0.0 sec)
Diagonalizing the Hamiltonian                      ... done (   0.0 sec)
Back transforming the eigenvectors                 ... done (   0.0 sec)
Now organizing SCF variables                       ... done
                      ------------------
                      INITIAL GUESS DONE (   0.3 sec)
                      ------------------
--------------
SCF ITERATIONS
--------------
ITER       Energy         Delta-E        Max-DP      RMS-DP      [F,P]     Damp
               ***  Starting incremental Fock matrix formation  ***
  0  -2239.5923448200   0.000000000000 0.02916604  0.00062683  0.2586587 0.7000
  1  -2239.6376405163  -0.045295696296 0.03086006  0.00050838  0.0570904 0.7000
                               ***Turning on DIIS***
  2  -2239.6524698716  -0.014829355282 0.10910366  0.00123435  0.0544256 0.0000
  3  -2239.6792521271  -0.026782255492 0.02752352  0.00037174  0.0373185 0.0000
  4  -2239.6848858044  -0.005633677334 0.00837564  0.00015329  0.0236520 0.0000
  5  -2239.6853196319  -0.000433827460 0.00492477  0.00007680  0.0124533 0.0000
  6  -2239.6854505632  -0.000130931332 0.00313175  0.00003906  0.0013846 0.0000
  7  -2239.6854650710  -0.000014507760 0.00240023  0.00002978  0.0006457 0.0000
  8  -2239.6854709204  -0.000005849412 0.00047116  0.00000670  0.0003172 0.0000
  9  -2239.6854711775  -0.000000257125 0.00026819  0.00000306  0.0001825 0.0000
                 **** Energy Check signals convergence ****

               *****************************************************
               *                     SUCCESS                       *
               *           SCF CONVERGED AFTER  10 CYCLES          *
               *****************************************************


----------------
TOTAL SCF ENERGY
----------------

Total Energy       :        -2239.68547131 Eh          -60944.94006 eV

Components:
Nuclear Repulsion  :          124.58994684 Eh            3390.26481 eV
Electronic Energy  :        -2364.27541815 Eh          -64335.20487 eV
One Electron Energy:        -3366.15468457 Eh          -91597.72571 eV
Two Electron Energy:         1001.87926641 Eh           27262.52084 eV

Virial components:
Potential Energy   :        -4475.92824013 Eh         -121796.19941 eV
Kinetic Energy     :         2236.24276882 Eh           60851.25936 eV
Virial Ratio       :            2.00153950


DFT components:
N(Alpha)           :       24.000005172333 electrons
N(Beta)            :       23.000005896226 electrons
N(Total)           :       47.000011068559 electrons
E(X)               :      -87.601911876671 Eh       
E(C)               :       -2.080497826063 Eh       
E(XC)              :      -89.682409702733 Eh       
DFET-embed. en.    :        0.000000000000 Eh       

---------------
SCF CONVERGENCE
---------------

  Last Energy change         ...   -1.3221e-07  Tolerance :   1.0000e-06
  Last MAX-Density change    ...    3.1013e-05  Tolerance :   1.0000e-05
  Last RMS-Density change    ...    4.6964e-07  Tolerance :   1.0000e-06
  Last DIIS Error            ...    2.6179e-05  Tolerance :   1.0000e-06

             **** THE GBW FILE WAS UPDATED (57_ZnCl.gbw) ****
             **** DENSITY FILE WAS UPDATED (57_ZnCl.scfp) ****
             **** ENERGY FILE WAS UPDATED (57_ZnCl.en.tmp) ****
----------------------
UHF SPIN CONTAMINATION
----------------------

Warning: in a DFT calculation there is little theoretical justification to 
         calculate <S**2> as in Hartree-Fock theory. We will do it anyways
         but you should keep in mind that the values have only limited relevance

Expectation value of <S**2>     :     0.752966
Ideal value S*(S+1) for S=0.5   :     0.750000
Deviation                       :     0.002966

             **** THE GBW FILE WAS UPDATED (57_ZnCl.gbw) ****
             **** DENSITY FILE WAS UPDATED (57_ZnCl.scfp) ****
----------------
ORBITAL ENERGIES
----------------
                 SPIN UP ORBITALS
  NO   OCC          E(Eh)            E(eV) 
   0   1.0000    -347.035600     -9443.3188 
   1   1.0000    -101.376457     -2758.5936 
   2   1.0000     -42.059336     -1144.4927 
   3   1.0000     -37.009052     -1007.0675 
   4   1.0000     -37.009052     -1007.0675 
   5   1.0000     -37.007391     -1007.0223 
   6   1.0000      -9.354791      -254.5568 
   7   1.0000      -7.101857      -193.2514 
   8   1.0000      -7.095717      -193.0843 
   9   1.0000      -7.095717      -193.0843 
  10   1.0000      -4.807470      -130.8179 
  11   1.0000      -3.195253       -86.9473 
  12   1.0000      -3.195253       -86.9473 
  13   1.0000      -3.191028       -86.8323 
  14   1.0000      -0.766481       -20.8570 
  15   1.0000      -0.493069       -13.4171 
  16   1.0000      -0.490675       -13.3520 
  17   1.0000      -0.490669       -13.3518 
  18   1.0000      -0.490036       -13.3346 
  19   1.0000      -0.490036       -13.3346 
  20   1.0000      -0.357351        -9.7240 
  21   1.0000      -0.292738        -7.9658 
  22   1.0000      -0.292738        -7.9658 
  23   1.0000      -0.225284        -6.1303 
  24   0.0000      -0.050036        -1.3616 
  25   0.0000      -0.050036        -1.3616 
  26   0.0000      -0.001641        -0.0447 
  27   0.0000       0.002986         0.0812 
  28   0.0000       0.028176         0.7667 
  29   0.0000       0.028177         0.7667 
  30   0.0000       0.060264         1.6399 
  31   0.0000       0.080734         2.1969 
  32   0.0000       0.092820         2.5258 
  33   0.0000       0.092820         2.5258 
  34   0.0000       0.112302         3.0559 
  35   0.0000       0.145616         3.9624 
  36   0.0000       0.145618         3.9625 
  37   0.0000       0.174397         4.7456 
  38   0.0000       0.174397         4.7456 
  39   0.0000       0.177744         4.8367 
  40   0.0000       0.202237         5.5031 
  41   0.0000       0.202237         5.5031 
  42   0.0000       0.208766         5.6808 
  43   0.0000       0.269805         7.3418 
  44   0.0000       0.269806         7.3418 
  45   0.0000       0.317644         8.6435 
  46   0.0000       0.356232         9.6936 
  47   0.0000       0.356232         9.6936 
  48   0.0000       0.382401        10.4057 
  49   0.0000       0.545053        14.8316 
  50   0.0000       0.545053        14.8316 
  51   0.0000       0.633859        17.2482 
  52   0.0000       0.685147        18.6438 
  53   0.0000       0.685149        18.6439 
  54   0.0000       0.686525        18.6813 
  55   0.0000       0.686525        18.6813 
  56   0.0000       0.714681        19.4474 
  57   0.0000       0.745987        20.2993 
  58   0.0000       0.755593        20.5607 
  59   0.0000       0.755596        20.5608 
  60   0.0000       0.839410        22.8415 
  61   0.0000       0.853904        23.2359 
  62   0.0000       0.853904        23.2359 
  63   0.0000       0.922036        25.0899 
  64   0.0000       0.922036        25.0899 
  65   0.0000       1.000912        27.2362 
  66   0.0000       1.000920        27.2364 
  67   0.0000       1.002322        27.2746 
  68   0.0000       1.002322        27.2746 
  69   0.0000       1.015563        27.6349 
  70   0.0000       1.196149        32.5489 
  71   0.0000       1.196149        32.5489 
  72   0.0000       1.205183        32.7947 
  73   0.0000       1.593077        43.3498 
  74   0.0000       1.593077        43.3498 
  75   0.0000       1.598025        43.4845 
  76   0.0000       1.690640        46.0047 
  77   0.0000       1.690648        46.0049 
  78   0.0000       1.905177        51.8425 
  79   0.0000       1.905177        51.8425 
  80   0.0000       2.035109        55.3781 
  81   0.0000       2.222677        60.4821 
  82   0.0000       2.222921        60.4887 
  83   0.0000       2.336818        63.5881 
  84   0.0000       2.336818        63.5881 
  85   0.0000       2.340244        63.6813 
  86   0.0000       2.439657        66.3864 
  87   0.0000       2.439657        66.3864 
  88   0.0000       2.719670        74.0060 
  89   0.0000       2.720362        74.0248 
  90   0.0000       2.720421        74.0264 
  91   0.0000       2.765651        75.2572 
  92   0.0000       2.765651        75.2572 
  93   0.0000       2.790112        75.9228 
  94   0.0000       2.790157        75.9240 
  95   0.0000       2.796696        76.1020 
  96   0.0000       2.796696        76.1020 
  97   0.0000       2.871903        78.1485 
  98   0.0000       2.871903        78.1485 
  99   0.0000       2.954855        80.4057 
 100   0.0000       3.102916        84.4346 
 101   0.0000       4.184180       113.8573 
 102   0.0000       4.261197       115.9531 
 103   0.0000       4.261197       115.9531 
 104   0.0000       4.789422       130.3268 
 105   0.0000       4.885697       132.9466 
 106   0.0000       4.885697       132.9466 
 107   0.0000       4.932038       134.2076 
 108   0.0000       4.932070       134.2084 
 109   0.0000       5.092408       138.5715 
 110   0.0000       5.092408       138.5715 
 111   0.0000       5.394086       146.7806 
 112   0.0000       5.798313       157.7801 
 113   0.0000       7.319073       199.1621 
 114   0.0000       7.319510       199.1740 
 115   0.0000       7.322536       199.2563 
 116   0.0000       7.322536       199.2563 
 117   0.0000       7.328996       199.4321 
 118   0.0000       7.329110       199.4352 
 119   0.0000       7.350610       200.0203 
 120   0.0000       7.350610       200.0203 
 121   0.0000       7.413389       201.7286 
 122   0.0000      10.124800       275.5098 
 123   0.0000      10.124823       275.5104 
 124   0.0000      10.190231       277.2903 
 125   0.0000      10.190231       277.2903 
 126   0.0000      10.356561       281.8163 
 127   0.0000      15.790260       429.6748 
 128   0.0000      15.790260       429.6748 
 129   0.0000      15.814555       430.3359 
 130   0.0000      15.814595       430.3370 
 131   0.0000      15.898013       432.6069 
 132   0.0000      15.898013       432.6069 
 133   0.0000      15.997946       435.3262 
 134   0.0000      19.609697       533.6070 
 135   0.0000      19.609822       533.6104 
 136   0.0000      19.612737       533.6897 
 137   0.0000      19.612737       533.6897 
 138   0.0000      19.616721       533.7981 
 139   0.0000      19.617058       533.8073 
 140   0.0000      19.628943       534.1307 
 141   0.0000      19.628943       534.1307 
 142   0.0000      19.650724       534.7234 

                 SPIN DOWN ORBITALS
  NO   OCC          E(Eh)            E(eV) 
   0   1.0000    -347.034467     -9443.2879 
   1   1.0000    -101.375193     -2758.5592 
   2   1.0000     -42.059307     -1144.4919 
   3   1.0000     -37.009321     -1007.0748 
   4   1.0000     -37.009321     -1007.0748 
   5   1.0000     -37.006491     -1006.9978 
   6   1.0000      -9.353668      -254.5262 
   7   1.0000      -7.098037      -193.1474 
   8   1.0000      -7.095107      -193.0677 
   9   1.0000      -7.095107      -193.0677 
  10   1.0000      -4.806410      -130.7891 
  11   1.0000      -3.194153       -86.9173 
  12   1.0000      -3.194153       -86.9173 
  13   1.0000      -3.190553       -86.8194 
  14   1.0000      -0.758271       -20.6336 
  15   1.0000      -0.486827       -13.2472 
  16   1.0000      -0.486480       -13.2378 
  17   1.0000      -0.486474       -13.2376 
  18   1.0000      -0.485975       -13.2240 
  19   1.0000      -0.485975       -13.2240 
  20   1.0000      -0.340006        -9.2520 
  21   1.0000      -0.290357        -7.9010 
  22   1.0000      -0.290357        -7.9010 
  23   0.0000      -0.151757        -4.1295 
  24   0.0000      -0.024812        -0.6752 
  25   0.0000      -0.024812        -0.6752 
  26   0.0000       0.008710         0.2370 
  27   0.0000       0.016487         0.4486 
  28   0.0000       0.037173         1.0115 
  29   0.0000       0.037173         1.0115 
  30   0.0000       0.071399         1.9429 
  31   0.0000       0.085308         2.3214 
  32   0.0000       0.096311         2.6208 
  33   0.0000       0.096311         2.6208 
  34   0.0000       0.122444         3.3319 
  35   0.0000       0.155467         4.2305 
  36   0.0000       0.155467         4.2305 
  37   0.0000       0.186400         5.0722 
  38   0.0000       0.186400         5.0722 
  39   0.0000       0.190808         5.1922 
  40   0.0000       0.219755         5.9798 
  41   0.0000       0.219755         5.9798 
  42   0.0000       0.229723         6.2511 
  43   0.0000       0.273973         7.4552 
  44   0.0000       0.273974         7.4552 
  45   0.0000       0.327046         8.8994 
  46   0.0000       0.365052         9.9336 
  47   0.0000       0.365052         9.9336 
  48   0.0000       0.392640        10.6843 
  49   0.0000       0.547977        14.9112 
  50   0.0000       0.547977        14.9112 
  51   0.0000       0.642564        17.4851 
  52   0.0000       0.699040        19.0218 
  53   0.0000       0.699040        19.0218 
  54   0.0000       0.703547        19.1445 
  55   0.0000       0.703552        19.1446 
  56   0.0000       0.723017        19.6743 
  57   0.0000       0.754554        20.5325 
  58   0.0000       0.763476        20.7752 
  59   0.0000       0.763480        20.7754 
  60   0.0000       0.869377        23.6570 
  61   0.0000       0.872209        23.7340 
  62   0.0000       0.872209        23.7340 
  63   0.0000       0.939059        25.5531 
  64   0.0000       0.939059        25.5531 
  65   0.0000       1.002426        27.2774 
  66   0.0000       1.002426        27.2774 
  67   0.0000       1.008634        27.4463 
  68   0.0000       1.008639        27.4465 
  69   0.0000       1.028000        27.9733 
  70   0.0000       1.209453        32.9109 
  71   0.0000       1.209453        32.9109 
  72   0.0000       1.221937        33.2506 
  73   0.0000       1.607022        43.7293 
  74   0.0000       1.619808        44.0772 
  75   0.0000       1.619808        44.0772 
  76   0.0000       1.716431        46.7065 
  77   0.0000       1.716439        46.7067 
  78   0.0000       1.922432        52.3120 
  79   0.0000       1.922432        52.3120 
  80   0.0000       2.045459        55.6598 
  81   0.0000       2.225253        60.5522 
  82   0.0000       2.225500        60.5589 
  83   0.0000       2.341273        63.7093 
  84   0.0000       2.341273        63.7093 
  85   0.0000       2.347893        63.8894 
  86   0.0000       2.446819        66.5813 
  87   0.0000       2.446819        66.5813 
  88   0.0000       2.729264        74.2671 
  89   0.0000       2.729316        74.2685 
  90   0.0000       2.730653        74.3048 
  91   0.0000       2.767723        75.3136 
  92   0.0000       2.767723        75.3136 
  93   0.0000       2.796248        76.0898 
  94   0.0000       2.796296        76.0911 
  95   0.0000       2.808018        76.4101 
  96   0.0000       2.808018        76.4101 
  97   0.0000       2.879480        78.3546 
  98   0.0000       2.879480        78.3546 
  99   0.0000       2.966512        80.7229 
 100   0.0000       3.107870        84.5694 
 101   0.0000       4.198367       114.2434 
 102   0.0000       4.267530       116.1254 
 103   0.0000       4.267530       116.1254 
 104   0.0000       4.790803       130.3644 
 105   0.0000       4.889176       133.0413 
 106   0.0000       4.889176       133.0413 
 107   0.0000       4.935998       134.3153 
 108   0.0000       4.936032       134.3162 
 109   0.0000       5.096939       138.6948 
 110   0.0000       5.096939       138.6948 
 111   0.0000       5.399835       146.9370 
 112   0.0000       5.800828       157.8486 
 113   0.0000       7.320983       199.2141 
 114   0.0000       7.321415       199.2258 
 115   0.0000       7.325629       199.3405 
 116   0.0000       7.325629       199.3405 
 117   0.0000       7.333044       199.5423 
 118   0.0000       7.333158       199.5454 
 119   0.0000       7.354981       200.1392 
 120   0.0000       7.354981       200.1392 
 121   0.0000       7.417279       201.8344 
 122   0.0000      10.126025       275.5432 
 123   0.0000      10.126044       275.5437 
 124   0.0000      10.191286       277.3190 
 125   0.0000      10.191286       277.3190 
 126   0.0000      10.357960       281.8544 
 127   0.0000      15.791987       429.7218 
 128   0.0000      15.791987       429.7218 
 129   0.0000      15.814870       430.3445 
 130   0.0000      15.814910       430.3456 
 131   0.0000      15.898278       432.6141 
 132   0.0000      15.898278       432.6141 
 133   0.0000      15.998237       435.3342 
 134   0.0000      19.610380       533.6256 
 135   0.0000      19.610503       533.6289 
 136   0.0000      19.613137       533.7006 
 137   0.0000      19.613137       533.7006 
 138   0.0000      19.617229       533.8119 
 139   0.0000      19.617566       533.8211 
 140   0.0000      19.629571       534.1478 
 141   0.0000      19.629571       534.1478 
 142   0.0000      19.651337       534.7401 

                    ********************************
                    * MULLIKEN POPULATION ANALYSIS *
                    ********************************

--------------------------------------------
MULLIKEN ATOMIC CHARGES AND SPIN POPULATIONS
--------------------------------------------
   0 Zn:    0.523441    0.873114
   1 Cl:   -0.523441    0.126886
Sum of atomic charges         :   -0.0000000
Sum of atomic spin populations:    1.0000000

-----------------------------------------------------
MULLIKEN REDUCED ORBITAL CHARGES AND SPIN POPULATIONS
-----------------------------------------------------
CHARGE
  0 Zns       :     7.126742  s :     7.126742
      pz      :     4.259337  p :    12.355623
      px      :     4.048143
      py      :     4.048143
      dz2     :     1.988553  d :     9.989708
      dxz     :     2.000842
      dyz     :     2.000842
      dx2y2   :     1.999736
      dxy     :     1.999736
      f0      :     0.001775  f :     0.004471
      f+1     :     0.001342
      f-1     :     0.001342
      f+2     :     0.000006
      f-2     :     0.000006
      f+3     :     0.000000
      f-3     :     0.000000
      g0      :     0.000006  g :     0.000015
      g+1     :     0.000004
      g-1     :     0.000004
      g+2     :     0.000000
      g-2     :     0.000000
      g+3     :     0.000000
      g-3     :     0.000000
      g+4     :     0.000000
      g-4     :     0.000000
  1 Cls       :     6.001366  s :     6.001366
      pz      :     3.607917  p :    11.491670
      px      :     3.941877
      py      :     3.941877
      dz2     :     0.013986  d :     0.027913
      dxz     :     0.006809
      dyz     :     0.006809
      dx2y2   :     0.000154
      dxy     :     0.000154
      f0      :     0.000318  f :     0.002491
      f+1     :     0.000983
      f-1     :     0.000983
      f+2     :     0.000103
      f-2     :     0.000103
      f+3     :     0.000000
      f-3     :     0.000000

SPIN
  0 Zns       :     0.671506  s :     0.671506
      pz      :     0.184171  p :     0.196568
      px      :     0.006199
      py      :     0.006199
      dz2     :     0.006389  d :     0.005018
      dxz     :    -0.000765
      dyz     :    -0.000765
      dx2y2   :     0.000080
      dxy     :     0.000080
      f0      :     0.000109  f :     0.000021
      f+1     :    -0.000044
      f-1     :    -0.000044
      f+2     :     0.000000
      f-2     :     0.000000
      f+3     :     0.000000
      f-3     :     0.000000
      g0      :     0.000000  g :     0.000000
      g+1     :    -0.000000
      g-1     :    -0.000000
      g+2     :    -0.000000
      g-2     :    -0.000000
      g+3     :    -0.000000
      g-3     :    -0.000000
      g+4     :     0.000000
      g-4     :     0.000000
  1 Cls       :    -0.001719  s :    -0.001719
      pz      :     0.138604  p :     0.128305
      px      :    -0.005150
      py      :    -0.005150
      dz2     :     0.001041  d :     0.000664
      dxz     :    -0.000145
      dyz     :    -0.000145
      dx2y2   :    -0.000043
      dxy     :    -0.000043
      f0      :    -0.000102  f :    -0.000365
      f+1     :    -0.000094
      f-1     :    -0.000094
      f+2     :    -0.000037
      f-2     :    -0.000037
      f+3     :     0.000000
      f-3     :     0.000000


                     *******************************
                     * LOEWDIN POPULATION ANALYSIS *
                     *******************************

-------------------------------------------
LOEWDIN ATOMIC CHARGES AND SPIN POPULATIONS
-------------------------------------------
   0 Zn:    0.227338    0.799751
   1 Cl:   -0.227338    0.200249

----------------------------------------------------
LOEWDIN REDUCED ORBITAL CHARGES AND SPIN POPULATIONS
----------------------------------------------------
CHARGE
  0 Zns       :     6.868253  s :     6.868253
      pz      :     4.479760  p :    12.647071
      px      :     4.083655
      py      :     4.083655
      dz2     :     2.115716  d :    10.234876
      dxz     :     2.060784
      dyz     :     2.060784
      dx2y2   :     1.998795
      dxy     :     1.998795
      f0      :     0.012138  f :     0.022382
      f+1     :     0.005115
      f-1     :     0.005115
      f+2     :     0.000007
      f-2     :     0.000007
      f+3     :     0.000000
      f-3     :     0.000000
      g0      :     0.000047  g :     0.000081
      g+1     :     0.000017
      g-1     :     0.000017
      g+2     :     0.000000
      g-2     :     0.000000
      g+3     :     0.000000
      g-3     :     0.000000
      g+4     :     0.000000
      g-4     :     0.000000
  1 Cls       :     5.730613  s :     5.730613
      pz      :     3.664026  p :    11.320814
      px      :     3.828394
      py      :     3.828394
      dz2     :     0.099907  d :     0.124951
      dxz     :     0.011973
      dyz     :     0.011973
      dx2y2   :     0.000549
      dxy     :     0.000549
      f0      :     0.029541  f :     0.050960
      f+1     :     0.010062
      f-1     :     0.010062
      f+2     :     0.000648
      f-2     :     0.000648
      f+3     :     0.000000
      f-3     :     0.000000

SPIN
  0 Zns       :     0.504827  s :     0.504827
      pz      :     0.272562  p :     0.284646
      px      :     0.006042
      py      :     0.006042
      dz2     :     0.012600  d :     0.008355
      dxz     :    -0.002124
      dyz     :    -0.002124
      dx2y2   :     0.000001
      dxy     :     0.000001
      f0      :     0.001910  f :     0.001916
      f+1     :    -0.000001
      f-1     :    -0.000001
      f+2     :     0.000004
      f-2     :     0.000004
      f+3     :     0.000000
      f-3     :     0.000000
      g0      :     0.000008  g :     0.000008
      g+1     :    -0.000000
      g-1     :    -0.000000
      g+2     :    -0.000000
      g-2     :    -0.000000
      g+3     :    -0.000000
      g-3     :    -0.000000
      g+4     :     0.000000
      g-4     :     0.000000
  1 Cls       :     0.034472  s :     0.034472
      pz      :     0.148744  p :     0.141480
      px      :    -0.003632
      py      :    -0.003632
      dz2     :     0.023913  d :     0.023591
      dxz     :    -0.000156
      dyz     :    -0.000156
      dx2y2   :    -0.000005
      dxy     :    -0.000005
      f0      :     0.000964  f :     0.000706
      f+1     :    -0.000129
      f-1     :    -0.000129
      f+2     :     0.000000
      f-2     :     0.000000
      f+3     :     0.000000
      f-3     :     0.000000


                      *****************************
                      * MAYER POPULATION ANALYSIS *
                      *****************************

  NA   - Mulliken gross atomic population
  ZA   - Total nuclear charge
  QA   - Mulliken gross atomic charge
  VA   - Mayer's total valence
  BVA  - Mayer's bonded valence
  FA   - Mayer's free valence

  ATOM       NA         ZA         QA         VA         BVA        FA
  0 Zn    29.4766    30.0000     0.5234     1.5897     0.8002     0.7895
  1 Cl    17.5234    17.0000    -0.5234     0.8197     0.8002     0.0194

  Mayer bond orders larger than 0.100000
B(  0-Zn,  1-Cl) :   0.8002 

-------
TIMINGS
-------

Total SCF time: 0 days 0 hours 1 min 26 sec 

Total time                  ....      86.090 sec
Sum of individual times     ....      85.737 sec  ( 99.6%)

Fock matrix formation       ....      85.383 sec  ( 99.2%)
  XC integration            ....       0.387 sec  (  0.5% of F)
    Basis function eval.    ....       0.054 sec  ( 14.0% of XC)
    Density eval.           ....       0.057 sec  ( 14.7% of XC)
    XC-Functional eval.     ....       0.015 sec  (  3.9% of XC)
    XC-Potential eval.      ....       0.156 sec  ( 40.4% of XC)
Diagonalization             ....       0.057 sec  (  0.1%)
Density matrix formation    ....       0.008 sec  (  0.0%)
Population analysis         ....       0.007 sec  (  0.0%)
Initial guess               ....       0.103 sec  (  0.1%)
Orbital Transformation      ....       0.000 sec  (  0.0%)
Orbital Orthonormalization  ....       0.000 sec  (  0.0%)
DIIS solution               ....       0.019 sec  (  0.0%)
Grid generation             ....       0.161 sec  (  0.2%)


-------------------------------------------------------------------------------
                          DFT DISPERSION CORRECTION                            
                                                                               
                              DFTD3 V3.1  Rev 1                                
                          USING Becke-Johnson damping                          
-------------------------------------------------------------------------------
The TPSSH functional is recognized
Active option DFTDOPT                   ...         4   

molecular C6(AA) [au] = 583.909004 


            DFT-D V3
 parameters
 s6 scaling factor         :     1.0000 
 a1 scaling factor         :     0.4529 
 s8 scaling factor         :     2.2382 
 a2 scaling factor         :     4.6550 
 ad hoc parameters k1-k3   :    16.0000     1.3333    -4.0000 

 Edisp/kcal,au: -0.898539361743  -0.001431913466 
 E6   /kcal   :  -0.301301479 
 E8   /kcal   :  -0.597237882 
 % E8         :  66.467637131 

-------------------------   ----------------
Dispersion correction           -0.001431913
-------------------------   ----------------


-------------------------   --------------------
FINAL SINGLE POINT ENERGY     -2239.686903223182
-------------------------   --------------------


                            ***************************************
                            *     ORCA property calculations      *
                            ***************************************

                                    ---------------------
                                    Active property flags
                                    ---------------------
   (+) Dipole Moment


------------------------------------------------------------------------------
                       ORCA ELECTRIC PROPERTIES CALCULATION
------------------------------------------------------------------------------

Dipole Moment Calculation                       ... on
Quadrupole Moment Calculation                   ... off
Polarizability Calculation                      ... off
GBWName                                         ... 57_ZnCl.gbw
Electron density file                           ... 57_ZnCl.scfp
The origin for moment calculation is the CENTER OF MASS  = ( 0.000000,  0.000000  1.282266)

-------------
DIPOLE MOMENT
-------------
                                X             Y             Z
Electronic contribution:      0.00000      -0.00000      -3.02878
Nuclear contribution   :      0.00000       0.00000       1.94334
                        -----------------------------------------
Total Dipole Moment    :      0.00000      -0.00000      -1.08545
                        -----------------------------------------
Magnitude (a.u.)       :      1.08545
Magnitude (Debye)      :      2.75899



--------------------
Rotational spectrum 
--------------------
 
Rotational constants in cm-1:     0.000000     0.156288     0.156288 
Rotational constants in MHz :     0.000000  4685.390286  4685.390286 

 Dipole components along the rotational axes: 
x,y,z [a.u.] :    -1.085448    -0.000000     0.000000 
x,y,z [Debye]:    -2.758989    -0.000000     0.000000 

 

Timings for individual modules:

Sum of individual times         ...       90.239 sec (=   1.504 min)
GTO integral calculation        ...        3.691 sec (=   0.062 min)   4.1 %
SCF iterations                  ...       86.548 sec (=   1.442 min)  95.9 %
                             ****ORCA TERMINATED NORMALLY****
TOTAL RUN TIME: 0 days 0 hours 1 minutes 30 seconds 849 msec
