
                                 *****************
                                 * O   R   C   A *
                                 *****************

           --- An Ab Initio, DFT and Semiempirical electronic structure package ---

                  #######################################################
                  #                        -***-                        #
                  #          Department of theory and spectroscopy      #
                  #               Directorship: Frank Neese             #
                  #        Max Planck Institute fuer Kohlenforschung    #
                  #                Kaiser Wilhelm Platz 1               #
                  #                 D-45470 Muelheim/Ruhr               #
                  #                      Germany                        #
                  #                                                     #
                  #                  All rights reserved                #
                  #                        -***-                        #
                  #######################################################


                         Program Version 4.2.0 -  RELEASE  -


 With contributions from (in alphabetic order):
   Daniel Aravena         : Magnetic Suceptibility
   Michael Atanasov       : Ab Initio Ligand Field Theory (pilot matlab implementation)
   Alexander A. Auer      : GIAO ZORA, VPT2
   Ute Becker             : Parallelization
   Giovanni Bistoni       : ED, misc. LED, open-shell LED, HFLED
   Martin Brehm           : Molecular dynamics
   Dmytro Bykov           : SCF Hessian
   Vijay G. Chilkuri      : MRCI spin determinant printing, contributions to CSF-ICE
   Dipayan Datta          : RHF DLPNO-CCSD density
   Achintya Kumar Dutta   : EOM-CC, STEOM-CC
   Dmitry Ganyushin       : Spin-Orbit,Spin-Spin,Magnetic field MRCI
   Miquel Garcia          : C-PCM Hessian, Gaussian charge scheme
   Yang Guo               : DLPNO-NEVPT2, CIM, IAO-localization
   Andreas Hansen         : Spin unrestricted coupled pair/coupled cluster methods
   Benjamin Helmich-Paris : CASSCF linear response (MC-RPA)
   Lee Huntington         : MR-EOM, pCC
   Robert Izsak           : Overlap fitted RIJCOSX, COSX-SCS-MP3, EOM
   Christian Kollmar      : KDIIS, OOCD, Brueckner-CCSD(T), CCSD density
   Simone Kossmann        : Meta GGA functionals, TD-DFT gradient, OOMP2, MP2 Hessian
   Martin Krupicka        : AUTO-CI
   Lucas Lang             : DCDCAS
   Dagmar Lenk            : GEPOL surface, SMD
   Dimitrios Liakos       : Extrapolation schemes; Compound Job, initial MDCI parallelization
   Dimitrios Manganas     : Further ROCIS development; embedding schemes
   Dimitrios Pantazis     : SARC Basis sets
   Taras Petrenko         : DFT Hessian,TD-DFT gradient, ASA, ECA, R-Raman, ABS, FL, XAS/XES, NRVS
   Peter Pinski           : DLPNO-MP2, DLPNO-MP2 Gradient
   Christoph Reimann      : Effective Core Potentials
   Marius Retegan         : Local ZFS, SOC
   Christoph Riplinger    : Optimizer, TS searches, QM/MM, DLPNO-CCSD(T), (RO)-DLPNO pert. Triples
   Tobias Risthaus        : Range-separated hybrids, TD-DFT gradient, RPA, STAB
   Michael Roemelt        : Original ROCIS implementation
   Masaaki Saitow         : Open-shell DLPNO-CCSD energy and density
   Barbara Sandhoefer     : DKH picture change effects
   Avijit Sen             : IP-ROCIS
   Kantharuban Sivalingam : CASSCF convergence, NEVPT2, FIC-MRCI
   Bernardo de Souza      : ESD, SOC TD-DFT
   Georgi Stoychev        : AutoAux, RI-MP2 NMR
   Willem Van den Heuvel  : Paramagnetic NMR
   Boris Wezisla          : Elementary symmetry handling
   Frank Wennmohs         : Technical directorship


 We gratefully acknowledge several colleagues who have allowed us to
 interface, adapt or use parts of their codes:
   Stefan Grimme, W. Hujo, H. Kruse,             : VdW corrections, initial TS optimization,
                  C. Bannwarth                     DFT functionals, gCP, sTDA/sTD-DF
   Ed Valeev, F. Pavosevic, A. Kumar             : LibInt (2-el integral package), F12 methods
   Garnet Chan, S. Sharma, J. Yang, R. Olivares  : DMRG
   Ulf Ekstrom                                   : XCFun DFT Library
   Mihaly Kallay                                 : mrcc  (arbitrary order and MRCC methods)
   Andreas Klamt, Michael Diedenhofen            : otool_cosmo (COSMO solvation model)
   Jiri Pittner, Ondrej Demel                    : Mk-CCSD
   Frank Weinhold                                : gennbo (NPA and NBO analysis)
   Christopher J. Cramer and Donald G. Truhlar   : smd solvation model
   Lars Goerigk                                  : TD-DFT with DH, B97 family of functionals
   V. Asgeirsson, H. Jonsson                     : NEB implementation
   FAccTs GmbH                                   : IRC, NEB, NEB-TS, Multilevel, MM, QM/MM, CI optimization
   S Lehtola, MJT Oliveira, MAL Marques          : LibXC Library


 Your calculation uses the libint2 library for the computation of 2-el integrals
 For citations please refer to: http://libint.valeyev.net

 Your ORCA version has been built with support for libXC version: 4.2.3
 For citations please refer to: https://tddft.org/programs/libxc/

 This ORCA versions uses:
   CBLAS   interface :  Fast vector & matrix operations
   LAPACKE interface :  Fast linear algebra routines
   SCALAPACK package :  Parallel linear algebra routines


Your calculation utilizes the atom-pairwise dispersion correction
with the Becke-Johnson damping scheme (D3BJ)
Cite in your paper:
S.Grimme, S.Ehrlich, L.Goerigk, J Comput Chem, (2011), 32, 1456–1465 
S.Grimme, J.Antony, S.Ehrlich and H.Krieg, J.Chem.Phys., 132, (2010), 154104 
   

----- Orbital basis set information -----
Your calculation utilizes the basis: aug-cc-pVTZ 
    H, B-Ne : Obtained from the ccRepo (grant-hill.group.shef.ac.uk/ccrepo) Feb. 2017
              R. A. Kendall, T. H. Dunning, Jr., R. J. Harrison, J. Chem. Phys. 96, 6796 (1992)
         He : Obtained from the ccRepo (grant-hill.group.shef.ac.uk/ccrepo) Feb. 2017
              D. E. Woon, T. H. Dunning, Jr., J. Chem. Phys. 100, 2975 (1994)
  Li-Be, Na : Obtained from the ccRepo (grant-hill.group.shef.ac.uk/ccrepo) Feb. 2017
              B. P. Prascher, D. E. Woon, K. A. Peterson, T. H. Dunning, Jr., A. K. Wilson, Theor. Chem. Acc. 128, 69 (2011)
         Mg : Obtained from the Peterson Research Group Website (tyr0.chem.wsu.edu/~kipeters) Feb. 2017
              B. P. Prascher, D. E. Woon, K. A. Peterson, T. H. Dunning, Jr., A. K. Wilson, Theor. Chem. Acc. 128, 69 (2011)
      Al-Ar : Obtained from the ccRepo (grant-hill.group.shef.ac.uk/ccrepo) Feb. 2017
              D. E. Woon, T. H. Dunning, Jr., J. Chem. Phys. 98, 1358 (1993)
      Sc-Zn : Obtained from the ccRepo (grant-hill.group.shef.ac.uk/ccrepo) Feb. 2017
              N. B. Balabanov, K. A. Peterson, J. Chem. Phys. 123, 064107 (2005)
              N. B. Balabanov, K. A. Peterson, J. Chem. Phys. 125, 074110 (2006)
      Ga-Kr : Obtained from the ccRepo (grant-hill.group.shef.ac.uk/ccrepo) Feb. 2017
              A. K. Wilson, D. E. Woon, K. A. Peterson, T. H. Dunning, Jr., J. Chem. Phys. 110, 7667 (1999)
     Ag, Au : Obtained from the Peterson Research Group Website (tyr0.chem.wsu.edu/~kipeters) Feb. 2017
              K. A. Peterson, C. Puzzarini, Theor. Chem. Acc. 114, 283 (2005)

----- AuxJK basis set information -----
Your calculation utilizes the auxiliary basis: def2/JK
   H-Ba, Hf-Rn: F. Weigend, J. Comput. Chem. 29, 167 (2008).

================================================================================
                                        WARNINGS
                       Please study these warnings very carefully!
================================================================================


WARNING: your system is open-shell and RHF/RKS was chosen
  ===> : WILL SWITCH to UHF/UKS


INFO   : the flag for use of LIBINT has been found!

================================================================================
                                       INPUT FILE
================================================================================
NAME = 62_Ti.in
|  1> #
|  2> # 62_Ti tpssh/aug-cc-pvtz
|  3> #
|  4> ! tpssh d3bj aug-cc-pvtz def2/jk grid4 nofinalgrid
|  5> 
|  6> *xyz 0 3
|  7> Ti 0.0 0.0 0.0
|  8> *
|  9> 
| 10> %pal
| 11> nprocs 24
| 12> end
| 13> 
| 14> 
| 15>                          ****END OF INPUT****
================================================================================

                       ****************************
                       * Single Point Calculation *
                       ****************************

---------------------------------
CARTESIAN COORDINATES (ANGSTROEM)
---------------------------------
  Ti     0.000000    0.000000    0.000000

----------------------------
CARTESIAN COORDINATES (A.U.)
----------------------------
  NO LB      ZA    FRAG     MASS         X           Y           Z
   0 Ti   22.0000    0    47.900    0.000000    0.000000    0.000000

--------------------------------
INTERNAL COORDINATES (ANGSTROEM)
--------------------------------
 Ti     0   0   0     0.000000000000     0.00000000     0.00000000

---------------------------
INTERNAL COORDINATES (A.U.)
---------------------------
 Ti     0   0   0     0.000000000000     0.00000000     0.00000000

---------------------
BASIS SET INFORMATION
---------------------
There are 1 groups of distinct atoms

 Group   1 Type Ti  : 116s77p23d3f2g contracted to 8s7p5d3f2g pattern {19191919191911/151515151511/77711/111/11}

Atom   0Ti   basis set group =>   1
----------------------------------
AUXILIARY/JK BASIS SET INFORMATION
----------------------------------
There are 1 groups of distinct atoms

 Group   1 Type Ti  : 19s14p12d10f7g3h1i contracted to 16s13p11d9f5g3h1i pattern {4111111111111111/2111111111111/21111111111/211111111/31111/111/1}

Atom   0Ti   basis set group =>   1


           ************************************************************
           *        Program running with 24 parallel MPI-processes    *
           *              working on a common directory               *
           ************************************************************
------------------------------------------------------------------------------
                           ORCA GTO INTEGRAL CALCULATION
------------------------------------------------------------------------------

                         BASIS SET STATISTICS AND STARTUP INFO

 # of primitive gaussian shells          ...  221
 # of primitive gaussian functions       ...  501
 # of contracted shells                  ...   25
 # of contracted basis functions         ...   93
 Highest angular momentum                ...    4
 Maximum contraction depth               ...   19
 Integral package used                   ... LIBINT
 Integral threshhold            Thresh   ...  1.000e-10
 Primitive cut-off              TCut     ...  1.000e-11


------------------------------ INTEGRAL EVALUATION ----------------------------


 * One electron integrals 
 Pre-screening matrix                    ... done
 Shell pair data                         ... done (   0.001 sec)



           ************************************************************
           *        Program running with 24 parallel MPI-processes    *
           *              working on a common directory               *
           ************************************************************
-------------------------------------------------------------------------------
                                 ORCA SCF
-------------------------------------------------------------------------------

------------
SCF SETTINGS
------------
Hamiltonian:
 Density Functional     Method          .... DFT(GTOs)
 Exchange Functional    Exchange        .... TPSS
 Correlation Functional Correlation     .... TPSS
 LDA part of GGA corr.  LDAOpt          .... PW91-LDA
 Gradients option       PostSCFGGA      .... off
 Hybrid DFT is turned on
   Fraction HF Exchange ScalHFX         ....  0.100000
   Scaling of DF-GGA-X  ScalDFX         ....  0.900000
   Scaling of DF-GGA-C  ScalDFC         ....  1.000000
   Scaling of DF-LDA-C  ScalLDAC        ....  1.000000
   Perturbative correction              ....  0.000000
   Density functional embedding theory  .... OFF
   NL short-range parameter             ....  5.200000


General Settings:
 Integral files         IntName         .... 62_Ti
 Hartree-Fock type      HFTyp           .... UHF
 Total Charge           Charge          ....    0
 Multiplicity           Mult            ....    3
 Number of Electrons    NEL             ....   22
 Basis Dimension        Dim             ....   93
 Nuclear Repulsion      ENuc            ....      0.0000000000 Eh

Convergence Acceleration:
 DIIS                   CNVDIIS         .... on
   Start iteration      DIISMaxIt       ....    12
   Startup error        DIISStart       ....  0.200000
   # of expansion vecs  DIISMaxEq       ....     5
   Bias factor          DIISBfac        ....   1.050
   Max. coefficient     DIISMaxC        ....  10.000
 Newton-Raphson         CNVNR           .... off
 SOSCF                  CNVSOSCF        .... off
 Level Shifting         CNVShift        .... on
   Level shift para.    LevelShift      ....    0.2500
   Turn off err/grad.   ShiftErr        ....    0.0010
 Zerner damping         CNVZerner       .... off
 Static damping         CNVDamp         .... on
   Fraction old density DampFac         ....    0.7000
   Max. Damping (<1)    DampMax         ....    0.9800
   Min. Damping (>=0)   DampMin         ....    0.0000
   Turn off err/grad.   DampErr         ....    0.1000
 Fernandez-Rico         CNVRico         .... off

SCF Procedure:
 Maximum # iterations   MaxIter         ....   125
 SCF integral mode      SCFMode         .... Direct
   Integral package                     .... LIBINT
 Reset frequency        DirectResetFreq ....    20
 Integral Threshold     Thresh          ....  1.000e-10 Eh
 Primitive CutOff       TCut            ....  1.000e-11 Eh

Convergence Tolerance:
 Convergence Check Mode ConvCheckMode   .... Total+1el-Energy
 Convergence forced     ConvForced      .... 0
 Energy Change          TolE            ....  1.000e-06 Eh
 1-El. energy change                    ....  1.000e-03 Eh
 DIIS Error             TolErr          ....  1.000e-06


Diagonalization of the overlap matrix:
Smallest eigenvalue                        ... 1.249e-04
Time for diagonalization                   ...    0.003 sec
Threshold for overlap eigenvalues          ... 1.000e-08
Number of eigenvalues below threshold      ... 0
Time for construction of square roots      ...    0.002 sec
Total time needed                          ...    0.004 sec

-------------------
DFT GRID GENERATION
-------------------

General Integration Accuracy     IntAcc      ...  4.670
Radial Grid Type                 RadialGrid  ... Gauss-Chebyshev
Angular Grid (max. acc.)         AngularGrid ... Lebedev-302
Angular grid pruning method      GridPruning ... 3 (G Style)
Weight generation scheme         WeightScheme... Becke
Basis function cutoff            BFCut       ...    1.0000e-10
Integration weight cutoff        WCut        ...    1.0000e-14
Grids for H and He will be reduced by one unit

# of grid points (after initial pruning)     ...   9664 (   0.0 sec)
# of grid points (after weights+screening)   ...   9664 (   0.0 sec)
Grid point division into batches done        ...    0.1 sec
Reduced shell lists constructed in    0.1 sec

Total number of grid points                  ...     9664
Total number of batches                      ...      152
Average number of points per batch           ...       63
Average number of grid points per atom       ...     9664
Average number of shells per batch           ...    13.38 (53.50%)
Average number of basis functions per batch  ...    36.62 (39.38%)
Average number of large shells per batch     ...     6.38 (47.66%)
Average number of large basis fcns per batch ...    19.88 (54.27%)
Maximum spatial batch extension              ...  27.95, 22.27, 22.27 au
Average spatial batch extension              ...   0.96,  0.88,  0.86 au

Time for grid setup =    0.123 sec

------------------------------
INITIAL GUESS: MODEL POTENTIAL
------------------------------
Loading Hartree-Fock densities                     ... done
Calculating cut-offs                               ... done
Setting up the integral package                    ... done
Initializing the effective Hamiltonian             ... done
Starting the Coulomb interaction                   ... done (   0.0 sec)
Reading the grid                                   ... done
Mapping shells                                     ... done
Starting the XC term evaluation                    ... done (   0.0 sec)
  promolecular density results
     # of electrons  =     22.000011254
     EX              =    -40.806311155
     EC              =     -0.884692446
     EX+EC           =    -41.691003601
Transforming the Hamiltonian                       ... done (   0.0 sec)
Diagonalizing the Hamiltonian                      ... done (   0.0 sec)
Back transforming the eigenvectors                 ... done (   0.0 sec)
Now organizing SCF variables                       ... done
                      ------------------
                      INITIAL GUESS DONE (   0.2 sec)
                      ------------------
--------------
SCF ITERATIONS
--------------
ITER       Energy         Delta-E        Max-DP      RMS-DP      [F,P]     Damp
               ***  Starting incremental Fock matrix formation  ***
  0   -849.3562717388   0.000000000000 0.01804328  0.00036439  0.0345303 0.7000
  1   -849.3586250672  -0.002353328438 0.02121464  0.00046622  0.0233851 0.7000
                               ***Turning on DIIS***
  2   -849.3607464681  -0.002121400859 0.07557833  0.00175260  0.0159439 0.0000
  3   -849.3671178584  -0.006371390302 0.02646214  0.00090615  0.0113310 0.0000
  4   -849.3683975136  -0.001279655157 0.02602475  0.00038273  0.0100167 0.0000
  5   -849.3694388127  -0.001041299147 0.02893689  0.00050653  0.0090236 0.0000
  6   -849.3704679396  -0.001029126917 0.02395982  0.00030011  0.0078919 0.0000
  7   -849.3711997475  -0.000731807826 0.02497997  0.00033135  0.0067269 0.0000
  8   -849.3718533018  -0.000653554337 0.01402367  0.00020181  0.0056240 0.0000
  9   -849.3721836449  -0.000330343122 0.02215685  0.00033762  0.0046502 0.0000
 10   -849.3725866679  -0.000403023015 0.01365089  0.00020606  0.0051318 0.0000
 11   -849.3728200936  -0.000233425637 0.01086734  0.00017492  0.0029540 0.0000
 12   -849.3729656142  -0.000145520679 0.00843404  0.00014116  0.0023609 0.0000
 13   -849.3730599271  -0.000094312893 0.00598315  0.00010493  0.0019138 0.0000
 14   -849.3731189542  -0.000059027081 0.00492716  0.00009023  0.0012320 0.0000
 15   -849.3731590314  -0.000040077161 0.01596190  0.00031641  0.0009924 0.0000
 16   -849.3732707417  -0.000111710338 0.00197679  0.00005104  0.0009542 0.0000
 17   -849.3732842264  -0.000013484727 0.00611961  0.00010492  0.0005810 0.0000
 18   -849.3733218858  -0.000037659361 0.00281403  0.00004904  0.0007461 0.0000
 19   -849.3733394828  -0.000017596975 0.00197527  0.00003756  0.0007257 0.0000
               *** Restarting incremental Fock matrix formation ***
                                   *** Resetting DIIS ***
 20   -849.3733513500  -0.000011867261 0.00889382  0.00016578  0.0007423 0.0000
 21   -849.3734123493  -0.000060999280 0.01286939  0.00020720  0.0003054 0.0000
 22   -849.3734951848  -0.000082835460 0.00210539  0.00006269  0.0010372 0.0000
 23   -849.3734764520   0.000018732784 0.00079026  0.00001921  0.0018002 0.0000
 24   -849.3734728159   0.000003636142 0.00037070  0.00000928  0.0015695 0.0000
 25   -849.3734719746   0.000000841230 0.00069585  0.00001944  0.0013771 0.0000
 26   -849.3734771175  -0.000005142896 0.00348595  0.00010562  0.0010610 0.0000
 27   -849.3735041461  -0.000027028609 0.00958114  0.00015490  0.0002685 0.0000
 28   -849.3735622554  -0.000058109318 0.00040525  0.00001198  0.0012871 0.0000
 29   -849.3735585900   0.000003665423 0.00016049  0.00000410  0.0014361 0.0000
 30   -849.3735577804   0.000000809619 0.00021102  0.00000533  0.0013847 0.0000
 31   -849.3735589265  -0.000001146099 0.00035689  0.00001057  0.0012875 0.0000
 32   -849.3735623298  -0.000003403263 0.00319886  0.00009061  0.0011506 0.0000
 33   -849.3735803015  -0.000017971717 0.00928905  0.00015429  0.0003436 0.0000
 34   -849.3736346655  -0.000054364064 0.00064315  0.00001842  0.0012726 0.0000
 35   -849.3736292618   0.000005403768 0.00030209  0.00000619  0.0015156 0.0000
 36   -849.3736275018   0.000001760000 0.00018579  0.00000462  0.0014656 0.0000
 37   -849.3736277099  -0.000000208125 0.00027629  0.00000739  0.0013646 0.0000
 38   -849.3736297486  -0.000002038693 0.00442524  0.00012213  0.0012350 0.0000
 39   -849.3736493174  -0.000019568787 0.00789990  0.00014500  0.0004618 0.0000
               *** Restarting incremental Fock matrix formation ***
                                   *** Resetting DIIS ***
 40   -849.3736925365  -0.000043219146 0.00506124  0.00014327  0.0012043 0.0000
 41   -849.3737046600  -0.000012123437 0.00686853  0.00015176  0.0007643 0.0000
 42   -849.3737399151  -0.000035255084 0.00093571  0.00002547  0.0010777 0.0000
 43   -849.3737455341  -0.000005619019 0.00607509  0.00011378  0.0007168 0.0000
 44   -849.3737763446  -0.000030810575 0.00090432  0.00001749  0.0009602 0.0000
 45   -849.3737809125  -0.000004567876 0.00154043  0.00003062  0.0009136 0.0000
 46   -849.3737730554   0.000007857075 0.00257100  0.00006555  0.0009325 0.0000
 47   -849.3737869304  -0.000013874962 0.00608413  0.00011765  0.0004653 0.0000
 48   -849.3738143741  -0.000027443669 0.01121656  0.00021432  0.0007767 0.0000
 49   -849.3738543612  -0.000039987162 0.02286097  0.00040978  0.0004343 0.0000
 50   -849.3738883646  -0.000034003336 0.00173181  0.00003333  0.0001236 0.0000
 51   -849.3738904028  -0.000002038225 0.00488647  0.00008134  0.0002802 0.0000
 52   -849.3738894865   0.000000916294 0.00229715  0.00005732  0.0000838 0.0000
 53   -849.3738924633  -0.000002976797 0.00200800  0.00003363  0.0000814 0.0000
 54   -849.3738940131  -0.000001549759 0.00170224  0.00002784  0.0000629 0.0000
 55   -849.3738950652  -0.000001052102 0.00299207  0.00004903  0.0000503 0.0000
 56   -849.3738963374  -0.000001272246 0.00328736  0.00005192  0.0000333 0.0000
                 **** Energy Check signals convergence ****

               *****************************************************
               *                     SUCCESS                       *
               *           SCF CONVERGED AFTER  57 CYCLES          *
               *****************************************************


----------------
TOTAL SCF ENERGY
----------------

Total Energy       :         -849.37389688 Eh          -23112.63876 eV

Components:
Nuclear Repulsion  :            0.00000000 Eh               0.00000 eV
Electronic Energy  :         -849.37389688 Eh          -23112.63876 eV
One Electron Energy:        -1163.39612572 Eh          -31657.61802 eV
Two Electron Energy:          314.02222883 Eh            8544.97926 eV

Virial components:
Potential Energy   :        -1697.50594497 Eh          -46191.48509 eV
Kinetic Energy     :          848.13204808 Eh           23078.84633 eV
Virial Ratio       :            2.00146422


DFT components:
N(Alpha)           :       11.999996162473 electrons
N(Beta)            :        9.999995486285 electrons
N(Total)           :       21.999991648758 electrons
E(X)               :      -37.046888309113 Eh       
E(C)               :       -0.880083379581 Eh       
E(XC)              :      -37.926971688694 Eh       
DFET-embed. en.    :        0.000000000000 Eh       

---------------
SCF CONVERGENCE
---------------

  Last Energy change         ...   -5.4729e-07  Tolerance :   1.0000e-06
  Last MAX-Density change    ...    9.9122e-04  Tolerance :   1.0000e-05
  Last RMS-Density change    ...    1.5613e-05  Tolerance :   1.0000e-06
  Last DIIS Error            ...    1.0938e-05  Tolerance :   1.0000e-06

             **** THE GBW FILE WAS UPDATED (62_Ti.gbw) ****
             **** DENSITY FILE WAS UPDATED (62_Ti.scfp) ****
             **** ENERGY FILE WAS UPDATED (62_Ti.en.tmp) ****
----------------------
UHF SPIN CONTAMINATION
----------------------

Warning: in a DFT calculation there is little theoretical justification to 
         calculate <S**2> as in Hartree-Fock theory. We will do it anyways
         but you should keep in mind that the values have only limited relevance

Expectation value of <S**2>     :     2.283015
Ideal value S*(S+1) for S=1.0   :     2.000000
Deviation                       :     0.283015

             **** THE GBW FILE WAS UPDATED (62_Ti.gbw) ****
             **** DENSITY FILE WAS UPDATED (62_Ti.scfp) ****
----------------
ORBITAL ENERGIES
----------------
                 SPIN UP ORBITALS
  NO   OCC          E(Eh)            E(eV) 
   0   1.0000    -178.672587     -4861.9283 
   1   1.0000     -19.762905      -537.7760 
   2   1.0000     -16.454844      -447.7591 
   3   1.0000     -16.454666      -447.7542 
   4   1.0000     -16.454657      -447.7540 
   5   1.0000      -2.359869       -64.2153 
   6   1.0000      -1.477153       -40.1954 
   7   1.0000      -1.477124       -40.1946 
   8   1.0000      -1.476814       -40.1861 
   9   1.0000      -0.210817        -5.7366 
  10   1.0000      -0.210796        -5.7360 
  11   1.0000      -0.173702        -4.7267 
  12   0.0000      -0.102859        -2.7989 
  13   0.0000      -0.102841        -2.7985 
  14   0.0000      -0.100954        -2.7471 
  15   0.0000      -0.049477        -1.3463 
  16   0.0000      -0.049457        -1.3458 
  17   0.0000      -0.037569        -1.0223 
  18   0.0000       0.004586         0.1248 
  19   0.0000       0.022204         0.6042 
  20   0.0000       0.022206         0.6043 
  21   0.0000       0.024958         0.6792 
  22   0.0000       0.030440         0.8283 
  23   0.0000       0.030473         0.8292 
  24   0.0000       0.032334         0.8799 
  25   0.0000       0.032392         0.8814 
  26   0.0000       0.033333         0.9070 
  27   0.0000       0.087274         2.3749 
  28   0.0000       0.121339         3.3018 
  29   0.0000       0.121358         3.3023 
  30   0.0000       0.122626         3.3368 
  31   0.0000       0.122635         3.3371 
  32   0.0000       0.129421         3.5217 
  33   0.0000       0.129463         3.5229 
  34   0.0000       0.129668         3.5284 
  35   0.0000       0.131841         3.5876 
  36   0.0000       0.232924         6.3382 
  37   0.0000       0.233239         6.3468 
  38   0.0000       0.235476         6.4076 
  39   0.0000       0.235479         6.4077 
  40   0.0000       0.239993         6.5305 
  41   0.0000       0.240006         6.5309 
  42   0.0000       0.242513         6.5991 
  43   0.0000       0.369466        10.0537 
  44   0.0000       0.488868        13.3028 
  45   0.0000       0.488881        13.3031 
  46   0.0000       0.503511        13.7012 
  47   0.0000       0.503524        13.7016 
  48   0.0000       0.513202        13.9649 
  49   0.0000       0.513236        13.9659 
  50   0.0000       0.514403        13.9976 
  51   0.0000       0.519276        14.1302 
  52   0.0000       0.879418        23.9302 
  53   0.0000       0.879423        23.9303 
  54   0.0000       0.879500        23.9324 
  55   0.0000       0.880294        23.9540 
  56   0.0000       0.884477        24.0678 
  57   0.0000       0.884482        24.0680 
  58   0.0000       0.890844        24.2411 
  59   0.0000       0.891989        24.2722 
  60   0.0000       0.892009        24.2728 
  61   0.0000       0.894881        24.3509 
  62   0.0000       0.894892        24.3512 
  63   0.0000       0.896008        24.3816 
  64   0.0000       0.896397        24.3922 
  65   0.0000       0.911878        24.8135 
  66   0.0000       0.911907        24.8143 
  67   0.0000       0.929967        25.3057 
  68   0.0000       1.828398        49.7532 
  69   0.0000       1.828405        49.7534 
  70   0.0000       1.834880        49.9296 
  71   0.0000       1.921457        52.2855 
  72   0.0000       2.037741        55.4498 
  73   0.0000       2.037755        55.4501 
  74   0.0000       2.073970        56.4356 
  75   0.0000       2.073979        56.4358 
  76   0.0000       2.074240        56.4429 
  77   0.0000       3.196864        86.9911 
  78   0.0000       3.197210        87.0005 
  79   0.0000       3.197217        87.0007 
  80   0.0000       3.201115        87.1068 
  81   0.0000       3.205684        87.2311 
  82   0.0000       3.205692        87.2313 
  83   0.0000       3.221406        87.6589 
  84   0.0000       3.221412        87.6591 
  85   0.0000       3.226506        87.7977 
  86   0.0000       3.368043        91.6491 
  87   0.0000       3.370312        91.7108 
  88   0.0000       3.370321        91.7111 
  89   0.0000       3.384232        92.0896 
  90   0.0000       3.386529        92.1521 
  91   0.0000       3.386534        92.1523 
  92   0.0000       3.407182        92.7141 

                 SPIN DOWN ORBITALS
  NO   OCC          E(Eh)            E(eV) 
   0   1.0000    -178.672454     -4861.9247 
   1   1.0000     -19.742700      -537.2262 
   2   1.0000     -16.440007      -447.3553 
   3   1.0000     -16.436825      -447.2687 
   4   1.0000     -16.436813      -447.2684 
   5   1.0000      -2.294577       -62.4386 
   6   1.0000      -1.411628       -38.4124 
   7   1.0000      -1.406851       -38.2824 
   8   1.0000      -1.406833       -38.2819 
   9   1.0000      -0.155687        -4.2365 
  10   0.0000      -0.087401        -2.3783 
  11   0.0000      -0.079556        -2.1648 
  12   0.0000      -0.079536        -2.1643 
  13   0.0000      -0.054254        -1.4763 
  14   0.0000      -0.054245        -1.4761 
  15   0.0000      -0.045972        -1.2510 
  16   0.0000      -0.030943        -0.8420 
  17   0.0000      -0.030904        -0.8409 
  18   0.0000       0.005423         0.1476 
  19   0.0000       0.021844         0.5944 
  20   0.0000       0.025405         0.6913 
  21   0.0000       0.025417         0.6916 
  22   0.0000       0.031278         0.8511 
  23   0.0000       0.032067         0.8726 
  24   0.0000       0.032104         0.8736 
  25   0.0000       0.033575         0.9136 
  26   0.0000       0.033602         0.9144 
  27   0.0000       0.093373         2.5408 
  28   0.0000       0.126278         3.4362 
  29   0.0000       0.131539         3.5793 
  30   0.0000       0.134415         3.6576 
  31   0.0000       0.134438         3.6582 
  32   0.0000       0.135176         3.6783 
  33   0.0000       0.135202         3.6790 
  34   0.0000       0.141346         3.8462 
  35   0.0000       0.141364         3.8467 
  36   0.0000       0.239950         6.5294 
  37   0.0000       0.241246         6.5646 
  38   0.0000       0.241271         6.5653 
  39   0.0000       0.245121         6.6701 
  40   0.0000       0.245124         6.6702 
  41   0.0000       0.251533         6.8446 
  42   0.0000       0.251823         6.8525 
  43   0.0000       0.390377        10.6227 
  44   0.0000       0.521227        14.1833 
  45   0.0000       0.522979        14.2310 
  46   0.0000       0.528249        14.3744 
  47   0.0000       0.528290        14.3755 
  48   0.0000       0.540287        14.7020 
  49   0.0000       0.540321        14.7029 
  50   0.0000       0.543501        14.7894 
  51   0.0000       0.543513        14.7897 
  52   0.0000       0.901536        24.5321 
  53   0.0000       0.902450        24.5569 
  54   0.0000       0.902482        24.5578 
  55   0.0000       0.906919        24.6785 
  56   0.0000       0.906928        24.6788 
  57   0.0000       0.912050        24.8181 
  58   0.0000       0.913078        24.8461 
  59   0.0000       0.919900        25.0318 
  60   0.0000       0.919902        25.0318 
  61   0.0000       0.929456        25.2918 
  62   0.0000       0.934894        25.4398 
  63   0.0000       0.934936        25.4409 
  64   0.0000       0.946234        25.7483 
  65   0.0000       0.946239        25.7485 
  66   0.0000       0.951815        25.9002 
  67   0.0000       0.952456        25.9177 
  68   0.0000       1.867183        50.8086 
  69   0.0000       1.874118        50.9973 
  70   0.0000       1.874154        50.9983 
  71   0.0000       1.965057        53.4719 
  72   0.0000       2.096854        57.0583 
  73   0.0000       2.100766        57.1648 
  74   0.0000       2.100769        57.1648 
  75   0.0000       2.120852        57.7113 
  76   0.0000       2.120865        57.7117 
  77   0.0000       3.237139        88.0870 
  78   0.0000       3.238902        88.1350 
  79   0.0000       3.238919        88.1355 
  80   0.0000       3.248368        88.3926 
  81   0.0000       3.248370        88.3926 
  82   0.0000       3.251927        88.4894 
  83   0.0000       3.251932        88.4896 
  84   0.0000       3.253229        88.5249 
  85   0.0000       3.256066        88.6021 
  86   0.0000       3.412438        92.8572 
  87   0.0000       3.432853        93.4127 
  88   0.0000       3.432868        93.4131 
  89   0.0000       3.437622        93.5425 
  90   0.0000       3.451530        93.9209 
  91   0.0000       3.451534        93.9210 
  92   0.0000       3.454712        94.0075 

                    ********************************
                    * MULLIKEN POPULATION ANALYSIS *
                    ********************************

--------------------------------------------
MULLIKEN ATOMIC CHARGES AND SPIN POPULATIONS
--------------------------------------------
   0 Ti:   -0.000000    2.000000
Sum of atomic charges         :   -0.0000000
Sum of atomic spin populations:    2.0000000

-----------------------------------------------------
MULLIKEN REDUCED ORBITAL CHARGES AND SPIN POPULATIONS
-----------------------------------------------------
CHARGE
  0 Tis       :     7.845810  s :     7.845810
      pz      :     3.999851  p :    11.999591
      px      :     3.999873
      py      :     3.999866
      dz2     :     0.552673  d :     2.153796
      dxz     :     0.128581
      dyz     :     0.541226
      dx2y2   :     0.080403
      dxy     :     0.850913
      f0      :     0.000049  f :     0.000409
      f+1     :     0.000037
      f-1     :     0.000113
      f+2     :     0.000024
      f-2     :     0.000056
      f+3     :     0.000041
      f-3     :     0.000089
      g0      :     0.000018  g :     0.000394
      g+1     :     0.000033
      g-1     :     0.000104
      g+2     :     0.000052
      g-2     :     0.000036
      g+3     :     0.000014
      g-3     :     0.000040
      g+4     :     0.000079
      g-4     :     0.000018

SPIN
  0 Tis       :     0.040592  s :     0.040592
      pz      :    -0.000069  p :    -0.000221
      px      :    -0.000077
      py      :    -0.000075
      dz2     :     0.480218  d :     1.959132
      dxz     :     0.121439
      dyz     :     0.435916
      dx2y2   :     0.072929
      dxy     :     0.848629
      f0      :     0.000028  f :     0.000221
      f+1     :     0.000021
      f-1     :     0.000046
      f+2     :     0.000013
      f-2     :     0.000033
      f+3     :     0.000026
      f-3     :     0.000054
      g0      :     0.000016  g :     0.000276
      g+1     :     0.000033
      g-1     :     0.000041
      g+2     :     0.000049
      g-2     :     0.000028
      g+3     :     0.000012
      g-3     :     0.000024
      g+4     :     0.000059
      g-4     :     0.000014


                     *******************************
                     * LOEWDIN POPULATION ANALYSIS *
                     *******************************

-------------------------------------------
LOEWDIN ATOMIC CHARGES AND SPIN POPULATIONS
-------------------------------------------
   0 Ti:   -0.000000    2.000000

----------------------------------------------------
LOEWDIN REDUCED ORBITAL CHARGES AND SPIN POPULATIONS
----------------------------------------------------
CHARGE
  0 Tis       :     7.845810  s :     7.845810
      pz      :     3.999851  p :    11.999591
      px      :     3.999873
      py      :     3.999866
      dz2     :     0.552673  d :     2.153796
      dxz     :     0.128581
      dyz     :     0.541226
      dx2y2   :     0.080403
      dxy     :     0.850913
      f0      :     0.000049  f :     0.000409
      f+1     :     0.000037
      f-1     :     0.000113
      f+2     :     0.000024
      f-2     :     0.000056
      f+3     :     0.000041
      f-3     :     0.000089
      g0      :     0.000018  g :     0.000394
      g+1     :     0.000033
      g-1     :     0.000104
      g+2     :     0.000052
      g-2     :     0.000036
      g+3     :     0.000014
      g-3     :     0.000040
      g+4     :     0.000079
      g-4     :     0.000018

SPIN
  0 Tis       :     0.040592  s :     0.040592
      pz      :    -0.000069  p :    -0.000221
      px      :    -0.000077
      py      :    -0.000075
      dz2     :     0.480218  d :     1.959132
      dxz     :     0.121439
      dyz     :     0.435916
      dx2y2   :     0.072929
      dxy     :     0.848629
      f0      :     0.000028  f :     0.000221
      f+1     :     0.000021
      f-1     :     0.000046
      f+2     :     0.000013
      f-2     :     0.000033
      f+3     :     0.000026
      f-3     :     0.000054
      g0      :     0.000016  g :     0.000276
      g+1     :     0.000033
      g-1     :     0.000041
      g+2     :     0.000049
      g-2     :     0.000028
      g+3     :     0.000012
      g-3     :     0.000024
      g+4     :     0.000059
      g-4     :     0.000014


                      *****************************
                      * MAYER POPULATION ANALYSIS *
                      *****************************

  NA   - Mulliken gross atomic population
  ZA   - Total nuclear charge
  QA   - Mulliken gross atomic charge
  VA   - Mayer's total valence
  BVA  - Mayer's bonded valence
  FA   - Mayer's free valence

  ATOM       NA         ZA         QA         VA         BVA        FA
  0 Ti    22.0000    22.0000    -0.0000     2.5660     0.0000     2.5660

  Mayer bond orders larger than 0.100000


-------
TIMINGS
-------

Total SCF time: 0 days 0 hours 4 min 54 sec 

Total time                  ....     294.826 sec
Sum of individual times     ....     294.456 sec  ( 99.9%)

Fock matrix formation       ....     294.007 sec  ( 99.7%)
  XC integration            ....       1.029 sec  (  0.4% of F)
    Basis function eval.    ....       0.162 sec  ( 15.8% of XC)
    Density eval.           ....       0.134 sec  ( 13.0% of XC)
    XC-Functional eval.     ....       0.051 sec  (  4.9% of XC)
    XC-Potential eval.      ....       0.329 sec  ( 32.0% of XC)
Diagonalization             ....       0.132 sec  (  0.0%)
Density matrix formation    ....       0.023 sec  (  0.0%)
Population analysis         ....       0.004 sec  (  0.0%)
Initial guess               ....       0.107 sec  (  0.0%)
Orbital Transformation      ....       0.000 sec  (  0.0%)
Orbital Orthonormalization  ....       0.000 sec  (  0.0%)
DIIS solution               ....       0.059 sec  (  0.0%)
Grid generation             ....       0.123 sec  (  0.0%)


-------------------------------------------------------------------------------
                          DFT DISPERSION CORRECTION                            
                                                                               
                              DFTD3 V3.1  Rev 1                                
                          USING Becke-Johnson damping                          
-------------------------------------------------------------------------------
The TPSSH functional is recognized
Active option DFTDOPT                   ...         4   

molecular C6(AA) [au] = 1361.916215 


            DFT-D V3
 parameters
 s6 scaling factor         :     1.0000 
 a1 scaling factor         :     0.4529 
 s8 scaling factor         :     2.2382 
 a2 scaling factor         :     4.6550 
 ad hoc parameters k1-k3   :    16.0000     1.3333    -4.0000 

 Edisp/kcal,au: -0.000000000000  -0.000000000000 
 E6   /kcal   :  -0.000000000 
 E8   /kcal   :  -0.000000000 
 % E8         :          -nan 

-------------------------   ----------------
Dispersion correction            0.000000000
-------------------------   ----------------


-------------------------   --------------------
FINAL SINGLE POINT ENERGY      -849.373896884704
-------------------------   --------------------


                            ***************************************
                            *     ORCA property calculations      *
                            ***************************************

                                    ---------------------
                                    Active property flags
                                    ---------------------
   (+) Dipole Moment


------------------------------------------------------------------------------
                       ORCA ELECTRIC PROPERTIES CALCULATION
------------------------------------------------------------------------------

Dipole Moment Calculation                       ... on
Quadrupole Moment Calculation                   ... off
Polarizability Calculation                      ... off
GBWName                                         ... 62_Ti.gbw
Electron density file                           ... 62_Ti.scfp
The origin for moment calculation is the CENTER OF MASS  = ( 0.000000,  0.000000  0.000000)

-------------
DIPOLE MOMENT
-------------
                                X             Y             Z
Electronic contribution:     -0.00000      -0.00000       0.00000
Nuclear contribution   :      0.00000       0.00000       0.00000
                        -----------------------------------------
Total Dipole Moment    :     -0.00000      -0.00000       0.00000
                        -----------------------------------------
Magnitude (a.u.)       :      0.00000
Magnitude (Debye)      :      0.00000



--------------------
Rotational spectrum 
--------------------
 
Rotational constants in cm-1:     0.000000     0.000000     0.000000 
Rotational constants in MHz :     0.000000     0.000000     0.000000 

 Dipole components along the rotational axes: 
x,y,z [a.u.] :    -0.000000    -0.000000     0.000000 
x,y,z [Debye]:    -0.000000    -0.000000     0.000001 

 

Timings for individual modules:

Sum of individual times         ...      298.411 sec (=   4.974 min)
GTO integral calculation        ...        3.135 sec (=   0.052 min)   1.1 %
SCF iterations                  ...      295.276 sec (=   4.921 min)  98.9 %
                             ****ORCA TERMINATED NORMALLY****
TOTAL RUN TIME: 0 days 0 hours 4 minutes 59 seconds 51 msec
