
                                 *****************
                                 * O   R   C   A *
                                 *****************

           --- An Ab Initio, DFT and Semiempirical electronic structure package ---

                  #######################################################
                  #                        -***-                        #
                  #          Department of theory and spectroscopy      #
                  #               Directorship: Frank Neese             #
                  #        Max Planck Institute fuer Kohlenforschung    #
                  #                Kaiser Wilhelm Platz 1               #
                  #                 D-45470 Muelheim/Ruhr               #
                  #                      Germany                        #
                  #                                                     #
                  #                  All rights reserved                #
                  #                        -***-                        #
                  #######################################################


                         Program Version 4.2.0 -  RELEASE  -


 With contributions from (in alphabetic order):
   Daniel Aravena         : Magnetic Suceptibility
   Michael Atanasov       : Ab Initio Ligand Field Theory (pilot matlab implementation)
   Alexander A. Auer      : GIAO ZORA, VPT2
   Ute Becker             : Parallelization
   Giovanni Bistoni       : ED, misc. LED, open-shell LED, HFLED
   Martin Brehm           : Molecular dynamics
   Dmytro Bykov           : SCF Hessian
   Vijay G. Chilkuri      : MRCI spin determinant printing, contributions to CSF-ICE
   Dipayan Datta          : RHF DLPNO-CCSD density
   Achintya Kumar Dutta   : EOM-CC, STEOM-CC
   Dmitry Ganyushin       : Spin-Orbit,Spin-Spin,Magnetic field MRCI
   Miquel Garcia          : C-PCM Hessian, Gaussian charge scheme
   Yang Guo               : DLPNO-NEVPT2, CIM, IAO-localization
   Andreas Hansen         : Spin unrestricted coupled pair/coupled cluster methods
   Benjamin Helmich-Paris : CASSCF linear response (MC-RPA)
   Lee Huntington         : MR-EOM, pCC
   Robert Izsak           : Overlap fitted RIJCOSX, COSX-SCS-MP3, EOM
   Christian Kollmar      : KDIIS, OOCD, Brueckner-CCSD(T), CCSD density
   Simone Kossmann        : Meta GGA functionals, TD-DFT gradient, OOMP2, MP2 Hessian
   Martin Krupicka        : AUTO-CI
   Lucas Lang             : DCDCAS
   Dagmar Lenk            : GEPOL surface, SMD
   Dimitrios Liakos       : Extrapolation schemes; Compound Job, initial MDCI parallelization
   Dimitrios Manganas     : Further ROCIS development; embedding schemes
   Dimitrios Pantazis     : SARC Basis sets
   Taras Petrenko         : DFT Hessian,TD-DFT gradient, ASA, ECA, R-Raman, ABS, FL, XAS/XES, NRVS
   Peter Pinski           : DLPNO-MP2, DLPNO-MP2 Gradient
   Christoph Reimann      : Effective Core Potentials
   Marius Retegan         : Local ZFS, SOC
   Christoph Riplinger    : Optimizer, TS searches, QM/MM, DLPNO-CCSD(T), (RO)-DLPNO pert. Triples
   Tobias Risthaus        : Range-separated hybrids, TD-DFT gradient, RPA, STAB
   Michael Roemelt        : Original ROCIS implementation
   Masaaki Saitow         : Open-shell DLPNO-CCSD energy and density
   Barbara Sandhoefer     : DKH picture change effects
   Avijit Sen             : IP-ROCIS
   Kantharuban Sivalingam : CASSCF convergence, NEVPT2, FIC-MRCI
   Bernardo de Souza      : ESD, SOC TD-DFT
   Georgi Stoychev        : AutoAux, RI-MP2 NMR
   Willem Van den Heuvel  : Paramagnetic NMR
   Boris Wezisla          : Elementary symmetry handling
   Frank Wennmohs         : Technical directorship


 We gratefully acknowledge several colleagues who have allowed us to
 interface, adapt or use parts of their codes:
   Stefan Grimme, W. Hujo, H. Kruse,             : VdW corrections, initial TS optimization,
                  C. Bannwarth                     DFT functionals, gCP, sTDA/sTD-DF
   Ed Valeev, F. Pavosevic, A. Kumar             : LibInt (2-el integral package), F12 methods
   Garnet Chan, S. Sharma, J. Yang, R. Olivares  : DMRG
   Ulf Ekstrom                                   : XCFun DFT Library
   Mihaly Kallay                                 : mrcc  (arbitrary order and MRCC methods)
   Andreas Klamt, Michael Diedenhofen            : otool_cosmo (COSMO solvation model)
   Jiri Pittner, Ondrej Demel                    : Mk-CCSD
   Frank Weinhold                                : gennbo (NPA and NBO analysis)
   Christopher J. Cramer and Donald G. Truhlar   : smd solvation model
   Lars Goerigk                                  : TD-DFT with DH, B97 family of functionals
   V. Asgeirsson, H. Jonsson                     : NEB implementation
   FAccTs GmbH                                   : IRC, NEB, NEB-TS, Multilevel, MM, QM/MM, CI optimization
   S Lehtola, MJT Oliveira, MAL Marques          : LibXC Library


 Your calculation uses the libint2 library for the computation of 2-el integrals
 For citations please refer to: http://libint.valeyev.net

 Your ORCA version has been built with support for libXC version: 4.2.3
 For citations please refer to: https://tddft.org/programs/libxc/

 This ORCA versions uses:
   CBLAS   interface :  Fast vector & matrix operations
   LAPACKE interface :  Fast linear algebra routines
   SCALAPACK package :  Parallel linear algebra routines


Your calculation utilizes the atom-pairwise dispersion correction
with the Becke-Johnson damping scheme (D3BJ)
Cite in your paper:
S.Grimme, S.Ehrlich, L.Goerigk, J Comput Chem, (2011), 32, 1456–1465 
S.Grimme, J.Antony, S.Ehrlich and H.Krieg, J.Chem.Phys., 132, (2010), 154104 
   

----- Orbital basis set information -----
Your calculation utilizes the basis: aug-cc-pVTZ 
    H, B-Ne : Obtained from the ccRepo (grant-hill.group.shef.ac.uk/ccrepo) Feb. 2017
              R. A. Kendall, T. H. Dunning, Jr., R. J. Harrison, J. Chem. Phys. 96, 6796 (1992)
         He : Obtained from the ccRepo (grant-hill.group.shef.ac.uk/ccrepo) Feb. 2017
              D. E. Woon, T. H. Dunning, Jr., J. Chem. Phys. 100, 2975 (1994)
  Li-Be, Na : Obtained from the ccRepo (grant-hill.group.shef.ac.uk/ccrepo) Feb. 2017
              B. P. Prascher, D. E. Woon, K. A. Peterson, T. H. Dunning, Jr., A. K. Wilson, Theor. Chem. Acc. 128, 69 (2011)
         Mg : Obtained from the Peterson Research Group Website (tyr0.chem.wsu.edu/~kipeters) Feb. 2017
              B. P. Prascher, D. E. Woon, K. A. Peterson, T. H. Dunning, Jr., A. K. Wilson, Theor. Chem. Acc. 128, 69 (2011)
      Al-Ar : Obtained from the ccRepo (grant-hill.group.shef.ac.uk/ccrepo) Feb. 2017
              D. E. Woon, T. H. Dunning, Jr., J. Chem. Phys. 98, 1358 (1993)
      Sc-Zn : Obtained from the ccRepo (grant-hill.group.shef.ac.uk/ccrepo) Feb. 2017
              N. B. Balabanov, K. A. Peterson, J. Chem. Phys. 123, 064107 (2005)
              N. B. Balabanov, K. A. Peterson, J. Chem. Phys. 125, 074110 (2006)
      Ga-Kr : Obtained from the ccRepo (grant-hill.group.shef.ac.uk/ccrepo) Feb. 2017
              A. K. Wilson, D. E. Woon, K. A. Peterson, T. H. Dunning, Jr., J. Chem. Phys. 110, 7667 (1999)
     Ag, Au : Obtained from the Peterson Research Group Website (tyr0.chem.wsu.edu/~kipeters) Feb. 2017
              K. A. Peterson, C. Puzzarini, Theor. Chem. Acc. 114, 283 (2005)

----- AuxJK basis set information -----
Your calculation utilizes the auxiliary basis: def2/JK
   H-Ba, Hf-Rn: F. Weigend, J. Comput. Chem. 29, 167 (2008).

================================================================================
                                        WARNINGS
                       Please study these warnings very carefully!
================================================================================


WARNING: your system is open-shell and RHF/RKS was chosen
  ===> : WILL SWITCH to UHF/UKS


INFO   : the flag for use of LIBINT has been found!

================================================================================
                                       INPUT FILE
================================================================================
NAME = 73_Cl.in
|  1> #
|  2> # 73_Cl tpssh/aug-cc-pvtz
|  3> #
|  4> ! tpssh d3bj aug-cc-pvtz def2/jk grid4 nofinalgrid
|  5> 
|  6> *xyz 0 2
|  7> Cl 0.0 0.0 0.0
|  8> *
|  9> 
| 10> %pal
| 11> nprocs 24
| 12> end
| 13> 
| 14> 
| 15>                          ****END OF INPUT****
================================================================================

                       ****************************
                       * Single Point Calculation *
                       ****************************

---------------------------------
CARTESIAN COORDINATES (ANGSTROEM)
---------------------------------
  Cl     0.000000    0.000000    0.000000

----------------------------
CARTESIAN COORDINATES (A.U.)
----------------------------
  NO LB      ZA    FRAG     MASS         X           Y           Z
   0 Cl   17.0000    0    35.453    0.000000    0.000000    0.000000

--------------------------------
INTERNAL COORDINATES (ANGSTROEM)
--------------------------------
 Cl     0   0   0     0.000000000000     0.00000000     0.00000000

---------------------------
INTERNAL COORDINATES (A.U.)
---------------------------
 Cl     0   0   0     0.000000000000     0.00000000     0.00000000

---------------------
BASIS SET INFORMATION
---------------------
There are 1 groups of distinct atoms

 Group   1 Type Cl  : 42s17p3d2f contracted to 6s5p3d2f pattern {131313111/77111/111/11}

Atom   0Cl   basis set group =>   1
----------------------------------
AUXILIARY/JK BASIS SET INFORMATION
----------------------------------
There are 1 groups of distinct atoms

 Group   1 Type Cl  : 16s12p10d4f1g contracted to 13s11p9d4f1g pattern {4111111111111/21111111111/211111111/1111/1}

Atom   0Cl   basis set group =>   1


           ************************************************************
           *        Program running with 24 parallel MPI-processes    *
           *              working on a common directory               *
           ************************************************************
------------------------------------------------------------------------------
                           ORCA GTO INTEGRAL CALCULATION
------------------------------------------------------------------------------

                         BASIS SET STATISTICS AND STARTUP INFO

 # of primitive gaussian shells          ...   64
 # of primitive gaussian functions       ...  122
 # of contracted shells                  ...   16
 # of contracted basis functions         ...   50
 Highest angular momentum                ...    3
 Maximum contraction depth               ...   13
 Integral package used                   ... LIBINT
 Integral threshhold            Thresh   ...  1.000e-10
 Primitive cut-off              TCut     ...  1.000e-11


------------------------------ INTEGRAL EVALUATION ----------------------------


 * One electron integrals 
 Pre-screening matrix                    ... done
 Shell pair data                         ... done (   0.000 sec)



           ************************************************************
           *        Program running with 24 parallel MPI-processes    *
           *              working on a common directory               *
           ************************************************************
-------------------------------------------------------------------------------
                                 ORCA SCF
-------------------------------------------------------------------------------

------------
SCF SETTINGS
------------
Hamiltonian:
 Density Functional     Method          .... DFT(GTOs)
 Exchange Functional    Exchange        .... TPSS
 Correlation Functional Correlation     .... TPSS
 LDA part of GGA corr.  LDAOpt          .... PW91-LDA
 Gradients option       PostSCFGGA      .... off
 Hybrid DFT is turned on
   Fraction HF Exchange ScalHFX         ....  0.100000
   Scaling of DF-GGA-X  ScalDFX         ....  0.900000
   Scaling of DF-GGA-C  ScalDFC         ....  1.000000
   Scaling of DF-LDA-C  ScalLDAC        ....  1.000000
   Perturbative correction              ....  0.000000
   Density functional embedding theory  .... OFF
   NL short-range parameter             ....  5.200000


General Settings:
 Integral files         IntName         .... 73_Cl
 Hartree-Fock type      HFTyp           .... UHF
 Total Charge           Charge          ....    0
 Multiplicity           Mult            ....    2
 Number of Electrons    NEL             ....   17
 Basis Dimension        Dim             ....   50
 Nuclear Repulsion      ENuc            ....      0.0000000000 Eh

Convergence Acceleration:
 DIIS                   CNVDIIS         .... on
   Start iteration      DIISMaxIt       ....    12
   Startup error        DIISStart       ....  0.200000
   # of expansion vecs  DIISMaxEq       ....     5
   Bias factor          DIISBfac        ....   1.050
   Max. coefficient     DIISMaxC        ....  10.000
 Newton-Raphson         CNVNR           .... off
 SOSCF                  CNVSOSCF        .... off
 Level Shifting         CNVShift        .... on
   Level shift para.    LevelShift      ....    0.2500
   Turn off err/grad.   ShiftErr        ....    0.0010
 Zerner damping         CNVZerner       .... off
 Static damping         CNVDamp         .... on
   Fraction old density DampFac         ....    0.7000
   Max. Damping (<1)    DampMax         ....    0.9800
   Min. Damping (>=0)   DampMin         ....    0.0000
   Turn off err/grad.   DampErr         ....    0.1000
 Fernandez-Rico         CNVRico         .... off

SCF Procedure:
 Maximum # iterations   MaxIter         ....   125
 SCF integral mode      SCFMode         .... Direct
   Integral package                     .... LIBINT
 Reset frequency        DirectResetFreq ....    20
 Integral Threshold     Thresh          ....  1.000e-10 Eh
 Primitive CutOff       TCut            ....  1.000e-11 Eh

Convergence Tolerance:
 Convergence Check Mode ConvCheckMode   .... Total+1el-Energy
 Convergence forced     ConvForced      .... 0
 Energy Change          TolE            ....  1.000e-06 Eh
 1-El. energy change                    ....  1.000e-03 Eh
 DIIS Error             TolErr          ....  1.000e-06


Diagonalization of the overlap matrix:
Smallest eigenvalue                        ... 1.225e-02
Time for diagonalization                   ...    0.002 sec
Threshold for overlap eigenvalues          ... 1.000e-08
Number of eigenvalues below threshold      ... 0
Time for construction of square roots      ...    0.001 sec
Total time needed                          ...    0.003 sec

-------------------
DFT GRID GENERATION
-------------------

General Integration Accuracy     IntAcc      ...  4.670
Radial Grid Type                 RadialGrid  ... Gauss-Chebyshev
Angular Grid (max. acc.)         AngularGrid ... Lebedev-302
Angular grid pruning method      GridPruning ... 3 (G Style)
Weight generation scheme         WeightScheme... Becke
Basis function cutoff            BFCut       ...    1.0000e-10
Integration weight cutoff        WCut        ...    1.0000e-14
Grids for H and He will be reduced by one unit

# of grid points (after initial pruning)     ...   6738 (   0.0 sec)
# of grid points (after weights+screening)   ...   6738 (   0.0 sec)
Grid point division into batches done        ...    0.0 sec
Reduced shell lists constructed in    0.0 sec

Total number of grid points                  ...     6738
Total number of batches                      ...      106
Average number of points per batch           ...       63
Average number of grid points per atom       ...     6738
Average number of shells per batch           ...     3.33 (20.83%)
Average number of basis functions per batch  ...    10.00 (20.00%)
Average number of large shells per batch     ...     1.67 (50.00%)
Average number of large basis fcns per batch ...     3.33 (33.33%)
Maximum spatial batch extension              ...  17.78, 17.78, 17.78 au
Average spatial batch extension              ...   0.72,  0.72,  0.74 au

Time for grid setup =    0.059 sec

------------------------------
INITIAL GUESS: MODEL POTENTIAL
------------------------------
Loading Hartree-Fock densities                     ... done
Calculating cut-offs                               ... done
Setting up the integral package                    ... done
Initializing the effective Hamiltonian             ... done
Starting the Coulomb interaction                   ... done (   0.0 sec)
Reading the grid                                   ... done
Mapping shells                                     ... done
Starting the XC term evaluation                    ... done (   0.0 sec)
  promolecular density results
     # of electrons  =     17.000000665
     EX              =    -27.332812851
     EC              =     -0.649439552
     EX+EC           =    -27.982252403
Transforming the Hamiltonian                       ... done (   0.0 sec)
Diagonalizing the Hamiltonian                      ... done (   0.0 sec)
Back transforming the eigenvectors                 ... done (   0.0 sec)
Now organizing SCF variables                       ... done
                      ------------------
                      INITIAL GUESS DONE (   0.2 sec)
                      ------------------
--------------
SCF ITERATIONS
--------------
ITER       Energy         Delta-E        Max-DP      RMS-DP      [F,P]     Damp
               ***  Starting incremental Fock matrix formation  ***
  0   -460.1677606548   0.000000000000 0.00717187  0.00026327  0.0327660 0.7000
  1   -460.1691477137  -0.001387058881 0.00503408  0.00021297  0.0227188 0.7000
                               ***Turning on DIIS***
  2   -460.1701849168  -0.001037203144 0.01267196  0.00052585  0.0156343 0.0000
  3   -460.1727662758  -0.002581358933 0.00143588  0.00005960  0.0033095 0.0000
  4   -460.1728164800  -0.000050204203 0.00093695  0.00003498  0.0006435 0.0000
  5   -460.1728247140  -0.000008234094 0.00008539  0.00000355  0.0000930 0.0000
  6   -460.1728247565  -0.000000042409 0.00002419  0.00000110  0.0000590 0.0000
                 **** Energy Check signals convergence ****

               *****************************************************
               *                     SUCCESS                       *
               *           SCF CONVERGED AFTER   7 CYCLES          *
               *****************************************************


----------------
TOTAL SCF ENERGY
----------------

Total Energy       :         -460.17282476 Eh          -12521.93916 eV

Components:
Nuclear Repulsion  :            0.00000000 Eh               0.00000 eV
Electronic Energy  :         -460.17282476 Eh          -12521.93916 eV
One Electron Energy:         -634.89389255 Eh          -17276.34113 eV
Two Electron Energy:          174.72106778 Eh            4754.40196 eV

Virial components:
Potential Energy   :         -919.12325371 Eh          -25010.61525 eV
Kinetic Energy     :          458.95042895 Eh           12488.67608 eV
Virial Ratio       :            2.00266346


DFT components:
N(Alpha)           :        8.999999549723 electrons
N(Beta)            :        7.999999553087 electrons
N(Total)           :       16.999999102810 electrons
E(X)               :      -24.801529589118 Eh       
E(C)               :       -0.648406465354 Eh       
E(XC)              :      -25.449936054471 Eh       
DFET-embed. en.    :        0.000000000000 Eh       

---------------
SCF CONVERGENCE
---------------

  Last Energy change         ...   -6.9036e-09  Tolerance :   1.0000e-06
  Last MAX-Density change    ...    2.3427e-06  Tolerance :   1.0000e-05
  Last RMS-Density change    ...    8.1302e-08  Tolerance :   1.0000e-06
  Last DIIS Error            ...    1.6490e-06  Tolerance :   1.0000e-06

             **** THE GBW FILE WAS UPDATED (73_Cl.gbw) ****
             **** DENSITY FILE WAS UPDATED (73_Cl.scfp) ****
             **** ENERGY FILE WAS UPDATED (73_Cl.en.tmp) ****
----------------------
UHF SPIN CONTAMINATION
----------------------

Warning: in a DFT calculation there is little theoretical justification to 
         calculate <S**2> as in Hartree-Fock theory. We will do it anyways
         but you should keep in mind that the values have only limited relevance

Expectation value of <S**2>     :     0.754304
Ideal value S*(S+1) for S=0.5   :     0.750000
Deviation                       :     0.004304

             **** THE GBW FILE WAS UPDATED (73_Cl.gbw) ****
             **** DENSITY FILE WAS UPDATED (73_Cl.scfp) ****
----------------
ORBITAL ENERGIES
----------------
                 SPIN UP ORBITALS
  NO   OCC          E(Eh)            E(eV) 
   0   1.0000    -101.457988     -2760.8122 
   1   1.0000      -9.433202      -256.6905 
   2   1.0000      -7.193360      -195.7413 
   3   1.0000      -7.169831      -195.1010 
   4   1.0000      -7.169831      -195.1010 
   5   1.0000      -0.827177       -22.5086 
   6   1.0000      -0.398746       -10.8504 
   7   1.0000      -0.339638        -9.2420 
   8   1.0000      -0.339638        -9.2420 
   9   0.0000       0.039600         1.0776 
  10   0.0000       0.058078         1.5804 
  11   0.0000       0.065128         1.7722 
  12   0.0000       0.065128         1.7722 
  13   0.0000       0.191218         5.2033 
  14   0.0000       0.196616         5.3502 
  15   0.0000       0.196616         5.3502 
  16   0.0000       0.216271         5.8850 
  17   0.0000       0.216271         5.8850 
  18   0.0000       0.450217        12.2510 
  19   0.0000       0.474581        12.9140 
  20   0.0000       0.474581        12.9140 
  21   0.0000       0.645016        17.5518 
  22   0.0000       0.654550        17.8112 
  23   0.0000       0.654550        17.8112 
  24   0.0000       0.687903        18.7188 
  25   0.0000       0.687903        18.7188 
  26   0.0000       0.703109        19.1326 
  27   0.0000       0.949301        25.8318 
  28   0.0000       0.952169        25.9098 
  29   0.0000       0.952170        25.9099 
  30   0.0000       0.962077        26.1794 
  31   0.0000       0.962077        26.1794 
  32   0.0000       0.980012        26.6675 
  33   0.0000       0.980012        26.6675 
  34   0.0000       2.113091        57.5001 
  35   0.0000       2.123279        57.7774 
  36   0.0000       2.123279        57.7774 
  37   0.0000       2.157618        58.7118 
  38   0.0000       2.157618        58.7118 
  39   0.0000       2.252213        61.2858 
  40   0.0000       2.295060        62.4518 
  41   0.0000       2.295061        62.4518 
  42   0.0000       2.660557        72.3974 
  43   0.0000       2.666686        72.5642 
  44   0.0000       2.666686        72.5642 
  45   0.0000       2.685713        73.0820 
  46   0.0000       2.685713        73.0820 
  47   0.0000       2.718801        73.9823 
  48   0.0000       2.718801        73.9823 
  49   0.0000       4.582841       124.7055 

                 SPIN DOWN ORBITALS
  NO   OCC          E(Eh)            E(eV) 
   0   1.0000    -101.451487     -2760.6353 
   1   1.0000      -9.427360      -256.5315 
   2   1.0000      -7.173157      -195.1915 
   3   1.0000      -7.166433      -195.0086 
   4   1.0000      -7.166433      -195.0086 
   5   1.0000      -0.772627       -21.0242 
   6   1.0000      -0.325016        -8.8441 
   7   1.0000      -0.325016        -8.8441 
   8   0.0000      -0.256835        -6.9888 
   9   0.0000       0.047229         1.2852 
  10   0.0000       0.066615         1.8127 
  11   0.0000       0.066616         1.8127 
  12   0.0000       0.071069         1.9339 
  13   0.0000       0.217948         5.9307 
  14   0.0000       0.217948         5.9307 
  15   0.0000       0.221932         6.0391 
  16   0.0000       0.221933         6.0391 
  17   0.0000       0.226478         6.1628 
  18   0.0000       0.480301        13.0697 
  19   0.0000       0.480301        13.0697 
  20   0.0000       0.485971        13.2240 
  21   0.0000       0.693011        18.8578 
  22   0.0000       0.693011        18.8578 
  23   0.0000       0.698490        19.0069 
  24   0.0000       0.698491        19.0069 
  25   0.0000       0.708342        19.2750 
  26   0.0000       0.725942        19.7539 
  27   0.0000       0.978557        26.6279 
  28   0.0000       0.978557        26.6279 
  29   0.0000       0.979248        26.6467 
  30   0.0000       0.979248        26.6467 
  31   0.0000       0.981397        26.7052 
  32   0.0000       0.981658        26.7123 
  33   0.0000       0.981664        26.7124 
  34   0.0000       2.166015        58.9403 
  35   0.0000       2.166016        58.9403 
  36   0.0000       2.170638        59.0661 
  37   0.0000       2.172082        59.1054 
  38   0.0000       2.172082        59.1054 
  39   0.0000       2.303206        62.6734 
  40   0.0000       2.314131        62.9707 
  41   0.0000       2.314131        62.9707 
  42   0.0000       2.721625        74.0592 
  43   0.0000       2.721626        74.0592 
  44   0.0000       2.723052        74.0980 
  45   0.0000       2.723052        74.0980 
  46   0.0000       2.724350        74.1333 
  47   0.0000       2.732406        74.3526 
  48   0.0000       2.732406        74.3526 
  49   0.0000       4.605832       125.3311 

                    ********************************
                    * MULLIKEN POPULATION ANALYSIS *
                    ********************************

--------------------------------------------
MULLIKEN ATOMIC CHARGES AND SPIN POPULATIONS
--------------------------------------------
   0 Cl:    0.000000    1.000000
Sum of atomic charges         :    0.0000000
Sum of atomic spin populations:    1.0000000

-----------------------------------------------------
MULLIKEN REDUCED ORBITAL CHARGES AND SPIN POPULATIONS
-----------------------------------------------------
CHARGE
  0 Cls       :     5.998182  s :     5.998182
      pz      :     3.581122  p :    10.999100
      px      :     3.994703
      py      :     3.423274
      dz2     :     0.000030  d :     0.001818
      dxz     :     0.000011
      dyz     :     0.001316
      dx2y2   :     0.000445
      dxy     :     0.000016
      f0      :     0.000102  f :     0.000900
      f+1     :     0.000022
      f-1     :     0.000250
      f+2     :     0.000192
      f-2     :     0.000168
      f+3     :     0.000086
      f-3     :     0.000080

SPIN
  0 Cls       :    -0.001058  s :    -0.001058
      pz      :     0.418276  p :     0.999140
      px      :     0.004767
      py      :     0.576097
      dz2     :     0.000017  d :     0.001058
      dxz     :     0.000007
      dyz     :     0.000766
      dx2y2   :     0.000259
      dxy     :     0.000009
      f0      :     0.000097  f :     0.000860
      f+1     :     0.000021
      f-1     :     0.000238
      f+2     :     0.000191
      f-2     :     0.000156
      f+3     :     0.000080
      f-3     :     0.000077


                     *******************************
                     * LOEWDIN POPULATION ANALYSIS *
                     *******************************

-------------------------------------------
LOEWDIN ATOMIC CHARGES AND SPIN POPULATIONS
-------------------------------------------
   0 Cl:   -0.000000    1.000000

----------------------------------------------------
LOEWDIN REDUCED ORBITAL CHARGES AND SPIN POPULATIONS
----------------------------------------------------
CHARGE
  0 Cls       :     5.998182  s :     5.998182
      pz      :     3.581122  p :    10.999100
      px      :     3.994703
      py      :     3.423274
      dz2     :     0.000030  d :     0.001818
      dxz     :     0.000011
      dyz     :     0.001316
      dx2y2   :     0.000445
      dxy     :     0.000016
      f0      :     0.000102  f :     0.000900
      f+1     :     0.000022
      f-1     :     0.000250
      f+2     :     0.000192
      f-2     :     0.000168
      f+3     :     0.000086
      f-3     :     0.000080

SPIN
  0 Cls       :    -0.001058  s :    -0.001058
      pz      :     0.418276  p :     0.999140
      px      :     0.004767
      py      :     0.576097
      dz2     :     0.000017  d :     0.001058
      dxz     :     0.000007
      dyz     :     0.000766
      dx2y2   :     0.000259
      dxy     :     0.000009
      f0      :     0.000097  f :     0.000860
      f+1     :     0.000021
      f-1     :     0.000238
      f+2     :     0.000191
      f-2     :     0.000156
      f+3     :     0.000080
      f-3     :     0.000077


                      *****************************
                      * MAYER POPULATION ANALYSIS *
                      *****************************

  NA   - Mulliken gross atomic population
  ZA   - Total nuclear charge
  QA   - Mulliken gross atomic charge
  VA   - Mayer's total valence
  BVA  - Mayer's bonded valence
  FA   - Mayer's free valence

  ATOM       NA         ZA         QA         VA         BVA        FA
  0 Cl    17.0000    17.0000    -0.0000     1.0086     0.0000     1.0086

  Mayer bond orders larger than 0.100000


-------
TIMINGS
-------

Total SCF time: 0 days 0 hours 0 min 1 sec 

Total time                  ....       1.454 sec
Sum of individual times     ....       1.251 sec  ( 86.1%)

Fock matrix formation       ....       1.069 sec  ( 73.5%)
  XC integration            ....       0.082 sec  (  7.7% of F)
    Basis function eval.    ....       0.005 sec  (  6.1% of XC)
    Density eval.           ....       0.008 sec  (  9.3% of XC)
    XC-Functional eval.     ....       0.005 sec  (  5.6% of XC)
    XC-Potential eval.      ....       0.010 sec  ( 12.1% of XC)
Diagonalization             ....       0.006 sec  (  0.4%)
Density matrix formation    ....       0.003 sec  (  0.2%)
Population analysis         ....       0.003 sec  (  0.2%)
Initial guess               ....       0.109 sec  (  7.5%)
Orbital Transformation      ....       0.000 sec  (  0.0%)
Orbital Orthonormalization  ....       0.000 sec  (  0.0%)
DIIS solution               ....       0.004 sec  (  0.2%)
Grid generation             ....       0.059 sec  (  4.0%)


-------------------------------------------------------------------------------
                          DFT DISPERSION CORRECTION                            
                                                                               
                              DFTD3 V3.1  Rev 1                                
                          USING Becke-Johnson damping                          
-------------------------------------------------------------------------------
The TPSSH functional is recognized
Active option DFTDOPT                   ...         4   

molecular C6(AA) [au] = 92.309994 


            DFT-D V3
 parameters
 s6 scaling factor         :     1.0000 
 a1 scaling factor         :     0.4529 
 s8 scaling factor         :     2.2382 
 a2 scaling factor         :     4.6550 
 ad hoc parameters k1-k3   :    16.0000     1.3333    -4.0000 

 Edisp/kcal,au: -0.000000000000  -0.000000000000 
 E6   /kcal   :  -0.000000000 
 E8   /kcal   :  -0.000000000 
 % E8         :          -nan 

-------------------------   ----------------
Dispersion correction            0.000000000
-------------------------   ----------------


-------------------------   --------------------
FINAL SINGLE POINT ENERGY      -460.172824763362
-------------------------   --------------------


                            ***************************************
                            *     ORCA property calculations      *
                            ***************************************

                                    ---------------------
                                    Active property flags
                                    ---------------------
   (+) Dipole Moment


------------------------------------------------------------------------------
                       ORCA ELECTRIC PROPERTIES CALCULATION
------------------------------------------------------------------------------

Dipole Moment Calculation                       ... on
Quadrupole Moment Calculation                   ... off
Polarizability Calculation                      ... off
GBWName                                         ... 73_Cl.gbw
Electron density file                           ... 73_Cl.scfp
The origin for moment calculation is the CENTER OF MASS  = ( 0.000000,  0.000000  0.000000)

-------------
DIPOLE MOMENT
-------------
                                X             Y             Z
Electronic contribution:     -0.00000      -0.00000      -0.00000
Nuclear contribution   :      0.00000       0.00000       0.00000
                        -----------------------------------------
Total Dipole Moment    :     -0.00000      -0.00000      -0.00000
                        -----------------------------------------
Magnitude (a.u.)       :      0.00000
Magnitude (Debye)      :      0.00000



--------------------
Rotational spectrum 
--------------------
 
Rotational constants in cm-1:     0.000000     0.000000     0.000000 
Rotational constants in MHz :     0.000000     0.000000     0.000000 

 Dipole components along the rotational axes: 
x,y,z [a.u.] :    -0.000000    -0.000000    -0.000000 
x,y,z [Debye]:    -0.000000    -0.000000    -0.000000 

 

Timings for individual modules:

Sum of individual times         ...        2.564 sec (=   0.043 min)
GTO integral calculation        ...        0.724 sec (=   0.012 min)  28.3 %
SCF iterations                  ...        1.839 sec (=   0.031 min)  71.7 %
                             ****ORCA TERMINATED NORMALLY****
TOTAL RUN TIME: 0 days 0 hours 0 minutes 3 seconds 81 msec
