
                                 *****************
                                 * O   R   C   A *
                                 *****************

           --- An Ab Initio, DFT and Semiempirical electronic structure package ---

                  #######################################################
                  #                        -***-                        #
                  #          Department of theory and spectroscopy      #
                  #               Directorship: Frank Neese             #
                  #        Max Planck Institute fuer Kohlenforschung    #
                  #                Kaiser Wilhelm Platz 1               #
                  #                 D-45470 Muelheim/Ruhr               #
                  #                      Germany                        #
                  #                                                     #
                  #                  All rights reserved                #
                  #                        -***-                        #
                  #######################################################


                         Program Version 4.2.0 -  RELEASE  -


 With contributions from (in alphabetic order):
   Daniel Aravena         : Magnetic Suceptibility
   Michael Atanasov       : Ab Initio Ligand Field Theory (pilot matlab implementation)
   Alexander A. Auer      : GIAO ZORA, VPT2
   Ute Becker             : Parallelization
   Giovanni Bistoni       : ED, misc. LED, open-shell LED, HFLED
   Martin Brehm           : Molecular dynamics
   Dmytro Bykov           : SCF Hessian
   Vijay G. Chilkuri      : MRCI spin determinant printing, contributions to CSF-ICE
   Dipayan Datta          : RHF DLPNO-CCSD density
   Achintya Kumar Dutta   : EOM-CC, STEOM-CC
   Dmitry Ganyushin       : Spin-Orbit,Spin-Spin,Magnetic field MRCI
   Miquel Garcia          : C-PCM Hessian, Gaussian charge scheme
   Yang Guo               : DLPNO-NEVPT2, CIM, IAO-localization
   Andreas Hansen         : Spin unrestricted coupled pair/coupled cluster methods
   Benjamin Helmich-Paris : CASSCF linear response (MC-RPA)
   Lee Huntington         : MR-EOM, pCC
   Robert Izsak           : Overlap fitted RIJCOSX, COSX-SCS-MP3, EOM
   Christian Kollmar      : KDIIS, OOCD, Brueckner-CCSD(T), CCSD density
   Simone Kossmann        : Meta GGA functionals, TD-DFT gradient, OOMP2, MP2 Hessian
   Martin Krupicka        : AUTO-CI
   Lucas Lang             : DCDCAS
   Dagmar Lenk            : GEPOL surface, SMD
   Dimitrios Liakos       : Extrapolation schemes; Compound Job, initial MDCI parallelization
   Dimitrios Manganas     : Further ROCIS development; embedding schemes
   Dimitrios Pantazis     : SARC Basis sets
   Taras Petrenko         : DFT Hessian,TD-DFT gradient, ASA, ECA, R-Raman, ABS, FL, XAS/XES, NRVS
   Peter Pinski           : DLPNO-MP2, DLPNO-MP2 Gradient
   Christoph Reimann      : Effective Core Potentials
   Marius Retegan         : Local ZFS, SOC
   Christoph Riplinger    : Optimizer, TS searches, QM/MM, DLPNO-CCSD(T), (RO)-DLPNO pert. Triples
   Tobias Risthaus        : Range-separated hybrids, TD-DFT gradient, RPA, STAB
   Michael Roemelt        : Original ROCIS implementation
   Masaaki Saitow         : Open-shell DLPNO-CCSD energy and density
   Barbara Sandhoefer     : DKH picture change effects
   Avijit Sen             : IP-ROCIS
   Kantharuban Sivalingam : CASSCF convergence, NEVPT2, FIC-MRCI
   Bernardo de Souza      : ESD, SOC TD-DFT
   Georgi Stoychev        : AutoAux, RI-MP2 NMR
   Willem Van den Heuvel  : Paramagnetic NMR
   Boris Wezisla          : Elementary symmetry handling
   Frank Wennmohs         : Technical directorship


 We gratefully acknowledge several colleagues who have allowed us to
 interface, adapt or use parts of their codes:
   Stefan Grimme, W. Hujo, H. Kruse,             : VdW corrections, initial TS optimization,
                  C. Bannwarth                     DFT functionals, gCP, sTDA/sTD-DF
   Ed Valeev, F. Pavosevic, A. Kumar             : LibInt (2-el integral package), F12 methods
   Garnet Chan, S. Sharma, J. Yang, R. Olivares  : DMRG
   Ulf Ekstrom                                   : XCFun DFT Library
   Mihaly Kallay                                 : mrcc  (arbitrary order and MRCC methods)
   Andreas Klamt, Michael Diedenhofen            : otool_cosmo (COSMO solvation model)
   Jiri Pittner, Ondrej Demel                    : Mk-CCSD
   Frank Weinhold                                : gennbo (NPA and NBO analysis)
   Christopher J. Cramer and Donald G. Truhlar   : smd solvation model
   Lars Goerigk                                  : TD-DFT with DH, B97 family of functionals
   V. Asgeirsson, H. Jonsson                     : NEB implementation
   FAccTs GmbH                                   : IRC, NEB, NEB-TS, Multilevel, MM, QM/MM, CI optimization
   S Lehtola, MJT Oliveira, MAL Marques          : LibXC Library


 Your calculation uses the libint2 library for the computation of 2-el integrals
 For citations please refer to: http://libint.valeyev.net

 Your ORCA version has been built with support for libXC version: 4.2.3
 For citations please refer to: https://tddft.org/programs/libxc/

 This ORCA versions uses:
   CBLAS   interface :  Fast vector & matrix operations
   LAPACKE interface :  Fast linear algebra routines
   SCALAPACK package :  Parallel linear algebra routines


Your calculation utilizes the atom-pairwise dispersion correction
with the Becke-Johnson damping scheme (D3BJ)
Cite in your paper:
S.Grimme, S.Ehrlich, L.Goerigk, J Comput Chem, (2011), 32, 1456–1465 
S.Grimme, J.Antony, S.Ehrlich and H.Krieg, J.Chem.Phys., 132, (2010), 154104 
   

----- Orbital basis set information -----
Your calculation utilizes the basis: aug-cc-pVTZ 
    H, B-Ne : Obtained from the ccRepo (grant-hill.group.shef.ac.uk/ccrepo) Feb. 2017
              R. A. Kendall, T. H. Dunning, Jr., R. J. Harrison, J. Chem. Phys. 96, 6796 (1992)
         He : Obtained from the ccRepo (grant-hill.group.shef.ac.uk/ccrepo) Feb. 2017
              D. E. Woon, T. H. Dunning, Jr., J. Chem. Phys. 100, 2975 (1994)
  Li-Be, Na : Obtained from the ccRepo (grant-hill.group.shef.ac.uk/ccrepo) Feb. 2017
              B. P. Prascher, D. E. Woon, K. A. Peterson, T. H. Dunning, Jr., A. K. Wilson, Theor. Chem. Acc. 128, 69 (2011)
         Mg : Obtained from the Peterson Research Group Website (tyr0.chem.wsu.edu/~kipeters) Feb. 2017
              B. P. Prascher, D. E. Woon, K. A. Peterson, T. H. Dunning, Jr., A. K. Wilson, Theor. Chem. Acc. 128, 69 (2011)
      Al-Ar : Obtained from the ccRepo (grant-hill.group.shef.ac.uk/ccrepo) Feb. 2017
              D. E. Woon, T. H. Dunning, Jr., J. Chem. Phys. 98, 1358 (1993)
      Sc-Zn : Obtained from the ccRepo (grant-hill.group.shef.ac.uk/ccrepo) Feb. 2017
              N. B. Balabanov, K. A. Peterson, J. Chem. Phys. 123, 064107 (2005)
              N. B. Balabanov, K. A. Peterson, J. Chem. Phys. 125, 074110 (2006)
      Ga-Kr : Obtained from the ccRepo (grant-hill.group.shef.ac.uk/ccrepo) Feb. 2017
              A. K. Wilson, D. E. Woon, K. A. Peterson, T. H. Dunning, Jr., J. Chem. Phys. 110, 7667 (1999)
     Ag, Au : Obtained from the Peterson Research Group Website (tyr0.chem.wsu.edu/~kipeters) Feb. 2017
              K. A. Peterson, C. Puzzarini, Theor. Chem. Acc. 114, 283 (2005)

----- AuxJK basis set information -----
Your calculation utilizes the auxiliary basis: def2/JK
   H-Ba, Hf-Rn: F. Weigend, J. Comput. Chem. 29, 167 (2008).

================================================================================
                                        WARNINGS
                       Please study these warnings very carefully!
================================================================================


WARNING: your system is open-shell and RHF/RKS was chosen
  ===> : WILL SWITCH to UHF/UKS


INFO   : the flag for use of LIBINT has been found!

================================================================================
                                       INPUT FILE
================================================================================
NAME = 74_Br.in
|  1> #
|  2> # 74_Br tpssh/aug-cc-pvtz
|  3> #
|  4> ! tpssh d3bj aug-cc-pvtz def2/jk grid4 nofinalgrid
|  5> 
|  6> *xyz 0 2
|  7> Br 0.0 0.0 0.0
|  8> *
|  9> 
| 10> %pal
| 11> nprocs 24
| 12> end
| 13> 
| 14> 
| 15>                          ****END OF INPUT****
================================================================================

                       ****************************
                       * Single Point Calculation *
                       ****************************

---------------------------------
CARTESIAN COORDINATES (ANGSTROEM)
---------------------------------
  Br     0.000000    0.000000    0.000000

----------------------------
CARTESIAN COORDINATES (A.U.)
----------------------------
  NO LB      ZA    FRAG     MASS         X           Y           Z
   0 Br   35.0000    0    79.900    0.000000    0.000000    0.000000

--------------------------------
INTERNAL COORDINATES (ANGSTROEM)
--------------------------------
 Br     0   0   0     0.000000000000     0.00000000     0.00000000

---------------------------
INTERNAL COORDINATES (A.U.)
---------------------------
 Br     0   0   0     0.000000000000     0.00000000     0.00000000

---------------------
BASIS SET INFORMATION
---------------------
There are 1 groups of distinct atoms

 Group   1 Type Br  : 75s36p10d2f contracted to 7s6p4d2f pattern {18181818111/111111111/7111/11}

Atom   0Br   basis set group =>   1
----------------------------------
AUXILIARY/JK BASIS SET INFORMATION
----------------------------------
There are 1 groups of distinct atoms

 Group   1 Type Br  : 20s14p13d10f7g3h contracted to 17s13p12d9f6g3h pattern {41111111111111111/2111111111111/211111111111/211111111/211111/111}

Atom   0Br   basis set group =>   1


           ************************************************************
           *        Program running with 24 parallel MPI-processes    *
           *              working on a common directory               *
           ************************************************************
------------------------------------------------------------------------------
                           ORCA GTO INTEGRAL CALCULATION
------------------------------------------------------------------------------

                         BASIS SET STATISTICS AND STARTUP INFO

 # of primitive gaussian shells          ...  123
 # of primitive gaussian functions       ...  247
 # of contracted shells                  ...   19
 # of contracted basis functions         ...   59
 Highest angular momentum                ...    3
 Maximum contraction depth               ...   18
 Integral package used                   ... LIBINT
 Integral threshhold            Thresh   ...  1.000e-10
 Primitive cut-off              TCut     ...  1.000e-11


------------------------------ INTEGRAL EVALUATION ----------------------------


 * One electron integrals 
 Pre-screening matrix                    ... done
 Shell pair data                         ... done (   0.000 sec)



           ************************************************************
           *        Program running with 24 parallel MPI-processes    *
           *              working on a common directory               *
           ************************************************************
-------------------------------------------------------------------------------
                                 ORCA SCF
-------------------------------------------------------------------------------

------------
SCF SETTINGS
------------
Hamiltonian:
 Density Functional     Method          .... DFT(GTOs)
 Exchange Functional    Exchange        .... TPSS
 Correlation Functional Correlation     .... TPSS
 LDA part of GGA corr.  LDAOpt          .... PW91-LDA
 Gradients option       PostSCFGGA      .... off
 Hybrid DFT is turned on
   Fraction HF Exchange ScalHFX         ....  0.100000
   Scaling of DF-GGA-X  ScalDFX         ....  0.900000
   Scaling of DF-GGA-C  ScalDFC         ....  1.000000
   Scaling of DF-LDA-C  ScalLDAC        ....  1.000000
   Perturbative correction              ....  0.000000
   Density functional embedding theory  .... OFF
   NL short-range parameter             ....  5.200000


General Settings:
 Integral files         IntName         .... 74_Br
 Hartree-Fock type      HFTyp           .... UHF
 Total Charge           Charge          ....    0
 Multiplicity           Mult            ....    2
 Number of Electrons    NEL             ....   35
 Basis Dimension        Dim             ....   59
 Nuclear Repulsion      ENuc            ....      0.0000000000 Eh

Convergence Acceleration:
 DIIS                   CNVDIIS         .... on
   Start iteration      DIISMaxIt       ....    12
   Startup error        DIISStart       ....  0.200000
   # of expansion vecs  DIISMaxEq       ....     5
   Bias factor          DIISBfac        ....   1.050
   Max. coefficient     DIISMaxC        ....  10.000
 Newton-Raphson         CNVNR           .... off
 SOSCF                  CNVSOSCF        .... off
 Level Shifting         CNVShift        .... on
   Level shift para.    LevelShift      ....    0.2500
   Turn off err/grad.   ShiftErr        ....    0.0010
 Zerner damping         CNVZerner       .... off
 Static damping         CNVDamp         .... on
   Fraction old density DampFac         ....    0.7000
   Max. Damping (<1)    DampMax         ....    0.9800
   Min. Damping (>=0)   DampMin         ....    0.0000
   Turn off err/grad.   DampErr         ....    0.1000
 Fernandez-Rico         CNVRico         .... off

SCF Procedure:
 Maximum # iterations   MaxIter         ....   125
 SCF integral mode      SCFMode         .... Direct
   Integral package                     .... LIBINT
 Reset frequency        DirectResetFreq ....    20
 Integral Threshold     Thresh          ....  1.000e-10 Eh
 Primitive CutOff       TCut            ....  1.000e-11 Eh

Convergence Tolerance:
 Convergence Check Mode ConvCheckMode   .... Total+1el-Energy
 Convergence forced     ConvForced      .... 0
 Energy Change          TolE            ....  1.000e-06 Eh
 1-El. energy change                    ....  1.000e-03 Eh
 DIIS Error             TolErr          ....  1.000e-06


Diagonalization of the overlap matrix:
Smallest eigenvalue                        ... 7.625e-03
Time for diagonalization                   ...    0.002 sec
Threshold for overlap eigenvalues          ... 1.000e-08
Number of eigenvalues below threshold      ... 0
Time for construction of square roots      ...    0.001 sec
Total time needed                          ...    0.003 sec

-------------------
DFT GRID GENERATION
-------------------

General Integration Accuracy     IntAcc      ...  4.670
Radial Grid Type                 RadialGrid  ... Gauss-Chebyshev
Angular Grid (max. acc.)         AngularGrid ... Lebedev-302
Angular grid pruning method      GridPruning ... 3 (G Style)
Weight generation scheme         WeightScheme... Becke
Basis function cutoff            BFCut       ...    1.0000e-10
Integration weight cutoff        WCut        ...    1.0000e-14
Grids for H and He will be reduced by one unit

# of grid points (after initial pruning)     ...   9616 (   0.0 sec)
# of grid points (after weights+screening)   ...   9616 (   0.0 sec)
Grid point division into batches done        ...    0.1 sec
Reduced shell lists constructed in    0.1 sec

Total number of grid points                  ...     9616
Total number of batches                      ...      151
Average number of points per batch           ...       63
Average number of grid points per atom       ...     9616
Average number of shells per batch           ...     4.62 (24.34%)
Average number of basis functions per batch  ...    12.88 (21.82%)
Average number of large shells per batch     ...     3.62 (78.38%)
Average number of large basis fcns per batch ...    10.62 (82.52%)
Maximum spatial batch extension              ...  20.96, 16.71, 16.71 au
Average spatial batch extension              ...   0.72,  0.66,  0.65 au

Time for grid setup =    0.112 sec

------------------------------
INITIAL GUESS: MODEL POTENTIAL
------------------------------
Loading Hartree-Fock densities                     ... done
Calculating cut-offs                               ... done
Setting up the integral package                    ... done
Initializing the effective Hamiltonian             ... done
Starting the Coulomb interaction                   ... done (   0.0 sec)
Reading the grid                                   ... done
Mapping shells                                     ... done
Starting the XC term evaluation                    ... done (   0.0 sec)
  promolecular density results
     # of electrons  =     34.999995890
     EX              =    -89.238293731
     EC              =     -1.701081602
     EX+EC           =    -90.939375332
Transforming the Hamiltonian                       ... done (   0.0 sec)
Diagonalizing the Hamiltonian                      ... done (   0.0 sec)
Back transforming the eigenvectors                 ... done (   0.0 sec)
Now organizing SCF variables                       ... done
                      ------------------
                      INITIAL GUESS DONE (   0.2 sec)
                      ------------------
--------------
SCF ITERATIONS
--------------
ITER       Energy         Delta-E        Max-DP      RMS-DP      [F,P]     Damp
               ***  Starting incremental Fock matrix formation  ***
  0  -2574.0657348799   0.000000000000 0.01071945  0.00033162  0.0512932 0.7000
  1  -2574.0675452393  -0.001810359363 0.00763282  0.00023798  0.0284588 0.7000
                               ***Turning on DIIS***
  2  -2574.0687464323  -0.001201192988 0.02077433  0.00055137  0.0150238 0.0000
  3  -2574.0714663212  -0.002719888871 0.00292867  0.00011895  0.0083248 0.0000
  4  -2574.0715445470  -0.000078225813 0.00085775  0.00003033  0.0019936 0.0000
  5  -2574.0715547839  -0.000010236948 0.00074808  0.00001542  0.0002489 0.0000
  6  -2574.0715562688  -0.000001484853 0.00004389  0.00000139  0.0000169 0.0000
                 **** Energy Check signals convergence ****

               *****************************************************
               *                     SUCCESS                       *
               *           SCF CONVERGED AFTER   7 CYCLES          *
               *****************************************************


----------------
TOTAL SCF ENERGY
----------------

Total Energy       :        -2574.07155628 Eh          -70044.04802 eV

Components:
Nuclear Repulsion  :            0.00000000 Eh               0.00000 eV
Electronic Energy  :        -2574.07155628 Eh          -70044.04802 eV
One Electron Energy:        -3580.86122301 Eh          -97440.18764 eV
Two Electron Energy:         1006.78966673 Eh           27396.13962 eV

Virial components:
Potential Energy   :        -5144.45835693 Eh         -139987.82874 eV
Kinetic Energy     :         2570.38680065 Eh           69943.78072 eV
Virial Ratio       :            2.00143354


DFT components:
N(Alpha)           :       17.999999782003 electrons
N(Beta)            :       16.999999825301 electrons
N(Total)           :       34.999999607304 electrons
E(X)               :      -80.526035583121 Eh       
E(C)               :       -1.699983833470 Eh       
E(XC)              :      -82.226019416591 Eh       
DFET-embed. en.    :        0.000000000000 Eh       

---------------
SCF CONVERGENCE
---------------

  Last Energy change         ...   -9.0995e-09  Tolerance :   1.0000e-06
  Last MAX-Density change    ...    3.3963e-06  Tolerance :   1.0000e-05
  Last RMS-Density change    ...    1.7546e-07  Tolerance :   1.0000e-06
  Last DIIS Error            ...    6.9751e-06  Tolerance :   1.0000e-06

             **** THE GBW FILE WAS UPDATED (74_Br.gbw) ****
             **** DENSITY FILE WAS UPDATED (74_Br.scfp) ****
             **** ENERGY FILE WAS UPDATED (74_Br.en.tmp) ****
----------------------
UHF SPIN CONTAMINATION
----------------------

Warning: in a DFT calculation there is little theoretical justification to 
         calculate <S**2> as in Hartree-Fock theory. We will do it anyways
         but you should keep in mind that the values have only limited relevance

Expectation value of <S**2>     :     0.753457
Ideal value S*(S+1) for S=0.5   :     0.750000
Deviation                       :     0.003457

             **** THE GBW FILE WAS UPDATED (74_Br.gbw) ****
             **** DENSITY FILE WAS UPDATED (74_Br.scfp) ****
----------------
ORBITAL ENERGIES
----------------
                 SPIN UP ORBITALS
  NO   OCC          E(Eh)            E(eV) 
   0   1.0000    -482.603801    -13132.3171 
   1   1.0000     -62.315840     -1695.7002 
   2   1.0000     -56.105306     -1526.7030 
   3   1.0000     -56.097806     -1526.4989 
   4   1.0000     -56.097806     -1526.4989 
   5   1.0000      -8.658967      -235.6225 
   6   1.0000      -6.486794      -176.5146 
   7   1.0000      -6.465066      -175.9234 
   8   1.0000      -6.465066      -175.9234 
   9   1.0000      -2.608778       -70.9885 
  10   1.0000      -2.603380       -70.8416 
  11   1.0000      -2.603380       -70.8416 
  12   1.0000      -2.587154       -70.4000 
  13   1.0000      -2.587154       -70.4000 
  14   1.0000      -0.774711       -21.0810 
  15   1.0000      -0.362263        -9.8577 
  16   1.0000      -0.311795        -8.4844 
  17   1.0000      -0.311795        -8.4844 
  18   0.0000       0.016698         0.4544 
  19   0.0000       0.045168         1.2291 
  20   0.0000       0.051542         1.4025 
  21   0.0000       0.051542         1.4025 
  22   0.0000       0.141409         3.8479 
  23   0.0000       0.145633         3.9629 
  24   0.0000       0.145633         3.9629 
  25   0.0000       0.161176         4.3858 
  26   0.0000       0.161176         4.3858 
  27   0.0000       0.354513         9.6468 
  28   0.0000       0.374558        10.1922 
  29   0.0000       0.374558        10.1922 
  30   0.0000       0.482558        13.1311 
  31   0.0000       0.539837        14.6897 
  32   0.0000       0.547358        14.8944 
  33   0.0000       0.547358        14.8944 
  34   0.0000       0.574430        15.6310 
  35   0.0000       0.574430        15.6310 
  36   0.0000       0.732909        19.9435 
  37   0.0000       0.735602        20.0168 
  38   0.0000       0.735602        20.0168 
  39   0.0000       0.745000        20.2725 
  40   0.0000       0.745000        20.2725 
  41   0.0000       0.762077        20.7372 
  42   0.0000       0.762077        20.7372 
  43   0.0000       1.746044        47.5123 
  44   0.0000       1.782443        48.5027 
  45   0.0000       1.782443        48.5027 
  46   0.0000       1.898114        51.6503 
  47   0.0000       1.906921        51.8900 
  48   0.0000       1.906921        51.8900 
  49   0.0000       1.936495        52.6947 
  50   0.0000       1.936495        52.6947 
  51   0.0000       1.946288        52.9612 
  52   0.0000       1.951507        53.1032 
  53   0.0000       1.951507        53.1032 
  54   0.0000       1.967748        53.5452 
  55   0.0000       1.967748        53.5452 
  56   0.0000       1.996023        54.3146 
  57   0.0000       1.996023        54.3146 
  58   0.0000       3.015756        82.0629 

                 SPIN DOWN ORBITALS
  NO   OCC          E(Eh)            E(eV) 
   0   1.0000    -482.601472    -13132.2537 
   1   1.0000     -62.315057     -1695.6789 
   2   1.0000     -56.100806     -1526.5805 
   3   1.0000     -56.097036     -1526.4780 
   4   1.0000     -56.097036     -1526.4780 
   5   1.0000      -8.655570      -235.5300 
   6   1.0000      -6.477597      -176.2644 
   7   1.0000      -6.463592      -175.8833 
   8   1.0000      -6.463592      -175.8833 
   9   1.0000      -2.600539       -70.7643 
  10   1.0000      -2.597229       -70.6742 
  11   1.0000      -2.597229       -70.6742 
  12   1.0000      -2.586231       -70.3749 
  13   1.0000      -2.586231       -70.3749 
  14   1.0000      -0.729928       -19.8623 
  15   1.0000      -0.298036        -8.1100 
  16   1.0000      -0.298036        -8.1100 
  17   0.0000      -0.244286        -6.6474 
  18   0.0000       0.023269         0.6332 
  19   0.0000       0.052986         1.4418 
  20   0.0000       0.052986         1.4418 
  21   0.0000       0.056300         1.5320 
  22   0.0000       0.162668         4.4264 
  23   0.0000       0.162668         4.4264 
  24   0.0000       0.165086         4.4922 
  25   0.0000       0.165086         4.4922 
  26   0.0000       0.168424         4.5831 
  27   0.0000       0.379063        10.3148 
  28   0.0000       0.379063        10.3148 
  29   0.0000       0.380265        10.3475 
  30   0.0000       0.497611        13.5407 
  31   0.0000       0.577815        15.7232 
  32   0.0000       0.577815        15.7232 
  33   0.0000       0.581285        15.8176 
  34   0.0000       0.581285        15.8176 
  35   0.0000       0.590133        16.0583 
  36   0.0000       0.761069        20.7097 
  37   0.0000       0.761069        20.7098 
  38   0.0000       0.761419        20.7193 
  39   0.0000       0.761419        20.7193 
  40   0.0000       0.762871        20.7588 
  41   0.0000       0.763933        20.7877 
  42   0.0000       0.763936        20.7878 
  43   0.0000       1.780860        48.4597 
  44   0.0000       1.790961        48.7345 
  45   0.0000       1.790961        48.7345 
  46   0.0000       1.938537        52.7503 
  47   0.0000       1.938538        52.7503 
  48   0.0000       1.939909        52.7876 
  49   0.0000       1.943571        52.8873 
  50   0.0000       1.943571        52.8873 
  51   0.0000       1.993606        54.2488 
  52   0.0000       1.993607        54.2488 
  53   0.0000       1.994203        54.2650 
  54   0.0000       1.994203        54.2650 
  55   0.0000       1.996574        54.3296 
  56   0.0000       2.001147        54.4540 
  57   0.0000       2.001147        54.4540 
  58   0.0000       3.029689        82.4420 

                    ********************************
                    * MULLIKEN POPULATION ANALYSIS *
                    ********************************

--------------------------------------------
MULLIKEN ATOMIC CHARGES AND SPIN POPULATIONS
--------------------------------------------
   0 Br:    0.000000    1.000000
Sum of atomic charges         :    0.0000000
Sum of atomic spin populations:    1.0000000

-----------------------------------------------------
MULLIKEN REDUCED ORBITAL CHARGES AND SPIN POPULATIONS
-----------------------------------------------------
CHARGE
  0 Brs       :     7.998710  s :     7.998710
      pz      :     5.094258  p :    16.998767
      px      :     5.910532
      py      :     5.993977
      dz2     :     2.000950  d :    10.001290
      dxz     :     2.000312
      dyz     :     2.000020
      dx2y2   :     2.000007
      dxy     :     2.000002
      f0      :     0.000420  f :     0.001233
      f+1     :     0.000350
      f-1     :     0.000296
      f+2     :     0.000080
      f-2     :     0.000081
      f+3     :     0.000003
      f-3     :     0.000003

SPIN
  0 Brs       :    -0.000866  s :    -0.000866
      pz      :     0.904803  p :     0.998813
      px      :     0.088718
      py      :     0.005292
      dz2     :     0.000638  d :     0.000866
      dxz     :     0.000210
      dyz     :     0.000013
      dx2y2   :     0.000005
      dxy     :     0.000001
      f0      :     0.000409  f :     0.001187
      f+1     :     0.000341
      f-1     :     0.000279
      f+2     :     0.000076
      f-2     :     0.000076
      f+3     :     0.000003
      f-3     :     0.000003


                     *******************************
                     * LOEWDIN POPULATION ANALYSIS *
                     *******************************

-------------------------------------------
LOEWDIN ATOMIC CHARGES AND SPIN POPULATIONS
-------------------------------------------
   0 Br:   -0.000000    1.000000

----------------------------------------------------
LOEWDIN REDUCED ORBITAL CHARGES AND SPIN POPULATIONS
----------------------------------------------------
CHARGE
  0 Brs       :     7.998710  s :     7.998710
      pz      :     5.094258  p :    16.998767
      px      :     5.910532
      py      :     5.993977
      dz2     :     2.000950  d :    10.001290
      dxz     :     2.000312
      dyz     :     2.000020
      dx2y2   :     2.000007
      dxy     :     2.000002
      f0      :     0.000420  f :     0.001233
      f+1     :     0.000350
      f-1     :     0.000296
      f+2     :     0.000080
      f-2     :     0.000081
      f+3     :     0.000003
      f-3     :     0.000003

SPIN
  0 Brs       :    -0.000866  s :    -0.000866
      pz      :     0.904803  p :     0.998813
      px      :     0.088718
      py      :     0.005292
      dz2     :     0.000638  d :     0.000866
      dxz     :     0.000210
      dyz     :     0.000013
      dx2y2   :     0.000005
      dxy     :     0.000001
      f0      :     0.000409  f :     0.001187
      f+1     :     0.000341
      f-1     :     0.000279
      f+2     :     0.000076
      f-2     :     0.000076
      f+3     :     0.000003
      f-3     :     0.000003


                      *****************************
                      * MAYER POPULATION ANALYSIS *
                      *****************************

  NA   - Mulliken gross atomic population
  ZA   - Total nuclear charge
  QA   - Mulliken gross atomic charge
  VA   - Mayer's total valence
  BVA  - Mayer's bonded valence
  FA   - Mayer's free valence

  ATOM       NA         ZA         QA         VA         BVA        FA
  0 Br    35.0000    35.0000    -0.0000     1.0069     0.0000     1.0069

  Mayer bond orders larger than 0.100000


-------
TIMINGS
-------

Total SCF time: 0 days 0 hours 0 min 4 sec 

Total time                  ....       4.892 sec
Sum of individual times     ....       4.636 sec  ( 94.8%)

Fock matrix formation       ....       4.423 sec  ( 90.4%)
  XC integration            ....       0.089 sec  (  2.0% of F)
    Basis function eval.    ....       0.011 sec  ( 12.8% of XC)
    Density eval.           ....       0.014 sec  ( 15.5% of XC)
    XC-Functional eval.     ....       0.007 sec  (  7.7% of XC)
    XC-Potential eval.      ....       0.020 sec  ( 22.5% of XC)
Diagonalization             ....       0.008 sec  (  0.2%)
Density matrix formation    ....       0.003 sec  (  0.1%)
Population analysis         ....       0.003 sec  (  0.1%)
Initial guess               ....       0.083 sec  (  1.7%)
Orbital Transformation      ....       0.000 sec  (  0.0%)
Orbital Orthonormalization  ....       0.000 sec  (  0.0%)
DIIS solution               ....       0.004 sec  (  0.1%)
Grid generation             ....       0.112 sec  (  2.3%)


-------------------------------------------------------------------------------
                          DFT DISPERSION CORRECTION                            
                                                                               
                              DFTD3 V3.1  Rev 1                                
                          USING Becke-Johnson damping                          
-------------------------------------------------------------------------------
The TPSSH functional is recognized
Active option DFTDOPT                   ...         4   

molecular C6(AA) [au] = 167.168230 


            DFT-D V3
 parameters
 s6 scaling factor         :     1.0000 
 a1 scaling factor         :     0.4529 
 s8 scaling factor         :     2.2382 
 a2 scaling factor         :     4.6550 
 ad hoc parameters k1-k3   :    16.0000     1.3333    -4.0000 

 Edisp/kcal,au: -0.000000000000  -0.000000000000 
 E6   /kcal   :  -0.000000000 
 E8   /kcal   :  -0.000000000 
 % E8         :          -nan 

-------------------------   ----------------
Dispersion correction            0.000000000
-------------------------   ----------------


-------------------------   --------------------
FINAL SINGLE POINT ENERGY     -2574.071556277885
-------------------------   --------------------


                            ***************************************
                            *     ORCA property calculations      *
                            ***************************************

                                    ---------------------
                                    Active property flags
                                    ---------------------
   (+) Dipole Moment


------------------------------------------------------------------------------
                       ORCA ELECTRIC PROPERTIES CALCULATION
------------------------------------------------------------------------------

Dipole Moment Calculation                       ... on
Quadrupole Moment Calculation                   ... off
Polarizability Calculation                      ... off
GBWName                                         ... 74_Br.gbw
Electron density file                           ... 74_Br.scfp
The origin for moment calculation is the CENTER OF MASS  = ( 0.000000,  0.000000  0.000000)

-------------
DIPOLE MOMENT
-------------
                                X             Y             Z
Electronic contribution:      0.00000      -0.00000      -0.00000
Nuclear contribution   :      0.00000       0.00000       0.00000
                        -----------------------------------------
Total Dipole Moment    :      0.00000      -0.00000      -0.00000
                        -----------------------------------------
Magnitude (a.u.)       :      0.00000
Magnitude (Debye)      :      0.00000



--------------------
Rotational spectrum 
--------------------
 
Rotational constants in cm-1:     0.000000     0.000000     0.000000 
Rotational constants in MHz :     0.000000     0.000000     0.000000 

 Dipole components along the rotational axes: 
x,y,z [a.u.] :     0.000000    -0.000000    -0.000000 
x,y,z [Debye]:     0.000000    -0.000000    -0.000000 

 

Timings for individual modules:

Sum of individual times         ...        6.535 sec (=   0.109 min)
GTO integral calculation        ...        1.211 sec (=   0.020 min)  18.5 %
SCF iterations                  ...        5.324 sec (=   0.089 min)  81.5 %
                             ****ORCA TERMINATED NORMALLY****
TOTAL RUN TIME: 0 days 0 hours 0 minutes 7 seconds 130 msec
