
                                 *****************
                                 * O   R   C   A *
                                 *****************

           --- An Ab Initio, DFT and Semiempirical electronic structure package ---

                  #######################################################
                  #                        -***-                        #
                  #          Department of theory and spectroscopy      #
                  #               Directorship: Frank Neese             #
                  #        Max Planck Institute fuer Kohlenforschung    #
                  #                Kaiser Wilhelm Platz 1               #
                  #                 D-45470 Muelheim/Ruhr               #
                  #                      Germany                        #
                  #                                                     #
                  #                  All rights reserved                #
                  #                        -***-                        #
                  #######################################################


                         Program Version 4.2.0 -  RELEASE  -


 With contributions from (in alphabetic order):
   Daniel Aravena         : Magnetic Suceptibility
   Michael Atanasov       : Ab Initio Ligand Field Theory (pilot matlab implementation)
   Alexander A. Auer      : GIAO ZORA, VPT2
   Ute Becker             : Parallelization
   Giovanni Bistoni       : ED, misc. LED, open-shell LED, HFLED
   Martin Brehm           : Molecular dynamics
   Dmytro Bykov           : SCF Hessian
   Vijay G. Chilkuri      : MRCI spin determinant printing, contributions to CSF-ICE
   Dipayan Datta          : RHF DLPNO-CCSD density
   Achintya Kumar Dutta   : EOM-CC, STEOM-CC
   Dmitry Ganyushin       : Spin-Orbit,Spin-Spin,Magnetic field MRCI
   Miquel Garcia          : C-PCM Hessian, Gaussian charge scheme
   Yang Guo               : DLPNO-NEVPT2, CIM, IAO-localization
   Andreas Hansen         : Spin unrestricted coupled pair/coupled cluster methods
   Benjamin Helmich-Paris : CASSCF linear response (MC-RPA)
   Lee Huntington         : MR-EOM, pCC
   Robert Izsak           : Overlap fitted RIJCOSX, COSX-SCS-MP3, EOM
   Christian Kollmar      : KDIIS, OOCD, Brueckner-CCSD(T), CCSD density
   Simone Kossmann        : Meta GGA functionals, TD-DFT gradient, OOMP2, MP2 Hessian
   Martin Krupicka        : AUTO-CI
   Lucas Lang             : DCDCAS
   Dagmar Lenk            : GEPOL surface, SMD
   Dimitrios Liakos       : Extrapolation schemes; Compound Job, initial MDCI parallelization
   Dimitrios Manganas     : Further ROCIS development; embedding schemes
   Dimitrios Pantazis     : SARC Basis sets
   Taras Petrenko         : DFT Hessian,TD-DFT gradient, ASA, ECA, R-Raman, ABS, FL, XAS/XES, NRVS
   Peter Pinski           : DLPNO-MP2, DLPNO-MP2 Gradient
   Christoph Reimann      : Effective Core Potentials
   Marius Retegan         : Local ZFS, SOC
   Christoph Riplinger    : Optimizer, TS searches, QM/MM, DLPNO-CCSD(T), (RO)-DLPNO pert. Triples
   Tobias Risthaus        : Range-separated hybrids, TD-DFT gradient, RPA, STAB
   Michael Roemelt        : Original ROCIS implementation
   Masaaki Saitow         : Open-shell DLPNO-CCSD energy and density
   Barbara Sandhoefer     : DKH picture change effects
   Avijit Sen             : IP-ROCIS
   Kantharuban Sivalingam : CASSCF convergence, NEVPT2, FIC-MRCI
   Bernardo de Souza      : ESD, SOC TD-DFT
   Georgi Stoychev        : AutoAux, RI-MP2 NMR
   Willem Van den Heuvel  : Paramagnetic NMR
   Boris Wezisla          : Elementary symmetry handling
   Frank Wennmohs         : Technical directorship


 We gratefully acknowledge several colleagues who have allowed us to
 interface, adapt or use parts of their codes:
   Stefan Grimme, W. Hujo, H. Kruse,             : VdW corrections, initial TS optimization,
                  C. Bannwarth                     DFT functionals, gCP, sTDA/sTD-DF
   Ed Valeev, F. Pavosevic, A. Kumar             : LibInt (2-el integral package), F12 methods
   Garnet Chan, S. Sharma, J. Yang, R. Olivares  : DMRG
   Ulf Ekstrom                                   : XCFun DFT Library
   Mihaly Kallay                                 : mrcc  (arbitrary order and MRCC methods)
   Andreas Klamt, Michael Diedenhofen            : otool_cosmo (COSMO solvation model)
   Jiri Pittner, Ondrej Demel                    : Mk-CCSD
   Frank Weinhold                                : gennbo (NPA and NBO analysis)
   Christopher J. Cramer and Donald G. Truhlar   : smd solvation model
   Lars Goerigk                                  : TD-DFT with DH, B97 family of functionals
   V. Asgeirsson, H. Jonsson                     : NEB implementation
   FAccTs GmbH                                   : IRC, NEB, NEB-TS, Multilevel, MM, QM/MM, CI optimization
   S Lehtola, MJT Oliveira, MAL Marques          : LibXC Library


 Your calculation uses the libint2 library for the computation of 2-el integrals
 For citations please refer to: http://libint.valeyev.net

 Your ORCA version has been built with support for libXC version: 4.2.3
 For citations please refer to: https://tddft.org/programs/libxc/

 This ORCA versions uses:
   CBLAS   interface :  Fast vector & matrix operations
   LAPACKE interface :  Fast linear algebra routines
   SCALAPACK package :  Parallel linear algebra routines


Your calculation utilizes the atom-pairwise dispersion correction
with the Becke-Johnson damping scheme (D3BJ)
Cite in your paper:
S.Grimme, S.Ehrlich, L.Goerigk, J Comput Chem, (2011), 32, 1456–1465 
S.Grimme, J.Antony, S.Ehrlich and H.Krieg, J.Chem.Phys., 132, (2010), 154104 
   

----- Orbital basis set information -----
Your calculation utilizes the basis: aug-cc-pVTZ 
    H, B-Ne : Obtained from the ccRepo (grant-hill.group.shef.ac.uk/ccrepo) Feb. 2017
              R. A. Kendall, T. H. Dunning, Jr., R. J. Harrison, J. Chem. Phys. 96, 6796 (1992)
         He : Obtained from the ccRepo (grant-hill.group.shef.ac.uk/ccrepo) Feb. 2017
              D. E. Woon, T. H. Dunning, Jr., J. Chem. Phys. 100, 2975 (1994)
  Li-Be, Na : Obtained from the ccRepo (grant-hill.group.shef.ac.uk/ccrepo) Feb. 2017
              B. P. Prascher, D. E. Woon, K. A. Peterson, T. H. Dunning, Jr., A. K. Wilson, Theor. Chem. Acc. 128, 69 (2011)
         Mg : Obtained from the Peterson Research Group Website (tyr0.chem.wsu.edu/~kipeters) Feb. 2017
              B. P. Prascher, D. E. Woon, K. A. Peterson, T. H. Dunning, Jr., A. K. Wilson, Theor. Chem. Acc. 128, 69 (2011)
      Al-Ar : Obtained from the ccRepo (grant-hill.group.shef.ac.uk/ccrepo) Feb. 2017
              D. E. Woon, T. H. Dunning, Jr., J. Chem. Phys. 98, 1358 (1993)
      Sc-Zn : Obtained from the ccRepo (grant-hill.group.shef.ac.uk/ccrepo) Feb. 2017
              N. B. Balabanov, K. A. Peterson, J. Chem. Phys. 123, 064107 (2005)
              N. B. Balabanov, K. A. Peterson, J. Chem. Phys. 125, 074110 (2006)
      Ga-Kr : Obtained from the ccRepo (grant-hill.group.shef.ac.uk/ccrepo) Feb. 2017
              A. K. Wilson, D. E. Woon, K. A. Peterson, T. H. Dunning, Jr., J. Chem. Phys. 110, 7667 (1999)
     Ag, Au : Obtained from the Peterson Research Group Website (tyr0.chem.wsu.edu/~kipeters) Feb. 2017
              K. A. Peterson, C. Puzzarini, Theor. Chem. Acc. 114, 283 (2005)

----- AuxJK basis set information -----
Your calculation utilizes the auxiliary basis: def2/JK
   H-Ba, Hf-Rn: F. Weigend, J. Comput. Chem. 29, 167 (2008).

================================================================================
                                        WARNINGS
                       Please study these warnings very carefully!
================================================================================


WARNING: your system is open-shell and RHF/RKS was chosen
  ===> : WILL SWITCH to UHF/UKS


INFO   : the flag for use of LIBINT has been found!

================================================================================
                                       INPUT FILE
================================================================================
NAME = 75_O.in
|  1> #
|  2> # 75_O tpssh/aug-cc-pvtz
|  3> #
|  4> ! tpssh d3bj aug-cc-pvtz def2/jk grid4 nofinalgrid
|  5> 
|  6> *xyz 0 3
|  7> O 0.0 0.0 0.0
|  8> *
|  9> 
| 10> %pal
| 11> nprocs 24
| 12> end
| 13> 
| 14> 
| 15>                          ****END OF INPUT****
================================================================================

                       ****************************
                       * Single Point Calculation *
                       ****************************

---------------------------------
CARTESIAN COORDINATES (ANGSTROEM)
---------------------------------
  O      0.000000    0.000000    0.000000

----------------------------
CARTESIAN COORDINATES (A.U.)
----------------------------
  NO LB      ZA    FRAG     MASS         X           Y           Z
   0 O     8.0000    0    15.999    0.000000    0.000000    0.000000

--------------------------------
INTERNAL COORDINATES (ANGSTROEM)
--------------------------------
 O      0   0   0     0.000000000000     0.00000000     0.00000000

---------------------------
INTERNAL COORDINATES (A.U.)
---------------------------
 O      0   0   0     0.000000000000     0.00000000     0.00000000

---------------------
BASIS SET INFORMATION
---------------------
There are 1 groups of distinct atoms

 Group   1 Type O   : 19s6p3d2f contracted to 5s4p3d2f pattern {88111/3111/111/11}

Atom   0O    basis set group =>   1
----------------------------------
AUXILIARY/JK BASIS SET INFORMATION
----------------------------------
There are 1 groups of distinct atoms

 Group   1 Type O   : 14s10p6d2f1g contracted to 10s8p4d2f1g pattern {5111111111/31111111/3111/11/1}

Atom   0O    basis set group =>   1


           ************************************************************
           *        Program running with 24 parallel MPI-processes    *
           *              working on a common directory               *
           ************************************************************
------------------------------------------------------------------------------
                           ORCA GTO INTEGRAL CALCULATION
------------------------------------------------------------------------------

                         BASIS SET STATISTICS AND STARTUP INFO

 # of primitive gaussian shells          ...   30
 # of primitive gaussian functions       ...   66
 # of contracted shells                  ...   14
 # of contracted basis functions         ...   46
 Highest angular momentum                ...    3
 Maximum contraction depth               ...    8
 Integral package used                   ... LIBINT
 Integral threshhold            Thresh   ...  1.000e-10
 Primitive cut-off              TCut     ...  1.000e-11


------------------------------ INTEGRAL EVALUATION ----------------------------


 * One electron integrals 
 Pre-screening matrix                    ... done
 Shell pair data                         ... done (   0.000 sec)



           ************************************************************
           *        Program running with 24 parallel MPI-processes    *
           *              working on a common directory               *
           ************************************************************
-------------------------------------------------------------------------------
                                 ORCA SCF
-------------------------------------------------------------------------------

------------
SCF SETTINGS
------------
Hamiltonian:
 Density Functional     Method          .... DFT(GTOs)
 Exchange Functional    Exchange        .... TPSS
 Correlation Functional Correlation     .... TPSS
 LDA part of GGA corr.  LDAOpt          .... PW91-LDA
 Gradients option       PostSCFGGA      .... off
 Hybrid DFT is turned on
   Fraction HF Exchange ScalHFX         ....  0.100000
   Scaling of DF-GGA-X  ScalDFX         ....  0.900000
   Scaling of DF-GGA-C  ScalDFC         ....  1.000000
   Scaling of DF-LDA-C  ScalLDAC        ....  1.000000
   Perturbative correction              ....  0.000000
   Density functional embedding theory  .... OFF
   NL short-range parameter             ....  5.200000


General Settings:
 Integral files         IntName         .... 75_O
 Hartree-Fock type      HFTyp           .... UHF
 Total Charge           Charge          ....    0
 Multiplicity           Mult            ....    3
 Number of Electrons    NEL             ....    8
 Basis Dimension        Dim             ....   46
 Nuclear Repulsion      ENuc            ....      0.0000000000 Eh

Convergence Acceleration:
 DIIS                   CNVDIIS         .... on
   Start iteration      DIISMaxIt       ....    12
   Startup error        DIISStart       ....  0.200000
   # of expansion vecs  DIISMaxEq       ....     5
   Bias factor          DIISBfac        ....   1.050
   Max. coefficient     DIISMaxC        ....  10.000
 Newton-Raphson         CNVNR           .... off
 SOSCF                  CNVSOSCF        .... off
 Level Shifting         CNVShift        .... on
   Level shift para.    LevelShift      ....    0.2500
   Turn off err/grad.   ShiftErr        ....    0.0010
 Zerner damping         CNVZerner       .... off
 Static damping         CNVDamp         .... on
   Fraction old density DampFac         ....    0.7000
   Max. Damping (<1)    DampMax         ....    0.9800
   Min. Damping (>=0)   DampMin         ....    0.0000
   Turn off err/grad.   DampErr         ....    0.1000
 Fernandez-Rico         CNVRico         .... off

SCF Procedure:
 Maximum # iterations   MaxIter         ....   125
 SCF integral mode      SCFMode         .... Direct
   Integral package                     .... LIBINT
 Reset frequency        DirectResetFreq ....    20
 Integral Threshold     Thresh          ....  1.000e-10 Eh
 Primitive CutOff       TCut            ....  1.000e-11 Eh

Convergence Tolerance:
 Convergence Check Mode ConvCheckMode   .... Total+1el-Energy
 Convergence forced     ConvForced      .... 0
 Energy Change          TolE            ....  1.000e-06 Eh
 1-El. energy change                    ....  1.000e-03 Eh
 DIIS Error             TolErr          ....  1.000e-06


Diagonalization of the overlap matrix:
Smallest eigenvalue                        ... 2.789e-02
Time for diagonalization                   ...    0.001 sec
Threshold for overlap eigenvalues          ... 1.000e-08
Number of eigenvalues below threshold      ... 0
Time for construction of square roots      ...    0.001 sec
Total time needed                          ...    0.002 sec

-------------------
DFT GRID GENERATION
-------------------

General Integration Accuracy     IntAcc      ...  4.670
Radial Grid Type                 RadialGrid  ... Gauss-Chebyshev
Angular Grid (max. acc.)         AngularGrid ... Lebedev-302
Angular grid pruning method      GridPruning ... 3 (G Style)
Weight generation scheme         WeightScheme... Becke
Basis function cutoff            BFCut       ...    1.0000e-10
Integration weight cutoff        WCut        ...    1.0000e-14
Grids for H and He will be reduced by one unit

# of grid points (after initial pruning)     ...   6212 (   0.0 sec)
# of grid points (after weights+screening)   ...   6212 (   0.0 sec)
Grid point division into batches done        ...    0.0 sec
Reduced shell lists constructed in    0.0 sec

Total number of grid points                  ...     6212
Total number of batches                      ...       98
Average number of points per batch           ...       63
Average number of grid points per atom       ...     6212
Average number of shells per batch           ...     3.33 (23.81%)
Average number of basis functions per batch  ...    10.00 (21.74%)
Average number of large shells per batch     ...     1.67 (50.00%)
Average number of large basis fcns per batch ...     3.33 (33.33%)
Maximum spatial batch extension              ...  15.22, 15.22, 15.22 au
Average spatial batch extension              ...   0.68,  0.68,  0.73 au

Time for grid setup =    0.051 sec

------------------------------
INITIAL GUESS: MODEL POTENTIAL
------------------------------
Loading Hartree-Fock densities                     ... done
Calculating cut-offs                               ... done
Setting up the integral package                    ... done
Initializing the effective Hamiltonian             ... done
Starting the Coulomb interaction                   ... done (   0.0 sec)
Reading the grid                                   ... done
Mapping shells                                     ... done
Starting the XC term evaluation                    ... done (   0.0 sec)
  promolecular density results
     # of electrons  =      8.000000057
     EX              =     -8.014593270
     EC              =     -0.245940534
     EX+EC           =     -8.260533804
Transforming the Hamiltonian                       ... done (   0.0 sec)
Diagonalizing the Hamiltonian                      ... done (   0.0 sec)
Back transforming the eigenvectors                 ... done (   0.0 sec)
Now organizing SCF variables                       ... done
                      ------------------
                      INITIAL GUESS DONE (   0.2 sec)
                      ------------------
--------------
SCF ITERATIONS
--------------
ITER       Energy         Delta-E        Max-DP      RMS-DP      [F,P]     Damp
               ***  Starting incremental Fock matrix formation  ***
  0    -75.0892022689   0.000000000000 0.00652460  0.00028960  0.0478113 0.7000
  1    -75.0915159201  -0.002313651261 0.00523829  0.00024438  0.0321453 0.7000
                               ***Turning on DIIS***
  2    -75.0931569367  -0.001641016533 0.01271709  0.00059599  0.0216011 0.0000
  3    -75.0971259381  -0.003969001403 0.00446696  0.00015953  0.0155506 0.0000
  4    -75.0972618550  -0.000135916960 0.00101106  0.00005160  0.0037253 0.0000
  5    -75.0972880235  -0.000026168503 0.00046110  0.00002474  0.0005025 0.0000
  6    -75.0972906895  -0.000002665992 0.00008942  0.00000350  0.0001710 0.0000
                 **** Energy Check signals convergence ****

               *****************************************************
               *                     SUCCESS                       *
               *           SCF CONVERGED AFTER   7 CYCLES          *
               *****************************************************


----------------
TOTAL SCF ENERGY
----------------

Total Energy       :          -75.09729075 Eh           -2043.50117 eV

Components:
Nuclear Repulsion  :            0.00000000 Eh               0.00000 eV
Electronic Energy  :          -75.09729075 Eh           -2043.50117 eV
One Electron Energy:         -103.20868570 Eh           -2808.45112 eV
Two Electron Energy:           28.11139495 Eh             764.94995 eV

Virial components:
Potential Energy   :         -149.86123036 Eh           -4077.93140 eV
Kinetic Energy     :           74.76393962 Eh            2034.43023 eV
Virial Ratio       :            2.00445872


DFT components:
N(Alpha)           :        4.999999745739 electrons
N(Beta)            :        2.999999742954 electrons
N(Total)           :        7.999999488693 electrons
E(X)               :       -7.422373260558 Eh       
E(C)               :       -0.236757974589 Eh       
E(XC)              :       -7.659131235147 Eh       
DFET-embed. en.    :        0.000000000000 Eh       

---------------
SCF CONVERGENCE
---------------

  Last Energy change         ...   -5.7699e-08  Tolerance :   1.0000e-06
  Last MAX-Density change    ...    1.3182e-05  Tolerance :   1.0000e-05
  Last RMS-Density change    ...    5.6549e-07  Tolerance :   1.0000e-06
  Last DIIS Error            ...    8.3435e-06  Tolerance :   1.0000e-06

             **** THE GBW FILE WAS UPDATED (75_O.gbw) ****
             **** DENSITY FILE WAS UPDATED (75_O.scfp) ****
             **** ENERGY FILE WAS UPDATED (75_O.en.tmp) ****
----------------------
UHF SPIN CONTAMINATION
----------------------

Warning: in a DFT calculation there is little theoretical justification to 
         calculate <S**2> as in Hartree-Fock theory. We will do it anyways
         but you should keep in mind that the values have only limited relevance

Expectation value of <S**2>     :     2.003938
Ideal value S*(S+1) for S=1.0   :     2.000000
Deviation                       :     0.003938

             **** THE GBW FILE WAS UPDATED (75_O.gbw) ****
             **** DENSITY FILE WAS UPDATED (75_O.scfp) ****
----------------
ORBITAL ENERGIES
----------------
                 SPIN UP ORBITALS
  NO   OCC          E(Eh)            E(eV) 
   0   1.0000     -19.205078      -522.5968 
   1   1.0000      -0.999498       -27.1977 
   2   1.0000      -0.438763       -11.9393 
   3   1.0000      -0.438763       -11.9393 
   4   1.0000      -0.356990        -9.7142 
   5   0.0000       0.065352         1.7783 
   6   0.0000       0.094290         2.5658 
   7   0.0000       0.094291         2.5658 
   8   0.0000       0.102090         2.7780 
   9   0.0000       0.488456        13.2916 
  10   0.0000       0.488456        13.2916 
  11   0.0000       0.501947        13.6587 
  12   0.0000       0.501947        13.6587 
  13   0.0000       0.506793        13.7905 
  14   0.0000       0.686272        18.6744 
  15   0.0000       0.686272        18.6744 
  16   0.0000       0.720055        19.5937 
  17   0.0000       1.027284        27.9538 
  18   0.0000       1.765770        48.0490 
  19   0.0000       1.765770        48.0490 
  20   0.0000       1.770395        48.1749 
  21   0.0000       1.770395        48.1749 
  22   0.0000       1.783172        48.5226 
  23   0.0000       1.783172        48.5226 
  24   0.0000       1.794779        48.8384 
  25   0.0000       1.794779        48.8384 
  26   0.0000       1.798528        48.9404 
  27   0.0000       1.812787        49.3284 
  28   0.0000       1.812787        49.3284 
  29   0.0000       1.828695        49.7613 
  30   0.0000       3.579491        97.4029 
  31   0.0000       3.579491        97.4029 
  32   0.0000       3.645565        99.2009 
  33   0.0000       5.931151       161.3948 
  34   0.0000       5.931151       161.3948 
  35   0.0000       5.973202       162.5391 
  36   0.0000       5.973202       162.5391 
  37   0.0000       5.999539       163.2558 
  38   0.0000       5.999539       163.2558 
  39   0.0000       6.008374       163.4962 
  40   0.0000       6.317787       171.9157 
  41   0.0000       6.317787       171.9157 
  42   0.0000       6.381317       173.6445 
  43   0.0000       6.381317       173.6445 
  44   0.0000       6.403536       174.2491 
  45   0.0000       7.654515       208.2900 

                 SPIN DOWN ORBITALS
  NO   OCC          E(Eh)            E(eV) 
   0   1.0000     -19.149358      -521.0805 
   1   1.0000      -0.837095       -22.7785 
   2   1.0000      -0.317387        -8.6365 
   3   0.0000      -0.185997        -5.0612 
   4   0.0000      -0.185997        -5.0612 
   5   0.0000       0.085369         2.3230 
   6   0.0000       0.105843         2.8801 
   7   0.0000       0.121976         3.3191 
   8   0.0000       0.121977         3.3192 
   9   0.0000       0.518862        14.1190 
  10   0.0000       0.518863        14.1190 
  11   0.0000       0.520041        14.1510 
  12   0.0000       0.526076        14.3153 
  13   0.0000       0.526077        14.3153 
  14   0.0000       0.739545        20.1240 
  15   0.0000       0.773951        21.0603 
  16   0.0000       0.773952        21.0603 
  17   0.0000       1.109150        30.1815 
  18   0.0000       1.819628        49.5146 
  19   0.0000       1.819628        49.5146 
  20   0.0000       1.821021        49.5525 
  21   0.0000       1.821413        49.5632 
  22   0.0000       1.821413        49.5632 
  23   0.0000       1.830852        49.8200 
  24   0.0000       1.830852        49.8200 
  25   0.0000       1.874148        50.9982 
  26   0.0000       1.874149        50.9982 
  27   0.0000       1.883985        51.2658 
  28   0.0000       1.895960        51.5917 
  29   0.0000       1.895960        51.5917 
  30   0.0000       3.736231       101.6680 
  31   0.0000       3.747592       101.9772 
  32   0.0000       3.747592       101.9772 
  33   0.0000       6.060925       164.9261 
  34   0.0000       6.060925       164.9262 
  35   0.0000       6.075058       165.3107 
  36   0.0000       6.075058       165.3107 
  37   0.0000       6.107147       166.1839 
  38   0.0000       6.107147       166.1839 
  39   0.0000       6.109728       166.2541 
  40   0.0000       6.564186       178.6206 
  41   0.0000       6.564188       178.6206 
  42   0.0000       6.565041       178.6438 
  43   0.0000       6.566606       178.6864 
  44   0.0000       6.566608       178.6865 
  45   0.0000       7.785666       211.8587 

                    ********************************
                    * MULLIKEN POPULATION ANALYSIS *
                    ********************************

--------------------------------------------
MULLIKEN ATOMIC CHARGES AND SPIN POPULATIONS
--------------------------------------------
   0 O :    0.000000    2.000000
Sum of atomic charges         :    0.0000000
Sum of atomic spin populations:    2.0000000

-----------------------------------------------------
MULLIKEN REDUCED ORBITAL CHARGES AND SPIN POPULATIONS
-----------------------------------------------------
CHARGE
  0 O s       :     3.999237  s :     3.999237
      pz      :     1.002855  p :     3.999704
      px      :     1.996631
      py      :     1.000218
      dz2     :     0.000187  d :     0.000763
      dxz     :     0.000007
      dyz     :     0.000000
      dx2y2   :     0.000568
      dxy     :     0.000001
      f0      :     0.000029  f :     0.000296
      f+1     :     0.000053
      f-1     :     0.000005
      f+2     :     0.000049
      f-2     :     0.000001
      f+3     :     0.000088
      f-3     :     0.000072

SPIN
  0 O s       :    -0.000131  s :    -0.000131
      pz      :     0.996990  p :     1.999730
      px      :     0.003113
      py      :     0.999627
      dz2     :     0.000032  d :     0.000131
      dxz     :     0.000001
      dyz     :     0.000000
      dx2y2   :     0.000097
      dxy     :     0.000000
      f0      :     0.000029  f :     0.000270
      f+1     :     0.000043
      f-1     :     0.000005
      f+2     :     0.000049
      f-2     :     0.000001
      f+3     :     0.000071
      f-3     :     0.000072


                     *******************************
                     * LOEWDIN POPULATION ANALYSIS *
                     *******************************

-------------------------------------------
LOEWDIN ATOMIC CHARGES AND SPIN POPULATIONS
-------------------------------------------
   0 O :    0.000000    2.000000

----------------------------------------------------
LOEWDIN REDUCED ORBITAL CHARGES AND SPIN POPULATIONS
----------------------------------------------------
CHARGE
  0 O s       :     3.999237  s :     3.999237
      pz      :     1.002855  p :     3.999704
      px      :     1.996631
      py      :     1.000218
      dz2     :     0.000187  d :     0.000763
      dxz     :     0.000007
      dyz     :     0.000000
      dx2y2   :     0.000568
      dxy     :     0.000001
      f0      :     0.000029  f :     0.000296
      f+1     :     0.000053
      f-1     :     0.000005
      f+2     :     0.000049
      f-2     :     0.000001
      f+3     :     0.000088
      f-3     :     0.000072

SPIN
  0 O s       :    -0.000131  s :    -0.000131
      pz      :     0.996990  p :     1.999730
      px      :     0.003113
      py      :     0.999627
      dz2     :     0.000032  d :     0.000131
      dxz     :     0.000001
      dyz     :     0.000000
      dx2y2   :     0.000097
      dxy     :     0.000000
      f0      :     0.000029  f :     0.000270
      f+1     :     0.000043
      f-1     :     0.000005
      f+2     :     0.000049
      f-2     :     0.000001
      f+3     :     0.000071
      f-3     :     0.000072


                      *****************************
                      * MAYER POPULATION ANALYSIS *
                      *****************************

  NA   - Mulliken gross atomic population
  ZA   - Total nuclear charge
  QA   - Mulliken gross atomic charge
  VA   - Mayer's total valence
  BVA  - Mayer's bonded valence
  FA   - Mayer's free valence

  ATOM       NA         ZA         QA         VA         BVA        FA
  0 O      8.0000     8.0000     0.0000     2.0079     0.0000     2.0079

  Mayer bond orders larger than 0.100000


-------
TIMINGS
-------

Total SCF time: 0 days 0 hours 0 min 1 sec 

Total time                  ....       1.047 sec
Sum of individual times     ....       0.879 sec  ( 83.9%)

Fock matrix formation       ....       0.711 sec  ( 67.9%)
  XC integration            ....       0.055 sec  (  7.7% of F)
    Basis function eval.    ....       0.003 sec  (  5.8% of XC)
    Density eval.           ....       0.006 sec  ( 10.3% of XC)
    XC-Functional eval.     ....       0.005 sec  (  8.7% of XC)
    XC-Potential eval.      ....       0.009 sec  ( 17.1% of XC)
Diagonalization             ....       0.006 sec  (  0.6%)
Density matrix formation    ....       0.001 sec  (  0.1%)
Population analysis         ....       0.003 sec  (  0.3%)
Initial guess               ....       0.104 sec  (  9.9%)
Orbital Transformation      ....       0.000 sec  (  0.0%)
Orbital Orthonormalization  ....       0.000 sec  (  0.0%)
DIIS solution               ....       0.003 sec  (  0.3%)
Grid generation             ....       0.051 sec  (  4.9%)


-------------------------------------------------------------------------------
                          DFT DISPERSION CORRECTION                            
                                                                               
                              DFTD3 V3.1  Rev 1                                
                          USING Becke-Johnson damping                          
-------------------------------------------------------------------------------
The TPSSH functional is recognized
Active option DFTDOPT                   ...         4   

molecular C6(AA) [au] = 15.451431 


            DFT-D V3
 parameters
 s6 scaling factor         :     1.0000 
 a1 scaling factor         :     0.4529 
 s8 scaling factor         :     2.2382 
 a2 scaling factor         :     4.6550 
 ad hoc parameters k1-k3   :    16.0000     1.3333    -4.0000 

 Edisp/kcal,au: -0.000000000000  -0.000000000000 
 E6   /kcal   :  -0.000000000 
 E8   /kcal   :  -0.000000000 
 % E8         :          -nan 

-------------------------   ----------------
Dispersion correction            0.000000000
-------------------------   ----------------


-------------------------   --------------------
FINAL SINGLE POINT ENERGY       -75.097290747220
-------------------------   --------------------


                            ***************************************
                            *     ORCA property calculations      *
                            ***************************************

                                    ---------------------
                                    Active property flags
                                    ---------------------
   (+) Dipole Moment


------------------------------------------------------------------------------
                       ORCA ELECTRIC PROPERTIES CALCULATION
------------------------------------------------------------------------------

Dipole Moment Calculation                       ... on
Quadrupole Moment Calculation                   ... off
Polarizability Calculation                      ... off
GBWName                                         ... 75_O.gbw
Electron density file                           ... 75_O.scfp
The origin for moment calculation is the CENTER OF MASS  = ( 0.000000,  0.000000  0.000000)

-------------
DIPOLE MOMENT
-------------
                                X             Y             Z
Electronic contribution:     -0.00000       0.00000      -0.00000
Nuclear contribution   :      0.00000       0.00000       0.00000
                        -----------------------------------------
Total Dipole Moment    :     -0.00000       0.00000      -0.00000
                        -----------------------------------------
Magnitude (a.u.)       :      0.00000
Magnitude (Debye)      :      0.00000



--------------------
Rotational spectrum 
--------------------
 
Rotational constants in cm-1:     0.000000     0.000000     0.000000 
Rotational constants in MHz :     0.000000     0.000000     0.000000 

 Dipole components along the rotational axes: 
x,y,z [a.u.] :    -0.000000     0.000000    -0.000000 
x,y,z [Debye]:    -0.000000     0.000000    -0.000000 

 

Timings for individual modules:

Sum of individual times         ...        2.063 sec (=   0.034 min)
GTO integral calculation        ...        0.660 sec (=   0.011 min)  32.0 %
SCF iterations                  ...        1.404 sec (=   0.023 min)  68.0 %
                             ****ORCA TERMINATED NORMALLY****
TOTAL RUN TIME: 0 days 0 hours 0 minutes 2 seconds 542 msec
