
                                 *****************
                                 * O   R   C   A *
                                 *****************

           --- An Ab Initio, DFT and Semiempirical electronic structure package ---

                  #######################################################
                  #                        -***-                        #
                  #          Department of theory and spectroscopy      #
                  #               Directorship: Frank Neese             #
                  #        Max Planck Institute fuer Kohlenforschung    #
                  #                Kaiser Wilhelm Platz 1               #
                  #                 D-45470 Muelheim/Ruhr               #
                  #                      Germany                        #
                  #                                                     #
                  #                  All rights reserved                #
                  #                        -***-                        #
                  #######################################################


                         Program Version 4.2.0 -  RELEASE  -


 With contributions from (in alphabetic order):
   Daniel Aravena         : Magnetic Suceptibility
   Michael Atanasov       : Ab Initio Ligand Field Theory (pilot matlab implementation)
   Alexander A. Auer      : GIAO ZORA, VPT2
   Ute Becker             : Parallelization
   Giovanni Bistoni       : ED, misc. LED, open-shell LED, HFLED
   Martin Brehm           : Molecular dynamics
   Dmytro Bykov           : SCF Hessian
   Vijay G. Chilkuri      : MRCI spin determinant printing, contributions to CSF-ICE
   Dipayan Datta          : RHF DLPNO-CCSD density
   Achintya Kumar Dutta   : EOM-CC, STEOM-CC
   Dmitry Ganyushin       : Spin-Orbit,Spin-Spin,Magnetic field MRCI
   Miquel Garcia          : C-PCM Hessian, Gaussian charge scheme
   Yang Guo               : DLPNO-NEVPT2, CIM, IAO-localization
   Andreas Hansen         : Spin unrestricted coupled pair/coupled cluster methods
   Benjamin Helmich-Paris : CASSCF linear response (MC-RPA)
   Lee Huntington         : MR-EOM, pCC
   Robert Izsak           : Overlap fitted RIJCOSX, COSX-SCS-MP3, EOM
   Christian Kollmar      : KDIIS, OOCD, Brueckner-CCSD(T), CCSD density
   Simone Kossmann        : Meta GGA functionals, TD-DFT gradient, OOMP2, MP2 Hessian
   Martin Krupicka        : AUTO-CI
   Lucas Lang             : DCDCAS
   Dagmar Lenk            : GEPOL surface, SMD
   Dimitrios Liakos       : Extrapolation schemes; Compound Job, initial MDCI parallelization
   Dimitrios Manganas     : Further ROCIS development; embedding schemes
   Dimitrios Pantazis     : SARC Basis sets
   Taras Petrenko         : DFT Hessian,TD-DFT gradient, ASA, ECA, R-Raman, ABS, FL, XAS/XES, NRVS
   Peter Pinski           : DLPNO-MP2, DLPNO-MP2 Gradient
   Christoph Reimann      : Effective Core Potentials
   Marius Retegan         : Local ZFS, SOC
   Christoph Riplinger    : Optimizer, TS searches, QM/MM, DLPNO-CCSD(T), (RO)-DLPNO pert. Triples
   Tobias Risthaus        : Range-separated hybrids, TD-DFT gradient, RPA, STAB
   Michael Roemelt        : Original ROCIS implementation
   Masaaki Saitow         : Open-shell DLPNO-CCSD energy and density
   Barbara Sandhoefer     : DKH picture change effects
   Avijit Sen             : IP-ROCIS
   Kantharuban Sivalingam : CASSCF convergence, NEVPT2, FIC-MRCI
   Bernardo de Souza      : ESD, SOC TD-DFT
   Georgi Stoychev        : AutoAux, RI-MP2 NMR
   Willem Van den Heuvel  : Paramagnetic NMR
   Boris Wezisla          : Elementary symmetry handling
   Frank Wennmohs         : Technical directorship


 We gratefully acknowledge several colleagues who have allowed us to
 interface, adapt or use parts of their codes:
   Stefan Grimme, W. Hujo, H. Kruse,             : VdW corrections, initial TS optimization,
                  C. Bannwarth                     DFT functionals, gCP, sTDA/sTD-DF
   Ed Valeev, F. Pavosevic, A. Kumar             : LibInt (2-el integral package), F12 methods
   Garnet Chan, S. Sharma, J. Yang, R. Olivares  : DMRG
   Ulf Ekstrom                                   : XCFun DFT Library
   Mihaly Kallay                                 : mrcc  (arbitrary order and MRCC methods)
   Andreas Klamt, Michael Diedenhofen            : otool_cosmo (COSMO solvation model)
   Jiri Pittner, Ondrej Demel                    : Mk-CCSD
   Frank Weinhold                                : gennbo (NPA and NBO analysis)
   Christopher J. Cramer and Donald G. Truhlar   : smd solvation model
   Lars Goerigk                                  : TD-DFT with DH, B97 family of functionals
   V. Asgeirsson, H. Jonsson                     : NEB implementation
   FAccTs GmbH                                   : IRC, NEB, NEB-TS, Multilevel, MM, QM/MM, CI optimization
   S Lehtola, MJT Oliveira, MAL Marques          : LibXC Library


 Your calculation uses the libint2 library for the computation of 2-el integrals
 For citations please refer to: http://libint.valeyev.net

 Your ORCA version has been built with support for libXC version: 4.2.3
 For citations please refer to: https://tddft.org/programs/libxc/

 This ORCA versions uses:
   CBLAS   interface :  Fast vector & matrix operations
   LAPACKE interface :  Fast linear algebra routines
   SCALAPACK package :  Parallel linear algebra routines


----- Orbital basis set information -----
Your calculation utilizes the basis: def2-TZVPP
   F. Weigend and R. Ahlrichs, Phys. Chem. Chem. Phys. 7, 3297 (2005).

================================================================================
                                        WARNINGS
                       Please study these warnings very carefully!
================================================================================


WARNING: MDCI localization with Augmented Hessian Foster-Boys
  ===> : Switching off randomization!

WARNING: Post HF methods need fully converged wavefunctions
  ===> : Setting SCFConvForced true
         You can overwrite this default with %scf ConvForced false 


INFO   : the flag for use of LIBINT has been found!

================================================================================
                                       INPUT FILE
================================================================================
NAME = 01_ScH.in
|  1> #
|  2> # 01_ScH ccsd(t)/cbs
|  3> #
|  4> ! ccsd(t) extrapolate(3/4,def2) verytightscf
|  5> 
|  6> *xyz 0 1
|  7>   Sc  0.00000000000000      0.00000000000000      0.11546868383427
|  8>   H   0.00000000000000      0.00000000000000      1.88453131616573
|  9> *
| 10> 
| 11> %maxcore 5000
| 12> %pal
| 13> nprocs 21
| 14> end
| 15> 
| 16> 
| 17>                          ****END OF INPUT****
================================================================================

                   *****************************************
                   * Extrapolated Single Point Calculation *
                   *****************************************

----- Orbital basis set information -----
Your calculation utilizes the basis: def2-TZVPP
   F. Weigend and R. Ahlrichs, Phys. Chem. Chem. Phys. 7, 3297 (2005).

----- AuxJ basis set information -----
Your calculation utilizes the auxiliary basis: def2/J
   F. Weigend, Phys. Chem. Chem. Phys. 8, 1057 (2006).

----- AuxC basis set information -----
Your calculation utilizes the auxiliary basis: def2-TZVPP/C
  H-La, Hf-Rn : A. Hellweg, C. Hattig, S. Hofener and W. Klopper, Theor. Chem. Acc. 117, 587 (2007).
        Ce-Lu : J. Chmela and M. E. Harding, Mol. Phys. (2018).

----- AuxJK basis set information -----
Your calculation utilizes the auxiliary basis: def2/JK
   H-Ba, Hf-Rn: F. Weigend, J. Comput. Chem. 29, 167 (2008).

All done

                     -----------------------------------------
                     Extrapolated Energy 1 Basis=  def2-TZVPP
                     -----------------------------------------

---------------------------------
CARTESIAN COORDINATES (ANGSTROEM)
---------------------------------
  Sc     0.000000    0.000000    0.115469
  H      0.000000    0.000000    1.884531

----------------------------
CARTESIAN COORDINATES (A.U.)
----------------------------
  NO LB      ZA    FRAG     MASS         X           Y           Z
   0 Sc   21.0000    0    44.960    0.000000    0.000000    0.218204
   1 H     1.0000    0     1.008    0.000000    0.000000    3.561248

--------------------------------
INTERNAL COORDINATES (ANGSTROEM)
--------------------------------
 Sc     0   0   0     0.000000000000     0.00000000     0.00000000
 H      1   0   0     1.769062632331     0.00000000     0.00000000

---------------------------
INTERNAL COORDINATES (A.U.)
---------------------------
 Sc     0   0   0     0.000000000000     0.00000000     0.00000000
 H      1   0   0     3.343043888860     0.00000000     0.00000000

---------------------
BASIS SET INFORMATION
---------------------
There are 2 groups of distinct atoms

 Group   1 Type Sc  : 17s12p7d2f1g contracted to 6s5p4d2f1g pattern {842111/63111/4111/11/1}
 Group   2 Type H   : 5s2p1d contracted to 3s2p1d pattern {311/11/1}

Atom   0Sc   basis set group =>   1
Atom   1H    basis set group =>   2
---------------------------------
AUXILIARY/J BASIS SET INFORMATION
---------------------------------
There are 2 groups of distinct atoms

 Group   1 Type Sc  : 19s5p5d3f3g contracted to 8s5p5d2f3g pattern {121111111/11111/11111/21/111}
 Group   2 Type H   : 5s2p1d contracted to 3s1p1d pattern {311/2/1}

Atom   0Sc   basis set group =>   1
Atom   1H    basis set group =>   2
---------------------------------
AUXILIARY/C BASIS SET INFORMATION
---------------------------------
There are 2 groups of distinct atoms

 Group   1 Type Sc  : 9s9p8d7f5g3h1i contracted to 9s9p8d7f5g3h1i pattern {111111111/111111111/11111111/1111111/11111/111/1}
 Group   2 Type H   : 4s3p2d1f contracted to 4s3p2d1f pattern {1111/111/11/1}

Atom   0Sc   basis set group =>   1
Atom   1H    basis set group =>   2
----------------------------------
AUXILIARY/JK BASIS SET INFORMATION
----------------------------------
There are 2 groups of distinct atoms

 Group   1 Type Sc  : 19s14p12d10f7g3h1i contracted to 16s13p11d9f5g3h1i pattern {4111111111111111/2111111111111/21111111111/211111111/31111/111/1}
 Group   2 Type H   : 4s2p2d contracted to 2s2p2d pattern {31/11/11}

Atom   0Sc   basis set group =>   1
Atom   1H    basis set group =>   2


           ************************************************************
           *        Program running with 21 parallel MPI-processes    *
           *              working on a common directory               *
           ************************************************************
------------------------------------------------------------------------------
                           ORCA GTO INTEGRAL CALCULATION
------------------------------------------------------------------------------

                         BASIS SET STATISTICS AND STARTUP INFO

 # of primitive gaussian shells          ...   47
 # of primitive gaussian functions       ...  127
 # of contracted shells                  ...   24
 # of contracted basis functions         ...   78
 Highest angular momentum                ...    4
 Maximum contraction depth               ...    8
 Integral package used                   ... LIBINT
 Integral threshhold            Thresh   ...  1.000e-12
 Primitive cut-off              TCut     ...  1.000e-14


------------------------------ INTEGRAL EVALUATION ----------------------------


 * One electron integrals 
 Pre-screening matrix                    ... done
 Shell pair data                         ... done (   0.000 sec)



           ************************************************************
           *        Program running with 21 parallel MPI-processes    *
           *              working on a common directory               *
           ************************************************************
-------------------------------------------------------------------------------
                                 ORCA SCF
-------------------------------------------------------------------------------

------------
SCF SETTINGS
------------
Hamiltonian:
 Ab initio Hamiltonian  Method          .... Hartree-Fock(GTOs)


General Settings:
 Integral files         IntName         .... 01_ScH
 Hartree-Fock type      HFTyp           .... RHF
 Total Charge           Charge          ....    0
 Multiplicity           Mult            ....    1
 Number of Electrons    NEL             ....   22
 Basis Dimension        Dim             ....   78
 Nuclear Repulsion      ENuc            ....      6.2817003600 Eh

Convergence Acceleration:
 DIIS                   CNVDIIS         .... on
   Start iteration      DIISMaxIt       ....    12
   Startup error        DIISStart       ....  0.200000
   # of expansion vecs  DIISMaxEq       ....     5
   Bias factor          DIISBfac        ....   1.050
   Max. coefficient     DIISMaxC        ....  10.000
 Newton-Raphson         CNVNR           .... off
 SOSCF                  CNVSOSCF        .... off
 Level Shifting         CNVShift        .... on
   Level shift para.    LevelShift      ....    0.2500
   Turn off err/grad.   ShiftErr        ....    0.0010
 Zerner damping         CNVZerner       .... off
 Static damping         CNVDamp         .... on
   Fraction old density DampFac         ....    0.7000
   Max. Damping (<1)    DampMax         ....    0.9800
   Min. Damping (>=0)   DampMin         ....    0.0000
   Turn off err/grad.   DampErr         ....    0.1000
 Fernandez-Rico         CNVRico         .... off

SCF Procedure:
 Maximum # iterations   MaxIter         ....   125
 SCF integral mode      SCFMode         .... Direct
   Integral package                     .... LIBINT
 Reset frequency        DirectResetFreq ....    20
 Integral Threshold     Thresh          ....  1.000e-12 Eh
 Primitive CutOff       TCut            ....  1.000e-14 Eh

Convergence Tolerance:
 Convergence Check Mode ConvCheckMode   .... Total+1el-Energy
 Convergence forced     ConvForced      .... 1
 Energy Change          TolE            ....  1.000e-09 Eh
 1-El. energy change                    ....  1.000e-06 Eh
 DIIS Error             TolErr          ....  1.000e-08


Diagonalization of the overlap matrix:
Smallest eigenvalue                        ... 3.476e-03
Time for diagonalization                   ...    0.002 sec
Threshold for overlap eigenvalues          ... 1.000e-08
Number of eigenvalues below threshold      ... 0
Time for construction of square roots      ...    0.001 sec
Total time needed                          ...    0.003 sec

-------------------
DFT GRID GENERATION
-------------------

General Integration Accuracy     IntAcc      ...  4.340
Radial Grid Type                 RadialGrid  ... Gauss-Chebyshev
Angular Grid (max. acc.)         AngularGrid ... Lebedev-110
Angular grid pruning method      GridPruning ... 3 (G Style)
Weight generation scheme         WeightScheme... Becke
Basis function cutoff            BFCut       ...    1.0000e-12
Integration weight cutoff        WCut        ...    1.0000e-14
Grids for H and He will be reduced by one unit

# of grid points (after initial pruning)     ...   3766 (   0.0 sec)
# of grid points (after weights+screening)   ...   3742 (   0.0 sec)
nearest neighbour list constructed           ...    0.0 sec
Grid point re-assignment to atoms done       ...    0.0 sec
Grid point division into batches done        ...    0.0 sec
Reduced shell lists constructed in    0.0 sec

Total number of grid points                  ...     3742
Total number of batches                      ...       60
Average number of points per batch           ...       62
Average number of grid points per atom       ...     1871
Average number of shells per batch           ...    11.25 (46.88%)
Average number of basis functions per batch  ...    41.25 (52.88%)
Average number of large shells per batch     ...     7.50 (66.67%)
Average number of large basis fcns per batch ...    30.00 (72.73%)
Maximum spatial batch extension              ...  40.30, 31.13, 21.67 au
Average spatial batch extension              ...   1.39,  1.40,  0.93 au

Time for grid setup =    0.018 sec

------------------------------
INITIAL GUESS: MODEL POTENTIAL
------------------------------
Loading Hartree-Fock densities                     ... done
Calculating cut-offs                               ... done
Setting up the integral package                    ... done
Initializing the effective Hamiltonian             ... done
Starting the Coulomb interaction                   ... done (   0.0 sec)
Reading the grid                                   ... done
Mapping shells                                     ... done
Starting the XC term evaluation                    ... done (   0.0 sec)
Transforming the Hamiltonian                       ... done (   0.0 sec)
Diagonalizing the Hamiltonian                      ... done (   0.0 sec)
Back transforming the eigenvectors                 ... done (   0.0 sec)
Now organizing SCF variables                       ... done
                      ------------------
                      INITIAL GUESS DONE (   0.1 sec)
                      ------------------
--------------
SCF ITERATIONS
--------------
ITER       Energy         Delta-E        Max-DP      RMS-DP      [F,P]     Damp
               ***  Starting incremental Fock matrix formation  ***
  0   -760.2194538569   0.000000000000 0.02288343  0.00098601  0.0985334 0.7000
  1   -760.2289062401  -0.009452383152 0.02443607  0.00095075  0.0752591 0.7000
                               ***Turning on DIIS***
  2   -760.2362528906  -0.007346650489 0.07030448  0.00262385  0.0549095 0.0000
  3   -760.2169558567   0.019297033863 0.01691649  0.00069617  0.0189487 0.0000
  4   -760.2618195411  -0.044863684357 0.01862607  0.00063808  0.0130459 0.0000
  5   -760.3538614649  -0.092041923867 0.04045862  0.00092336  0.0109221 0.0000
  6   -760.3733979877  -0.019536522715 0.04971977  0.00098517  0.0090128 0.0000
  7   -760.3866349584  -0.013236970728 0.04943703  0.00091966  0.0067783 0.0000
  8   -760.3284287138   0.058206244605 0.02762312  0.00052573  0.0045367 0.0000
  9   -760.3322505160  -0.003821802194 0.01945726  0.00038832  0.0031165 0.0000
 10   -760.3005434237   0.031707092257 0.00719770  0.00018041  0.0019193 0.0000
 11   -760.2845373385   0.016006085174 0.00413100  0.00008695  0.0011252 0.0000
 12   -760.2734471377   0.011090200879 0.00441965  0.00009658  0.0006035 0.0000
 13   -760.2621399694   0.011307168309 0.00176887  0.00002849  0.0000832 0.0000
 14   -760.2629821955  -0.000842226099 0.00065444  0.00001073  0.0000298 0.0000
 15   -760.2631524693  -0.000170273799 0.00005011  0.00000089  0.0000041 0.0000
 16   -760.2632123125  -0.000059843277 0.00000605  0.00000017  0.0000011 0.0000
 17   -760.2632106604   0.000001652110 0.00000187  0.00000004  0.0000003 0.0000
 18   -760.2632107191  -0.000000058686 0.00000044  0.00000001  0.0000001 0.0000
 19   -760.2632107376  -0.000000018466 0.00000029  0.00000001  0.0000001 0.0000
               *** Restarting incremental Fock matrix formation ***
                                   *** Resetting DIIS ***
                            ***DIIS convergence achieved***

               *****************************************************
               *                     SUCCESS                       *
               *           SCF CONVERGED AFTER  20 CYCLES          *
               *****************************************************


----------------
TOTAL SCF ENERGY
----------------

Total Energy       :         -760.26321005 Eh          -20687.81369 eV

Components:
Nuclear Repulsion  :            6.28170036 Eh             170.93376 eV
Electronic Energy  :         -766.54491041 Eh          -20858.74745 eV
One Electron Energy:        -1051.55981018 Eh          -28614.39716 eV
Two Electron Energy:          285.01489977 Eh            7755.64971 eV

Virial components:
Potential Energy   :        -1520.51137360 Eh          -41375.21795 eV
Kinetic Energy     :          760.24816355 Eh           20687.40426 eV
Virial Ratio       :            2.00001979


---------------
SCF CONVERGENCE
---------------

  Last Energy change         ...    6.8650e-07  Tolerance :   1.0000e-09
  Last MAX-Density change    ...    3.9773e-08  Tolerance :   1.0000e-08
  Last RMS-Density change    ...    1.0689e-09  Tolerance :   1.0000e-09
  Last DIIS Error            ...    5.7958e-09  Tolerance :   1.0000e-08

             **** THE GBW FILE WAS UPDATED (01_ScH.gbw) ****
             **** DENSITY FILE WAS UPDATED (01_ScH.scfp) ****
             **** ENERGY FILE WAS UPDATED (01_ScH.en.tmp) ****
             **** THE GBW FILE WAS UPDATED (01_ScH.gbw) ****
             **** DENSITY FILE WAS UPDATED (01_ScH.scfp) ****
----------------
ORBITAL ENERGIES
----------------

  NO   OCC          E(Eh)            E(eV) 
   0   2.0000    -165.991014     -4516.8451 
   1   2.0000     -19.189248      -522.1660 
   2   2.0000     -15.777723      -429.3337 
   3   2.0000     -15.777723      -429.3337 
   4   2.0000     -15.768857      -429.0924 
   5   2.0000      -2.655595       -72.2624 
   6   2.0000      -1.655724       -45.0545 
   7   2.0000      -1.655724       -45.0545 
   8   2.0000      -1.654808       -45.0296 
   9   2.0000      -0.407964       -11.1013 
  10   2.0000      -0.230626        -6.2757 
  11   0.0000       0.034523         0.9394 
  12   0.0000       0.034523         0.9394 
  13   0.0000       0.039699         1.0803 
  14   0.0000       0.077371         2.1054 
  15   0.0000       0.077371         2.1054 
  16   0.0000       0.085740         2.3331 
  17   0.0000       0.085740         2.3331 
  18   0.0000       0.112652         3.0654 
  19   0.0000       0.129673         3.5286 
  20   0.0000       0.157713         4.2916 
  21   0.0000       0.157713         4.2916 
  22   0.0000       0.166166         4.5216 
  23   0.0000       0.166166         4.5216 
  24   0.0000       0.215524         5.8647 
  25   0.0000       0.306564         8.3420 
  26   0.0000       0.306564         8.3420 
  27   0.0000       0.352091         9.5809 
  28   0.0000       0.404338        11.0026 
  29   0.0000       0.404338        11.0026 
  30   0.0000       0.414663        11.2835 
  31   0.0000       0.414663        11.2835 
  32   0.0000       0.417566        11.3626 
  33   0.0000       0.417566        11.3626 
  34   0.0000       0.430600        11.7172 
  35   0.0000       0.517189        14.0734 
  36   0.0000       0.525519        14.3001 
  37   0.0000       0.525519        14.3001 
  38   0.0000       0.527357        14.3501 
  39   0.0000       0.527357        14.3501 
  40   0.0000       0.779179        21.2025 
  41   0.0000       1.063664        28.9438 
  42   0.0000       1.063664        28.9438 
  43   0.0000       1.173750        31.9394 
  44   0.0000       1.173750        31.9394 
  45   0.0000       1.176541        32.0153 
  46   0.0000       1.176541        32.0153 
  47   0.0000       1.176621        32.0175 
  48   0.0000       1.176621        32.0175 
  49   0.0000       1.202796        32.7298 
  50   0.0000       1.303025        35.4571 
  51   0.0000       1.318901        35.8891 
  52   0.0000       1.318901        35.8891 
  53   0.0000       1.432307        38.9750 
  54   0.0000       1.432307        38.9750 
  55   0.0000       1.490040        40.5461 
  56   0.0000       1.490040        40.5461 
  57   0.0000       1.496336        40.7174 
  58   0.0000       1.496336        40.7174 
  59   0.0000       1.514939        41.2236 
  60   0.0000       1.642637        44.6984 
  61   0.0000       1.642637        44.6984 
  62   0.0000       1.702293        46.3218 
  63   0.0000       1.754249        47.7356 
  64   0.0000       1.821890        49.5762 
  65   0.0000       1.821890        49.5762 
  66   0.0000       1.830719        49.8164 
  67   0.0000       1.830719        49.8164 
  68   0.0000       2.218158        60.3592 
  69   0.0000       3.169697        86.2518 
  70   0.0000       3.681065       100.1669 
  71   0.0000       3.681065       100.1669 
  72   0.0000       3.867230       105.2327 
  73   0.0000       3.867230       105.2327 
  74   0.0000       4.307212       117.2052 
  75   0.0000       4.380605       119.2023 
  76   0.0000       4.380605       119.2023 
  77   0.0000       4.851678       132.0209 

                    ********************************
                    * MULLIKEN POPULATION ANALYSIS *
                    ********************************

-----------------------
MULLIKEN ATOMIC CHARGES
-----------------------
   0 Sc:    0.164384
   1 H :   -0.164384
Sum of atomic charges:    0.0000000

--------------------------------
MULLIKEN REDUCED ORBITAL CHARGES
--------------------------------
  0 Scs       :     7.699538  s :     7.699538
      pz      :     4.335137  p :    12.334621
      px      :     3.999742
      py      :     3.999742
      dz2     :     0.782075  d :     0.782152
      dxz     :     0.000039
      dyz     :     0.000039
      dx2y2   :     0.000000
      dxy     :     0.000000
      f0      :     0.017597  f :     0.017702
      f+1     :     0.000053
      f-1     :     0.000053
      f+2     :     0.000000
      f-2     :     0.000000
      f+3     :     0.000000
      f-3     :     0.000000
      g0      :     0.001603  g :     0.001603
      g+1     :    -0.000000
      g-1     :    -0.000000
      g+2     :     0.000000
      g-2     :     0.000000
      g+3     :     0.000000
      g-3     :     0.000000
      g+4     :     0.000000
      g-4     :     0.000000
  1 H s       :     1.154054  s :     1.154054
      pz      :     0.009594  p :     0.009890
      px      :     0.000148
      py      :     0.000148
      dz2     :     0.000402  d :     0.000439
      dxz     :     0.000018
      dyz     :     0.000018
      dx2y2   :     0.000000
      dxy     :     0.000000


                     *******************************
                     * LOEWDIN POPULATION ANALYSIS *
                     *******************************

----------------------
LOEWDIN ATOMIC CHARGES
----------------------
   0 Sc:    0.177683
   1 H :   -0.177683

-------------------------------
LOEWDIN REDUCED ORBITAL CHARGES
-------------------------------
  0 Scs       :     7.541799  s :     7.541799
      pz      :     4.397660  p :    12.396599
      px      :     3.999470
      py      :     3.999470
      dz2     :     0.844700  d :     0.844770
      dxz     :     0.000035
      dyz     :     0.000035
      dx2y2   :     0.000000
      dxy     :     0.000000
      f0      :     0.030892  f :     0.030988
      f+1     :     0.000048
      f-1     :     0.000048
      f+2     :     0.000000
      f-2     :     0.000000
      f+3     :     0.000000
      f-3     :     0.000000
      g0      :     0.008161  g :     0.008162
      g+1     :     0.000000
      g-1     :     0.000000
      g+2     :     0.000000
      g-2     :     0.000000
      g+3     :     0.000000
      g-3     :     0.000000
      g+4     :     0.000000
      g-4     :     0.000000
  1 H s       :     1.137011  s :     1.137011
      pz      :     0.036021  p :     0.036770
      px      :     0.000374
      py      :     0.000374
      dz2     :     0.003755  d :     0.003901
      dxz     :     0.000073
      dyz     :     0.000073
      dx2y2   :     0.000000
      dxy     :     0.000000


                      *****************************
                      * MAYER POPULATION ANALYSIS *
                      *****************************

  NA   - Mulliken gross atomic population
  ZA   - Total nuclear charge
  QA   - Mulliken gross atomic charge
  VA   - Mayer's total valence
  BVA  - Mayer's bonded valence
  FA   - Mayer's free valence

  ATOM       NA         ZA         QA         VA         BVA        FA
  0 Sc    20.8356    21.0000     0.1644     0.9752     0.9752     0.0000
  1 H      1.1644     1.0000    -0.1644     0.9752     0.9752    -0.0000

  Mayer bond orders larger than 0.100000
B(  0-Sc,  1-H ) :   0.9752 

-------
TIMINGS
-------

Total SCF time: 0 days 0 hours 0 min 3 sec 

Total time                  ....       3.129 sec
Sum of individual times     ....       2.952 sec  ( 94.3%)

Fock matrix formation       ....       2.784 sec  ( 89.0%)
Diagonalization             ....       0.016 sec  (  0.5%)
Density matrix formation    ....       0.005 sec  (  0.2%)
Population analysis         ....       0.004 sec  (  0.1%)
Initial guess               ....       0.109 sec  (  3.5%)
Orbital Transformation      ....       0.000 sec  (  0.0%)
Orbital Orthonormalization  ....       0.000 sec  (  0.0%)
DIIS solution               ....       0.017 sec  (  0.6%)


           ************************************************************
           *        Program running with 21 parallel MPI-processes    *
           *              working on a common directory               *
           ************************************************************


------------------------------------------------------------------------------- 
                              ORCA-MATRIX DRIVEN CI                            
------------------------------------------------------------------------------- 

--------------------------------
AUTOMATIC CHOICE OF INCORE LEVEL
--------------------------------

Memory available                           ...   2500.00 MB
Memory needed for S+T                      ...      2.16 MB
Memory needed for J+K                      ...      4.34 MB
Memory needed for DIIS                     ...     30.21 MB
Memory needed for 3-ext                    ...     13.77 MB
Memory needed for 4-ext                    ...     78.02 MB
Memory needed for triples                  ...     11.47 MB
 -> Final InCoreLevel    ... 5
 -> check shows that triples correction can be computed


Wavefunction type
-----------------
Correlation treatment                      ...      CCSD     
Single excitations                         ... ON
Orbital optimization                       ... OFF
Calculation of Z vector                    ... OFF
Calculation of Brueckner orbitals          ... OFF
Perturbative triple excitations            ... ON
Calculation of F12 correction              ... OFF
Frozen core treatment                      ... chemical core (10 el)
Reference Wavefunction                     ... RHF
  Internal Orbitals:     5 ...   10 (  6 MO's/ 12 electrons)
  Virtual  Orbitals:    11 ...   77 ( 67 MO's              )
Number of AO's                             ...     78
Number of electrons                        ...     22
Number of correlated electrons             ...     12

Algorithmic settings
--------------------
Integral transformation                    ... AO direct full transformation
K(C) Formation                             ... FULL-MO TRAFO
Maximum number of iterations               ...        50
Convergence tolerance (max. residuum)      ... 1.000e-06
Level shift for amplitude update           ... 2.000e-01
Maximum number of DIIS vectors             ...         7
DIIS turned on at iteration                ...         0
Damping before turning on DIIS             ...     0.500
Damping after turning on DIIS              ...     0.000
Pair specific amplitude update             ... OFF
Natural orbital iterations                 ... OFF
Perturbative natural orbital generation    ... OFF
Printlevel                                 ... 2

Memory handling:
----------------
Maximum memory for working arrays          ...   2500 MB
Data storage in matrix containers          ... UNCOMPRESSED
Data type for integral storage             ... DOUBLE
In-Core Storage of quantities:
   Amplitudes+Sigma Vector      ... YES
   J+K operators                ... YES
   DIIS vectors                 ... YES
   3-external integrals         ... YES
   4-external integrals         ... YES


Initializing the integral package          ... done
Warning: reference  - re-canonicalizations have been set to INT 1 VIRT 1

--------------------------
CLOSED-SHELL FOCK OPERATOR
--------------------------

<ss|ss>:         1035 b            0 skpd (  0.0%)    0.000 s ( 0.000 ms/b)
<ss|sp>:         2835 b            1 skpd (  0.0%)    0.001 s ( 0.000 ms/b)
<ss|sd>:         2025 b            0 skpd (  0.0%)    0.001 s ( 0.001 ms/b)
<ss|sf>:          810 b            0 skpd (  0.0%)    0.000 s ( 0.000 ms/b)
<ss|sg>:          405 b            0 skpd (  0.0%)    0.000 s ( 0.001 ms/b)
<ss|pp>:         1260 b            1 skpd (  0.1%)    0.001 s ( 0.001 ms/b)
<ss|pd>:         1575 b            0 skpd (  0.0%)    0.001 s ( 0.001 ms/b)
<ss|pf>:          630 b            0 skpd (  0.0%)    0.000 s ( 0.000 ms/b)
<ss|pg>:          315 b            0 skpd (  0.0%)    0.000 s ( 0.001 ms/b)
<ss|dd>:          675 b            0 skpd (  0.0%)    0.001 s ( 0.001 ms/b)
<ss|df>:          450 b            0 skpd (  0.0%)    0.000 s ( 0.001 ms/b)
<ss|dg>:          225 b            0 skpd (  0.0%)    0.001 s ( 0.002 ms/b)
<ss|ff>:          135 b            0 skpd (  0.0%)    0.000 s ( 0.001 ms/b)
<ss|fg>:           90 b            0 skpd (  0.0%)    0.000 s ( 0.003 ms/b)
<ss|gg>:           45 b            0 skpd (  0.0%)    0.000 s ( 0.008 ms/b)
<sp|sp>:         2016 b            2 skpd (  0.1%)    0.001 s ( 0.001 ms/b)
<sp|sd>:         2835 b            0 skpd (  0.0%)    0.002 s ( 0.001 ms/b)
<sp|sf>:         1134 b            1 skpd (  0.1%)    0.000 s ( 0.000 ms/b)
<sp|sg>:          567 b            2 skpd (  0.4%)    0.001 s ( 0.001 ms/b)
<sp|pp>:         1764 b            1 skpd (  0.1%)    0.002 s ( 0.001 ms/b)
<sp|pd>:         2205 b            1 skpd (  0.0%)    0.002 s ( 0.001 ms/b)
<sp|pf>:          882 b            1 skpd (  0.1%)    0.001 s ( 0.001 ms/b)
<sp|pg>:          441 b            1 skpd (  0.2%)    0.001 s ( 0.002 ms/b)
<sp|dd>:          945 b            0 skpd (  0.0%)    0.002 s ( 0.002 ms/b)
<sp|df>:          630 b            0 skpd (  0.0%)    0.001 s ( 0.001 ms/b)
<sp|dg>:          315 b            0 skpd (  0.0%)    0.001 s ( 0.004 ms/b)
<sp|ff>:          189 b            0 skpd (  0.0%)    0.001 s ( 0.003 ms/b)
<sp|fg>:          126 b            0 skpd (  0.0%)    0.001 s ( 0.006 ms/b)
<sp|gg>:           63 b            0 skpd (  0.0%)    0.001 s ( 0.016 ms/b)
<sd|sd>:         1035 b            0 skpd (  0.0%)    0.001 s ( 0.001 ms/b)
<sd|sf>:          810 b            0 skpd (  0.0%)    0.001 s ( 0.001 ms/b)
<sd|sg>:          405 b            0 skpd (  0.0%)    0.001 s ( 0.002 ms/b)
<sd|pp>:         1260 b            0 skpd (  0.0%)    0.002 s ( 0.001 ms/b)
<sd|pd>:         1575 b            0 skpd (  0.0%)    0.003 s ( 0.002 ms/b)
<sd|pf>:          630 b            0 skpd (  0.0%)    0.001 s ( 0.001 ms/b)
<sd|pg>:          315 b            0 skpd (  0.0%)    0.002 s ( 0.005 ms/b)
<sd|dd>:          675 b            0 skpd (  0.0%)    0.003 s ( 0.004 ms/b)
<sd|df>:          450 b            0 skpd (  0.0%)    0.001 s ( 0.003 ms/b)
<sd|dg>:          225 b            0 skpd (  0.0%)    0.002 s ( 0.009 ms/b)
<sd|ff>:          135 b            0 skpd (  0.0%)    0.001 s ( 0.006 ms/b)
<sd|fg>:           90 b            0 skpd (  0.0%)    0.001 s ( 0.013 ms/b)
<sd|gg>:           45 b            0 skpd (  0.0%)    0.002 s ( 0.037 ms/b)
<sf|sf>:          171 b            0 skpd (  0.0%)    0.000 s ( 0.001 ms/b)
<sf|sg>:          162 b            0 skpd (  0.0%)    0.001 s ( 0.003 ms/b)
<sf|pp>:          504 b            1 skpd (  0.2%)    0.001 s ( 0.002 ms/b)
<sf|pd>:          630 b            0 skpd (  0.0%)    0.001 s ( 0.002 ms/b)
<sf|pf>:          252 b            0 skpd (  0.0%)    0.001 s ( 0.002 ms/b)
<sf|pg>:          126 b            0 skpd (  0.0%)    0.001 s ( 0.008 ms/b)
<sf|dd>:          270 b            0 skpd (  0.0%)    0.002 s ( 0.006 ms/b)
<sf|df>:          180 b            0 skpd (  0.0%)    0.001 s ( 0.005 ms/b)
<sf|dg>:           90 b            0 skpd (  0.0%)    0.001 s ( 0.014 ms/b)
<sf|ff>:           54 b            0 skpd (  0.0%)    0.001 s ( 0.011 ms/b)
<sf|fg>:           36 b            0 skpd (  0.0%)    0.001 s ( 0.021 ms/b)
<sf|gg>:           18 b            0 skpd (  0.0%)    0.001 s ( 0.059 ms/b)
<sg|sg>:           45 b            0 skpd (  0.0%)    0.000 s ( 0.005 ms/b)
<sg|pp>:          252 b            1 skpd (  0.4%)    0.001 s ( 0.004 ms/b)
<sg|pd>:          315 b            1 skpd (  0.3%)    0.002 s ( 0.005 ms/b)
<sg|pf>:          126 b            1 skpd (  0.8%)    0.001 s ( 0.004 ms/b)
<sg|pg>:           63 b            1 skpd (  1.6%)    0.001 s ( 0.011 ms/b)
<sg|dd>:          135 b            0 skpd (  0.0%)    0.001 s ( 0.011 ms/b)
<sg|df>:           90 b            0 skpd (  0.0%)    0.001 s ( 0.009 ms/b)
<sg|dg>:           45 b            0 skpd (  0.0%)    0.001 s ( 0.029 ms/b)
<sg|ff>:           27 b            0 skpd (  0.0%)    0.000 s ( 0.017 ms/b)
<sg|fg>:           18 b            0 skpd (  0.0%)    0.001 s ( 0.041 ms/b)
<sg|gg>:            9 b            0 skpd (  0.0%)    0.001 s ( 0.116 ms/b)
<pp|pp>:          406 b            0 skpd (  0.0%)    0.001 s ( 0.003 ms/b)
<pp|pd>:          980 b            0 skpd (  0.0%)    0.002 s ( 0.002 ms/b)
<pp|pf>:          392 b            0 skpd (  0.0%)    0.001 s ( 0.002 ms/b)
<pp|pg>:          196 b            0 skpd (  0.0%)    0.001 s ( 0.006 ms/b)
<pp|dd>:          420 b            0 skpd (  0.0%)    0.002 s ( 0.005 ms/b)
<pp|df>:          280 b            0 skpd (  0.0%)    0.001 s ( 0.004 ms/b)
<pp|dg>:          140 b            0 skpd (  0.0%)    0.002 s ( 0.011 ms/b)
<pp|ff>:           84 b            0 skpd (  0.0%)    0.001 s ( 0.008 ms/b)
<pp|fg>:           56 b            0 skpd (  0.0%)    0.001 s ( 0.018 ms/b)
<pp|gg>:           28 b            0 skpd (  0.0%)    0.001 s ( 0.049 ms/b)
<pd|pd>:          630 b            0 skpd (  0.0%)    0.003 s ( 0.004 ms/b)
<pd|pf>:          490 b            0 skpd (  0.0%)    0.002 s ( 0.003 ms/b)
<pd|pg>:          245 b            0 skpd (  0.0%)    0.003 s ( 0.011 ms/b)
<pd|dd>:          525 b            0 skpd (  0.0%)    0.004 s ( 0.008 ms/b)
<pd|df>:          350 b            0 skpd (  0.0%)    0.002 s ( 0.007 ms/b)
<pd|dg>:          175 b            0 skpd (  0.0%)    0.004 s ( 0.020 ms/b)
<pd|ff>:          105 b            0 skpd (  0.0%)    0.002 s ( 0.015 ms/b)
<pd|fg>:           70 b            0 skpd (  0.0%)    0.002 s ( 0.033 ms/b)
<pd|gg>:           35 b            0 skpd (  0.0%)    0.003 s ( 0.093 ms/b)
<pf|pf>:          105 b            0 skpd (  0.0%)    0.000 s ( 0.003 ms/b)
<pf|pg>:           98 b            0 skpd (  0.0%)    0.001 s ( 0.015 ms/b)
<pf|dd>:          210 b            0 skpd (  0.0%)    0.002 s ( 0.010 ms/b)
<pf|df>:          140 b            0 skpd (  0.0%)    0.001 s ( 0.009 ms/b)
<pf|dg>:           70 b            0 skpd (  0.0%)    0.002 s ( 0.028 ms/b)
<pf|ff>:           42 b            0 skpd (  0.0%)    0.001 s ( 0.024 ms/b)
<pf|fg>:           28 b            0 skpd (  0.0%)    0.001 s ( 0.049 ms/b)
<pf|gg>:           14 b            0 skpd (  0.0%)    0.002 s ( 0.131 ms/b)
<pg|pg>:           28 b            0 skpd (  0.0%)    0.001 s ( 0.019 ms/b)
<pg|dd>:          105 b            0 skpd (  0.0%)    0.002 s ( 0.020 ms/b)
<pg|df>:           70 b            0 skpd (  0.0%)    0.001 s ( 0.016 ms/b)
<pg|dg>:           35 b            0 skpd (  0.0%)    0.002 s ( 0.053 ms/b)
<pg|ff>:           21 b            0 skpd (  0.0%)    0.001 s ( 0.035 ms/b)
<pg|fg>:           14 b            0 skpd (  0.0%)    0.001 s ( 0.085 ms/b)
<pg|gg>:            7 b            0 skpd (  0.0%)    0.002 s ( 0.227 ms/b)
<dd|dd>:          120 b            0 skpd (  0.0%)    0.003 s ( 0.026 ms/b)
<dd|df>:          150 b            0 skpd (  0.0%)    0.002 s ( 0.012 ms/b)
<dd|dg>:           75 b            0 skpd (  0.0%)    0.003 s ( 0.039 ms/b)
<dd|ff>:           45 b            0 skpd (  0.0%)    0.001 s ( 0.028 ms/b)
<dd|fg>:           30 b            0 skpd (  0.0%)    0.002 s ( 0.062 ms/b)
<dd|gg>:           15 b            0 skpd (  0.0%)    0.003 s ( 0.178 ms/b)
<df|df>:           55 b            0 skpd (  0.0%)    0.001 s ( 0.017 ms/b)
<df|dg>:           50 b            0 skpd (  0.0%)    0.002 s ( 0.047 ms/b)
<df|ff>:           30 b            0 skpd (  0.0%)    0.001 s ( 0.045 ms/b)
<df|fg>:           20 b            0 skpd (  0.0%)    0.002 s ( 0.090 ms/b)
<df|gg>:           10 b            0 skpd (  0.0%)    0.002 s ( 0.244 ms/b)
<dg|dg>:           15 b            0 skpd (  0.0%)    0.001 s ( 0.061 ms/b)
<dg|ff>:           15 b            0 skpd (  0.0%)    0.001 s ( 0.060 ms/b)
<dg|fg>:           10 b            0 skpd (  0.0%)    0.001 s ( 0.140 ms/b)
<dg|gg>:            5 b            0 skpd (  0.0%)    0.002 s ( 0.388 ms/b)
<ff|ff>:            6 b            0 skpd (  0.0%)    0.000 s ( 0.080 ms/b)
<ff|fg>:            6 b            0 skpd (  0.0%)    0.001 s ( 0.139 ms/b)
<ff|gg>:            3 b            0 skpd (  0.0%)    0.001 s ( 0.428 ms/b)
<fg|fg>:            3 b            0 skpd (  0.0%)    0.001 s ( 0.273 ms/b)
<fg|gg>:            2 b            0 skpd (  0.0%)    0.002 s ( 0.841 ms/b)
<gg|gg>:            1 b            0 skpd (  0.0%)    0.001 s ( 1.150 ms/b)
Recanonicalizing the internal orbitals
Recanonicalizing the virtual orbitals
Time needed for Fock operator              ...            0.159 sec
Reference energy                           ...   -760.263210051

------------------------------
PARTIAL COULOMB TRANSFORMATION
------------------------------

Transformation type                        ... one-operator
Dimension of the basis                     ...   78
Number of internal MOs                     ...   73 (5-77)
Pair cutoff                                ... 0.000e+00 Eh
Number of AO pairs included in the trafo   ... 3081
Total Number of distinct AO pairs          ... 3081
Memory devoted for trafo                   ... 2500.0 MB 
Max. Number of MO pairs treated together   ... 106355      
Max. Number of MOs treated per batch       ... 1363      
Number Format for Storage                  ... Double (8 Byte)
AO-integral source                         ... DIRECT
Integral package used                      ... LIBINT

Starting integral evaluation:
<ss|**>:        13500 b        0 skpd     0.008 s (  0.001 ms/b)
<sp|**>:        18900 b        0 skpd     0.010 s (  0.001 ms/b)
<sd|**>:        13500 b        0 skpd     0.018 s (  0.001 ms/b)
<sf|**>:         5400 b        0 skpd     0.007 s (  0.001 ms/b)
<sg|**>:         2700 b        0 skpd     0.013 s (  0.005 ms/b)
<pp|**>:         8400 b        0 skpd     0.017 s (  0.002 ms/b)
<pd|**>:        10500 b        0 skpd     0.028 s (  0.003 ms/b)
<pf|**>:         4200 b        0 skpd     0.011 s (  0.003 ms/b)
<pg|**>:         2100 b        0 skpd     0.020 s (  0.010 ms/b)
<dd|**>:         4500 b        0 skpd     0.028 s (  0.006 ms/b)
<df|**>:         3000 b        0 skpd     0.016 s (  0.005 ms/b)
<dg|**>:         1500 b        0 skpd     0.025 s (  0.017 ms/b)
<ff|**>:          900 b        0 skpd     0.012 s (  0.014 ms/b)
<fg|**>:          600 b        0 skpd     0.018 s (  0.030 ms/b)
<gg|**>:          300 b        0 skpd     0.024 s (  0.080 ms/b)
Closing buffer AOJ ( 0.00 GB; CompressionRatio= 1.00)
Collecting buffer AOJ 
    ... done with AO integral generation
Number of MO pairs included in the trafo   ... 2701
    ... Now sorting integrals
IBATCH = 1 of  1
Closing buffer JAO ( 0.00 GB; CompressionRatio= 1.00)
Collecting buffer JAO 
TOTAL TIME for half transformation         ...     0.311 sec
AO-integral generation                     ...     0.252 sec
Half transformation                        ...     0.010 sec
J-integral sorting                         ...     0.036 sec

-------------------------- SECOND HALF TRANSFORMATION -------------------------
Formation of (pq|rs)                       ... ok (     0.024 sec)
Integral sorting                           ... ok (     0.217 sec)

------------------
CLOSED SHELL GUESS
------------------

Initial guess performed in     0.003 sec
E(0)                                       ...   -760.263210051
E(MP2)                                     ...     -0.277247839
Initial E(tot)                             ...   -760.540457890
<T|T>                                      ...      0.106172981
Number of pairs included                   ... 21
Total number of pairs                      ... 21

------------------------------------------------
                  RHF COUPLED CLUSTER ITERATIONS
------------------------------------------------

Number of amplitudes to be optimized       ... 94671

Iter       E(tot)           E(Corr)          Delta-E          Residual     Time
  0   -760.540457890     -0.277247839      0.000000000      0.009749383    0.04
                           *** Turning on DIIS ***
  1   -760.556773547     -0.293563496     -0.016315657      0.007240845    0.15
  2   -760.564761603     -0.301551552     -0.007988056      0.004340580    0.14
  3   -760.567105618     -0.303895567     -0.002344015      0.002408386    0.14
  4   -760.568167451     -0.304957400     -0.001061833      0.001049695    0.15
  5   -760.568558187     -0.305348136     -0.000390736      0.000683020    0.15
  6   -760.568658382     -0.305448331     -0.000100195      0.000471607    0.14
  7   -760.568667577     -0.305457526     -0.000009196      0.000329155    0.14
  8   -760.568662844     -0.305452793      0.000004733      0.000209648    0.14
  9   -760.568656500     -0.305446449      0.000006344      0.000120524    0.14
 10   -760.568656319     -0.305446268      0.000000181      0.000056103    0.16
 11   -760.568656273     -0.305446222      0.000000046      0.000021786    0.15
 12   -760.568656103     -0.305446052      0.000000170      0.000009446    0.14
 13   -760.568655574     -0.305445523      0.000000529      0.000003850    0.14
 14   -760.568655166     -0.305445115      0.000000408      0.000001800    0.15
 15   -760.568654918     -0.305444867      0.000000248      0.000000926    0.15
               --- The Coupled-Cluster iterations have converged ---

----------------------
COUPLED CLUSTER ENERGY
----------------------

E(0)                                       ...   -760.263210051
E(CORR)                                    ...     -0.305444867
E(TOT)                                     ...   -760.568654918
Singles Norm <S|S>**1/2                    ...      0.073754673  
T1 diagnostic                              ...      0.021291140  

------------------
LARGEST AMPLITUDES
------------------
  10-> 12  10-> 12       0.115724
  10-> 11  10-> 11       0.115724
  10-> 13  10-> 13       0.105037
  10-> 14  10-> 14       0.053689
  10-> 15  10-> 15       0.053689
  10-> 13  -1-> -1       0.049911
  10-> 11  10-> 25       0.045040
  10-> 25  10-> 11       0.045040
  10-> 12  10-> 26       0.045040
  10-> 26  10-> 12       0.045040
   9-> 24   9-> 24       0.037951
  10-> 18  -1-> -1       0.029215
   9-> 35   9-> 35       0.028757
  10-> 13  10-> 19       0.028374
  10-> 19  10-> 13       0.028374
   9-> 13  -1-> -1       0.027391


        !!!!!!!!!!!!!!!!!!!!!!!!!!!!!!!!!!!!!!!!!!!!!!!!!!!!!!!!!!!!!!!!!!!!!!!!!! 
        !  Warning: Densities are linearized densities !                         !
        !!!!!!!!!!!!!!!!!!!!!!!!!!!!!!!!!!!!!!!!!!!!!!!!!!!!!!!!!!!!!!!!!!!!!!!!!! 

Trace of internal density part =     -0.334853751
Trace of external density part =      0.334853751
----------------------
RHF TRIPLES CORRECTION (Algorithm 1)
----------------------

Multiplier for the singles contribution    ...      1.000000000

10% done
20% done
30% done
40% done
50% done
60% done
70% done
80% done
90% done

Triples Correction (T)                     ...     -0.010541551
Scaling of triples based on CCSD energies (Peterson et al. Molecular Physics 113, 1551 (2015))
E(T*) = f*E(T) where f = E(F12-CCSD)/E(CCSD) 
f = CCSD (with F12)/ CCSD (without F12)    ...      1.000000000
Scaled triples correction (T)              ...     -0.010541551

Final correlation energy                   ...     -0.315986419
E(CCSD)                                    ...   -760.568654918
E(CCSD(T))                                 ...   -760.579196470

NORM  =      1.172866627 sqrt=     1.082989671
W(HF) =      0.852611863
------------------------------------------------------------------------------
                           ORCA POPULATION ANALYSIS
------------------------------------------------------------------------------
Input electron density              ... 01_ScH.mdcip
BaseName (.gbw .S,...)              ... 01_ScH

                    ********************************
                    * MULLIKEN POPULATION ANALYSIS *
                    ********************************

-----------------------
MULLIKEN ATOMIC CHARGES
-----------------------
   0 Sc:    0.113723
   1 H :   -0.113723
Sum of atomic charges:    0.0000000

--------------------------------
MULLIKEN REDUCED ORBITAL CHARGES
--------------------------------
  0 Scs       :     7.610090  s :     7.610090
      pz      :     4.248970  p :    12.273819
      px      :     4.012424
      py      :     4.012424
      dz2     :     0.871855  d :     0.976864
      dxz     :     0.024993
      dyz     :     0.024993
      dx2y2   :     0.027512
      dxy     :     0.027512
      f0      :     0.015274  f :     0.023283
      f+1     :     0.002892
      f-1     :     0.002892
      f+2     :     0.000522
      f-2     :     0.000522
      f+3     :     0.000591
      f-3     :     0.000591
      g0      :     0.001236  g :     0.002223
      g+1     :     0.000350
      g-1     :     0.000350
      g+2     :     0.000100
      g-2     :     0.000100
      g+3     :     0.000019
      g-3     :     0.000019
      g+4     :     0.000024
      g-4     :     0.000024
  1 H s       :     1.089670  s :     1.089670
      pz      :     0.013597  p :     0.023088
      px      :     0.004745
      py      :     0.004745
      dz2     :     0.000588  d :     0.000965
      dxz     :     0.000141
      dyz     :     0.000141
      dx2y2   :     0.000048
      dxy     :     0.000048


                     *******************************
                     * LOEWDIN POPULATION ANALYSIS *
                     *******************************

----------------------
LOEWDIN ATOMIC CHARGES
----------------------
   0 Sc:    0.154292
   1 H :   -0.154292

-------------------------------
LOEWDIN REDUCED ORBITAL CHARGES
-------------------------------
  0 Scs       :     7.426065  s :     7.426065
      pz      :     4.303665  p :    12.327431
      px      :     4.011883
      py      :     4.011883
      dz2     :     0.937726  d :     1.043026
      dxz     :     0.025140
      dyz     :     0.025140
      dx2y2   :     0.027511
      dxy     :     0.027511
      f0      :     0.030582  f :     0.038795
      f+1     :     0.002994
      f-1     :     0.002994
      f+2     :     0.000521
      f-2     :     0.000521
      f+3     :     0.000591
      f-3     :     0.000591
      g0      :     0.009185  g :     0.010390
      g+1     :     0.000460
      g-1     :     0.000460
      g+2     :     0.000100
      g-2     :     0.000100
      g+3     :     0.000019
      g-3     :     0.000019
      g+4     :     0.000024
      g-4     :     0.000024
  1 H s       :     1.095124  s :     1.095124
      pz      :     0.044603  p :     0.054274
      px      :     0.004836
      py      :     0.004836
      dz2     :     0.004331  d :     0.004893
      dxz     :     0.000232
      dyz     :     0.000232
      dx2y2   :     0.000049
      dxy     :     0.000049


                      *****************************
                      * MAYER POPULATION ANALYSIS *
                      *****************************

  NA   - Mulliken gross atomic population
  ZA   - Total nuclear charge
  QA   - Mulliken gross atomic charge
  VA   - Mayer's total valence
  BVA  - Mayer's bonded valence
  FA   - Mayer's free valence

  ATOM       NA         ZA         QA         VA         BVA        FA
  0 Sc    20.8863    21.0000     0.1137     2.0122     0.8869     1.1253
  1 H      1.1137     1.0000    -0.1137     1.0196     0.8869     0.1327

  Mayer bond orders larger than 0.100000
B(  0-Sc,  1-H ) :   0.8869 



------------------------------------------------------------------------------- 
                                     TIMINGS                                   
------------------------------------------------------------------------------- 


Total execution time                   ...        3.193 sec

Fock Matrix Formation                  ...        0.159 sec (  5.0%)
Initial Guess                          ...        0.003 sec (  0.1%)
DIIS Solver                            ...        0.093 sec (  2.9%)
State Vector Update                    ...        0.004 sec (  0.1%)
Sigma-vector construction              ...        2.121 sec ( 66.4%)
  <D|H|D>(0-ext)                       ...        0.004 sec (  0.2% of sigma)
  <D|H|D>(2-ext)                       ...        0.011 sec (  0.5% of sigma)
  <D|H|D>(4-ext)                       ...        0.115 sec (  5.4% of sigma)
  <D|H|D>(4-ext-corr)                  ...        0.115 sec (  5.4% of sigma)
  <S|H|0>                              ...        0.003 sec (  0.1% of sigma)
  <S|H|S>                              ...        0.003 sec (  0.1% of sigma)
  <S|H|D>(1-ext)                       ...        0.006 sec (  0.3% of sigma)
  <D|H|S>(1-ext)                       ...        0.003 sec (  0.2% of sigma)
  <S|H|D>(3-ext)                       ...        0.074 sec (  3.5% of sigma)
  Fock-dressing                        ...        1.534 sec ( 72.3% of sigma)
  (ik|jl)-dressing                     ...        0.005 sec (  0.2% of sigma)
  (ij|ab),(ia|jb)-dressing             ...        0.186 sec (  8.8% of sigma)
Total Time for computing (T)           ...        0.057 sec (  1.8% of ALL)
  I/O of integral and amplitudes       ...        0.025 sec ( 43.9% of (T))
  N**6 sorting step                    ...        0.011 sec ( 19.7% of (T))
  External N**7 contributions          ...        0.011 sec ( 20.2% of (T))
  Internal N**7 contributions          ...        0.004 sec (  7.0% of (T))
  N**6 triples energy contributions    ...        0.005 sec (  9.1% of (T))

----- Orbital basis set information -----
Your calculation utilizes the basis: def2-QZVPP
   F. Weigend and R. Ahlrichs, Phys. Chem. Chem. Phys. 7, 3297 (2005).

----- AuxJ basis set information -----
Your calculation utilizes the auxiliary basis: def2/J
   F. Weigend, Phys. Chem. Chem. Phys. 8, 1057 (2006).

----- AuxC basis set information -----
Your calculation utilizes the auxiliary basis: def2-QZVPP/C
  H-La, Hf-Rn : A. Hellweg, C. Hattig, S. Hofener and W. Klopper, Theor. Chem. Acc. 117, 587 (2007).
        Ce-Lu : J. Chmela and M. E. Harding, Mol. Phys. (2018).

----- AuxJK basis set information -----
Your calculation utilizes the auxiliary basis: def2/JK
   H-Ba, Hf-Rn: F. Weigend, J. Comput. Chem. 29, 167 (2008).

All done

                     -----------------------------------------
                     Extrapolated Energy 2 Basis=  def2-QZVPP
                     -----------------------------------------

---------------------------------
CARTESIAN COORDINATES (ANGSTROEM)
---------------------------------
  Sc     0.000000    0.000000    0.115469
  H      0.000000    0.000000    1.884531

----------------------------
CARTESIAN COORDINATES (A.U.)
----------------------------
  NO LB      ZA    FRAG     MASS         X           Y           Z
   0 Sc   21.0000    0    44.960    0.000000    0.000000    0.218204
   1 H     1.0000    0     1.008    0.000000    0.000000    3.561248

--------------------------------
INTERNAL COORDINATES (ANGSTROEM)
--------------------------------
 Sc     0   0   0     0.000000000000     0.00000000     0.00000000
 H      1   0   0     1.769062632331     0.00000000     0.00000000

---------------------------
INTERNAL COORDINATES (A.U.)
---------------------------
 Sc     0   0   0     0.000000000000     0.00000000     0.00000000
 H      1   0   0     3.343043888860     0.00000000     0.00000000

---------------------
BASIS SET INFORMATION
---------------------
There are 2 groups of distinct atoms

 Group   1 Type Sc  : 24s18p9d3f2g contracted to 11s6p5d3f2g pattern {114111111111/951111/51111/111/11}
 Group   2 Type H   : 7s3p2d1f contracted to 4s3p2d1f pattern {4111/111/11/1}

Atom   0Sc   basis set group =>   1
Atom   1H    basis set group =>   2
---------------------------------
AUXILIARY/J BASIS SET INFORMATION
---------------------------------
There are 2 groups of distinct atoms

 Group   1 Type Sc  : 19s5p5d3f3g contracted to 8s5p5d2f3g pattern {121111111/11111/11111/21/111}
 Group   2 Type H   : 5s2p1d contracted to 3s1p1d pattern {311/2/1}

Atom   0Sc   basis set group =>   1
Atom   1H    basis set group =>   2
---------------------------------
AUXILIARY/C BASIS SET INFORMATION
---------------------------------
There are 2 groups of distinct atoms

 Group   1 Type Sc  : 15s13p11d8f7g5h2i contracted to 15s13p11d8f7g5h2i pattern {111111111111111/1111111111111/11111111111/11111111/1111111/11111/11}
 Group   2 Type H   : 6s4p3d2f1g contracted to 6s4p3d2f1g pattern {111111/1111/111/11/1}

Atom   0Sc   basis set group =>   1
Atom   1H    basis set group =>   2
----------------------------------
AUXILIARY/JK BASIS SET INFORMATION
----------------------------------
There are 2 groups of distinct atoms

 Group   1 Type Sc  : 19s14p12d10f7g3h1i contracted to 16s13p11d9f5g3h1i pattern {4111111111111111/2111111111111/21111111111/211111111/31111/111/1}
 Group   2 Type H   : 4s2p2d contracted to 2s2p2d pattern {31/11/11}

Atom   0Sc   basis set group =>   1
Atom   1H    basis set group =>   2

Checking for AutoStart:
The File: 01_ScH.gbw exists
Trying to determine its content:
     ... Fine, the file contains calculation information
     ... Fine, the calculation information was read
     ... Fine, the file contains a basis set
     ... Fine, the basis set was read
     ... Fine, the file contains a geometry
     ... Fine, the geometry was read
     ... Fine, the file contains a set of orbitals
     ... Fine, the orbitals can be read
     => possible old guess file was deleted
     => GBW file was renamed to GES file
     => GES file is set as startup file
     => Guess is set to MORead
     ... now leaving AutoStart



           ************************************************************
           *        Program running with 21 parallel MPI-processes    *
           *              working on a common directory               *
           ************************************************************
------------------------------------------------------------------------------
                           ORCA GTO INTEGRAL CALCULATION
------------------------------------------------------------------------------

                         BASIS SET STATISTICS AND STARTUP INFO

 # of primitive gaussian shells          ...   69
 # of primitive gaussian functions       ...  195
 # of contracted shells                  ...   37
 # of contracted basis functions         ...  123
 Highest angular momentum                ...    4
 Maximum contraction depth               ...   11
 Integral package used                   ... LIBINT
 Integral threshhold            Thresh   ...  1.000e-12
 Primitive cut-off              TCut     ...  1.000e-14


------------------------------ INTEGRAL EVALUATION ----------------------------


 * One electron integrals 
 Pre-screening matrix                    ... done
 Shell pair data                         ... done (   0.000 sec)



           ************************************************************
           *        Program running with 21 parallel MPI-processes    *
           *              working on a common directory               *
           ************************************************************
-------------------------------------------------------------------------------
                                 ORCA SCF
-------------------------------------------------------------------------------

------------
SCF SETTINGS
------------
Hamiltonian:
 Ab initio Hamiltonian  Method          .... Hartree-Fock(GTOs)


General Settings:
 Integral files         IntName         .... 01_ScH
 Hartree-Fock type      HFTyp           .... RHF
 Total Charge           Charge          ....    0
 Multiplicity           Mult            ....    1
 Number of Electrons    NEL             ....   22
 Basis Dimension        Dim             ....  123
 Nuclear Repulsion      ENuc            ....      6.2817003600 Eh

Convergence Acceleration:
 DIIS                   CNVDIIS         .... on
   Start iteration      DIISMaxIt       ....    12
   Startup error        DIISStart       ....  0.200000
   # of expansion vecs  DIISMaxEq       ....     5
   Bias factor          DIISBfac        ....   1.050
   Max. coefficient     DIISMaxC        ....  10.000
 Newton-Raphson         CNVNR           .... off
 SOSCF                  CNVSOSCF        .... off
 Level Shifting         CNVShift        .... on
   Level shift para.    LevelShift      ....    0.2500
   Turn off err/grad.   ShiftErr        ....    0.0010
 Zerner damping         CNVZerner       .... off
 Static damping         CNVDamp         .... on
   Fraction old density DampFac         ....    0.7000
   Max. Damping (<1)    DampMax         ....    0.9800
   Min. Damping (>=0)   DampMin         ....    0.0000
   Turn off err/grad.   DampErr         ....    0.1000
 Fernandez-Rico         CNVRico         .... off

SCF Procedure:
 Maximum # iterations   MaxIter         ....   125
 SCF integral mode      SCFMode         .... Direct
   Integral package                     .... LIBINT
 Reset frequency        DirectResetFreq ....    20
 Integral Threshold     Thresh          ....  1.000e-12 Eh
 Primitive CutOff       TCut            ....  1.000e-14 Eh

Convergence Tolerance:
 Convergence Check Mode ConvCheckMode   .... Total+1el-Energy
 Convergence forced     ConvForced      .... 1
 Energy Change          TolE            ....  1.000e-09 Eh
 1-El. energy change                    ....  1.000e-06 Eh
 DIIS Error             TolErr          ....  1.000e-08


Diagonalization of the overlap matrix:
Smallest eigenvalue                        ... 5.931e-04
Time for diagonalization                   ...    0.004 sec
Threshold for overlap eigenvalues          ... 1.000e-08
Number of eigenvalues below threshold      ... 0
Time for construction of square roots      ...    0.002 sec
Total time needed                          ...    0.006 sec

---------------------
INITIAL GUESS: MOREAD
---------------------
Guess MOs are being read from file: 01_ScH.ges
Input Geometry matches current geometry (good)
Atom 0: N(Shells)= 27 and 18 - projection required
Input basis set needs projection
NBasis(read)= 78
NBasis(calc)= 123
Basis set overlap was calculated
Using GuessMode=FMatrix for the initial guess
C*T matrix was formed
Effective Fockian was calculated
Effective Fockian was diagonalized
Initial density was built
                      ------------------
                      INITIAL GUESS DONE (   0.0 sec)
                      ------------------
--------------
SCF ITERATIONS
--------------
ITER       Energy         Delta-E        Max-DP      RMS-DP      [F,P]     Damp
               ***  Starting incremental Fock matrix formation  ***
  0   -760.2753665829   0.000000000000 0.02173041  0.00048607  0.0543219 0.7000
  1   -760.2759187199  -0.000552136998 0.01891670  0.00038958  0.0379974 0.7000
                               ***Turning on DIIS***
  2   -760.2763125465  -0.000393826591 0.05161084  0.00100436  0.0265783 0.0000
  3   -760.2769554668  -0.000642920288 0.01061831  0.00018976  0.0011309 0.0000
  4   -760.2784370639  -0.001481597101 0.01037345  0.00014955  0.0003070 0.0000
  5   -760.2773794011   0.001057662784 0.00338328  0.00004512  0.0001115 0.0000
  6   -760.2771241565   0.000255244572 0.00063551  0.00000780  0.0000320 0.0000
  7   -760.2772708539  -0.000146697323 0.00014302  0.00000191  0.0000093 0.0000
  8   -760.2772441453   0.000026708590 0.00002296  0.00000039  0.0000031 0.0000
  9   -760.2772607327  -0.000016587425 0.00000654  0.00000010  0.0000012 0.0000
 10   -760.2772581557   0.000002576979 0.00000297  0.00000006  0.0000005 0.0000
 11   -760.2772625941  -0.000004438420 0.00000356  0.00000005  0.0000003 0.0000
 12   -760.2772634436  -0.000000849452 0.00000116  0.00000002  0.0000001 0.0000
 13   -760.2772645705  -0.000001126922 0.00000030  0.00000001  0.0000000 0.0000
                            ***DIIS convergence achieved***

               *****************************************************
               *                     SUCCESS                       *
               *           SCF CONVERGED AFTER  14 CYCLES          *
               *****************************************************


----------------
TOTAL SCF ENERGY
----------------

Total Energy       :         -760.27726488 Eh          -20688.19614 eV

Components:
Nuclear Repulsion  :            6.28170036 Eh             170.93376 eV
Electronic Energy  :         -766.55896524 Eh          -20859.12990 eV
One Electron Energy:        -1051.56279747 Eh          -28614.47845 eV
Two Electron Energy:          285.00383223 Eh            7755.34855 eV

Virial components:
Potential Energy   :        -1520.50208658 Eh          -41374.96524 eV
Kinetic Energy     :          760.22482171 Eh           20686.76909 eV
Virial Ratio       :            2.00006898


---------------
SCF CONVERGENCE
---------------

  Last Energy change         ...   -3.0705e-07  Tolerance :   1.0000e-09
  Last MAX-Density change    ...    1.6950e-07  Tolerance :   1.0000e-08
  Last RMS-Density change    ...    2.6337e-09  Tolerance :   1.0000e-09
  Last DIIS Error            ...    1.0345e-08  Tolerance :   1.0000e-08

             **** THE GBW FILE WAS UPDATED (01_ScH.gbw) ****
             **** DENSITY FILE WAS UPDATED (01_ScH.scfp) ****
             **** ENERGY FILE WAS UPDATED (01_ScH.en.tmp) ****
             **** THE GBW FILE WAS UPDATED (01_ScH.gbw) ****
             **** DENSITY FILE WAS UPDATED (01_ScH.scfp) ****
----------------
ORBITAL ENERGIES
----------------

  NO   OCC          E(Eh)            E(eV) 
   0   2.0000    -165.994915     -4516.9513 
   1   2.0000     -19.191736      -522.2337 
   2   2.0000     -15.780254      -429.4025 
   3   2.0000     -15.780254      -429.4025 
   4   2.0000     -15.771788      -429.1722 
   5   2.0000      -2.655327       -72.2551 
   6   2.0000      -1.654803       -45.0295 
   7   2.0000      -1.654803       -45.0295 
   8   2.0000      -1.654703       -45.0268 
   9   2.0000      -0.408271       -11.1096 
  10   2.0000      -0.230713        -6.2780 
  11   0.0000       0.017796         0.4842 
  12   0.0000       0.017796         0.4842 
  13   0.0000       0.025121         0.6836 
  14   0.0000       0.070529         1.9192 
  15   0.0000       0.073823         2.0088 
  16   0.0000       0.073823         2.0088 
  17   0.0000       0.078682         2.1411 
  18   0.0000       0.078682         2.1411 
  19   0.0000       0.090244         2.4557 
  20   0.0000       0.101819         2.7706 
  21   0.0000       0.101819         2.7706 
  22   0.0000       0.108951         2.9647 
  23   0.0000       0.132499         3.6055 
  24   0.0000       0.132499         3.6055 
  25   0.0000       0.141003         3.8369 
  26   0.0000       0.141003         3.8369 
  27   0.0000       0.225565         6.1379 
  28   0.0000       0.322032         8.7629 
  29   0.0000       0.339665         9.2428 
  30   0.0000       0.339665         9.2428 
  31   0.0000       0.346848         9.4382 
  32   0.0000       0.358366         9.7516 
  33   0.0000       0.372780        10.1439 
  34   0.0000       0.372780        10.1439 
  35   0.0000       0.376099        10.2342 
  36   0.0000       0.376099        10.2342 
  37   0.0000       0.400277        10.8921 
  38   0.0000       0.400277        10.8921 
  39   0.0000       0.411433        11.1957 
  40   0.0000       0.411433        11.1957 
  41   0.0000       0.414863        11.2890 
  42   0.0000       0.414863        11.2890 
  43   0.0000       0.460276        12.5247 
  44   0.0000       0.598002        16.2725 
  45   0.0000       0.647919        17.6308 
  46   0.0000       0.647919        17.6308 
  47   0.0000       0.664300        18.0765 
  48   0.0000       0.664300        18.0765 
  49   0.0000       0.666413        18.1340 
  50   0.0000       0.666413        18.1340 
  51   0.0000       0.667028        18.1507 
  52   0.0000       0.667028        18.1507 
  53   0.0000       0.774446        21.0738 
  54   0.0000       0.931769        25.3547 
  55   0.0000       0.972970        26.4759 
  56   0.0000       0.972970        26.4759 
  57   0.0000       1.040566        28.3152 
  58   0.0000       1.040566        28.3152 
  59   0.0000       1.050571        28.5875 
  60   0.0000       1.050571        28.5875 
  61   0.0000       1.101864        29.9833 
  62   0.0000       1.110366        30.2146 
  63   0.0000       1.110366        30.2146 
  64   0.0000       1.206819        32.8392 
  65   0.0000       1.271608        34.6022 
  66   0.0000       1.271608        34.6022 
  67   0.0000       1.275320        34.7032 
  68   0.0000       1.275320        34.7032 
  69   0.0000       1.359506        36.9940 
  70   0.0000       1.359506        36.9940 
  71   0.0000       1.581929        43.0465 
  72   0.0000       1.697033        46.1786 
  73   0.0000       1.813969        49.3606 
  74   0.0000       2.260428        61.5094 
  75   0.0000       2.260428        61.5094 
  76   0.0000       2.275180        61.9108 
  77   0.0000       2.275180        61.9108 
  78   0.0000       2.493549        67.8529 
  79   0.0000       2.494160        67.8696 
  80   0.0000       2.494160        67.8696 
  81   0.0000       2.497119        67.9501 
  82   0.0000       2.497119        67.9501 
  83   0.0000       2.601142        70.7807 
  84   0.0000       2.601142        70.7807 
  85   0.0000       2.918559        79.4180 
  86   0.0000       2.918559        79.4180 
  87   0.0000       3.012599        81.9770 
  88   0.0000       3.012599        81.9770 
  89   0.0000       3.025599        82.3307 
  90   0.0000       3.026880        82.3656 
  91   0.0000       3.026880        82.3656 
  92   0.0000       3.184546        86.6559 
  93   0.0000       3.184546        86.6559 
  94   0.0000       3.236654        88.0738 
  95   0.0000       3.836850       104.4060 
  96   0.0000       4.381303       119.2213 
  97   0.0000       4.381303       119.2213 
  98   0.0000       4.395491       119.6074 
  99   0.0000       4.395491       119.6074 
 100   0.0000       4.499278       122.4316 
 101   0.0000       4.499278       122.4316 
 102   0.0000       4.618980       125.6888 
 103   0.0000       5.964468       162.3014 
 104   0.0000       6.151676       167.3956 
 105   0.0000       6.151676       167.3956 
 106   0.0000       6.262289       170.4056 
 107   0.0000       6.262289       170.4056 
 108   0.0000       6.485815       176.4880 
 109   0.0000       6.513515       177.2417 
 110   0.0000       6.513515       177.2417 
 111   0.0000       7.022484       191.0915 
 112   0.0000       8.231559       223.9921 
 113   0.0000       8.231559       223.9921 
 114   0.0000       8.383217       228.1189 
 115   0.0000       8.383217       228.1189 
 116   0.0000       8.601219       234.0511 
 117   0.0000       8.762815       238.4483 
 118   0.0000       8.762815       238.4483 
 119   0.0000       9.360049       254.6999 
 120   0.0000      23.107081       628.7757 
 121   0.0000      77.215407      2101.1380 
 122   0.0000     480.753751     13081.9746 

                    ********************************
                    * MULLIKEN POPULATION ANALYSIS *
                    ********************************

-----------------------
MULLIKEN ATOMIC CHARGES
-----------------------
   0 Sc:    0.335842
   1 H :   -0.335842
Sum of atomic charges:   -0.0000000

--------------------------------
MULLIKEN REDUCED ORBITAL CHARGES
--------------------------------
  0 Scs       :     7.670731  s :     7.670731
      pz      :     4.249211  p :    12.248290
      px      :     3.999540
      py      :     3.999540
      dz2     :     0.734321  d :     0.734403
      dxz     :     0.000041
      dyz     :     0.000041
      dx2y2   :     0.000000
      dxy     :     0.000000
      f0      :     0.009907  f :     0.010051
      f+1     :     0.000072
      f-1     :     0.000072
      f+2     :     0.000000
      f-2     :     0.000000
      f+3     :     0.000000
      f-3     :     0.000000
      g0      :     0.000683  g :     0.000683
      g+1     :     0.000000
      g-1     :     0.000000
      g+2     :     0.000000
      g-2     :     0.000000
      g+3     :     0.000000
      g-3     :     0.000000
      g+4     :     0.000000
      g-4     :     0.000000
  1 H s       :     1.314316  s :     1.314316
      pz      :     0.018808  p :     0.019246
      px      :     0.000219
      py      :     0.000219
      dz2     :     0.001982  d :     0.002227
      dxz     :     0.000122
      dyz     :     0.000122
      dx2y2   :     0.000000
      dxy     :     0.000000
      f0      :     0.000042  f :     0.000053
      f+1     :     0.000005
      f-1     :     0.000005
      f+2     :     0.000000
      f-2     :     0.000000
      f+3     :     0.000000
      f-3     :     0.000000


                     *******************************
                     * LOEWDIN POPULATION ANALYSIS *
                     *******************************

----------------------
LOEWDIN ATOMIC CHARGES
----------------------
   0 Sc:    0.213983
   1 H :   -0.213983

-------------------------------
LOEWDIN REDUCED ORBITAL CHARGES
-------------------------------
  0 Scs       :     7.524951  s :     7.524951
      pz      :     4.377490  p :    12.373997
      px      :     3.998253
      py      :     3.998253
      dz2     :     0.846173  d :     0.846257
      dxz     :     0.000042
      dyz     :     0.000042
      dx2y2   :     0.000000
      dxy     :     0.000000
      f0      :     0.032172  f :     0.032324
      f+1     :     0.000076
      f-1     :     0.000076
      f+2     :     0.000000
      f-2     :     0.000000
      f+3     :     0.000000
      f-3     :     0.000000
      g0      :     0.008484  g :     0.008489
      g+1     :     0.000002
      g-1     :     0.000002
      g+2     :     0.000000
      g-2     :     0.000000
      g+3     :     0.000000
      g-3     :     0.000000
      g+4     :     0.000000
      g-4     :     0.000000
  1 H s       :     1.129915  s :     1.129915
      pz      :     0.056880  p :     0.058469
      px      :     0.000794
      py      :     0.000794
      dz2     :     0.022206  d :     0.023679
      dxz     :     0.000737
      dyz     :     0.000737
      dx2y2   :     0.000000
      dxy     :     0.000000
      f0      :     0.001730  f :     0.001919
      f+1     :     0.000095
      f-1     :     0.000095
      f+2     :     0.000000
      f-2     :     0.000000
      f+3     :     0.000000
      f-3     :     0.000000


                      *****************************
                      * MAYER POPULATION ANALYSIS *
                      *****************************

  NA   - Mulliken gross atomic population
  ZA   - Total nuclear charge
  QA   - Mulliken gross atomic charge
  VA   - Mayer's total valence
  BVA  - Mayer's bonded valence
  FA   - Mayer's free valence

  ATOM       NA         ZA         QA         VA         BVA        FA
  0 Sc    20.6642    21.0000     0.3358     0.9255     0.9255     0.0000
  1 H      1.3358     1.0000    -0.3358     0.9255     0.9255    -0.0000

  Mayer bond orders larger than 0.100000
B(  0-Sc,  1-H ) :   0.9255 

-------
TIMINGS
-------

Total SCF time: 0 days 0 hours 0 min 4 sec 

Total time                  ....       4.068 sec
Sum of individual times     ....       3.824 sec  ( 94.0%)

Fock matrix formation       ....       3.762 sec  ( 92.5%)
Diagonalization             ....       0.025 sec  (  0.6%)
Density matrix formation    ....       0.005 sec  (  0.1%)
Population analysis         ....       0.003 sec  (  0.1%)
Initial guess               ....       0.010 sec  (  0.3%)
Orbital Transformation      ....       0.000 sec  (  0.0%)
Orbital Orthonormalization  ....       0.000 sec  (  0.0%)
DIIS solution               ....       0.019 sec  (  0.5%)


           ************************************************************
           *        Program running with 21 parallel MPI-processes    *
           *              working on a common directory               *
           ************************************************************


------------------------------------------------------------------------------- 
                              ORCA-MATRIX DRIVEN CI                            
------------------------------------------------------------------------------- 

--------------------------------
AUTOMATIC CHOICE OF INCORE LEVEL
--------------------------------

Memory available                           ...   2500.00 MB
Memory needed for S+T                      ...      6.03 MB
Memory needed for J+K                      ...     12.09 MB
Memory needed for DIIS                     ...     84.41 MB
Memory needed for 3-ext                    ...     64.31 MB
Memory needed for 4-ext                    ...    605.61 MB
Memory needed for triples                  ...     53.59 MB
 -> Final InCoreLevel    ... 5
 -> check shows that triples correction can be computed


Wavefunction type
-----------------
Correlation treatment                      ...      CCSD     
Single excitations                         ... ON
Orbital optimization                       ... OFF
Calculation of Z vector                    ... OFF
Calculation of Brueckner orbitals          ... OFF
Perturbative triple excitations            ... ON
Calculation of F12 correction              ... OFF
Frozen core treatment                      ... chemical core (10 el)
Reference Wavefunction                     ... RHF
  Internal Orbitals:     5 ...   10 (  6 MO's/ 12 electrons)
  Virtual  Orbitals:    11 ...  122 (112 MO's              )
Number of AO's                             ...    123
Number of electrons                        ...     22
Number of correlated electrons             ...     12

Algorithmic settings
--------------------
Integral transformation                    ... AO direct full transformation
K(C) Formation                             ... FULL-MO TRAFO
Maximum number of iterations               ...        50
Convergence tolerance (max. residuum)      ... 1.000e-06
Level shift for amplitude update           ... 2.000e-01
Maximum number of DIIS vectors             ...         7
DIIS turned on at iteration                ...         0
Damping before turning on DIIS             ...     0.500
Damping after turning on DIIS              ...     0.000
Pair specific amplitude update             ... OFF
Natural orbital iterations                 ... OFF
Perturbative natural orbital generation    ... OFF
Printlevel                                 ... 2

Memory handling:
----------------
Maximum memory for working arrays          ...   2500 MB
Data storage in matrix containers          ... UNCOMPRESSED
Data type for integral storage             ... DOUBLE
In-Core Storage of quantities:
   Amplitudes+Sigma Vector      ... YES
   J+K operators                ... YES
   DIIS vectors                 ... YES
[...]
<dg|ff>:          140 b            0 skpd (  0.0%)    0.002 s ( 0.017 ms/b)
<dg|fg>:          112 b            0 skpd (  0.0%)    0.004 s ( 0.033 ms/b)
<dg|gg>:           42 b            0 skpd (  0.0%)    0.006 s ( 0.136 ms/b)
<ff|ff>:           55 b            0 skpd (  0.0%)    0.002 s ( 0.029 ms/b)
<ff|fg>:           80 b            0 skpd (  0.0%)    0.003 s ( 0.037 ms/b)
<ff|gg>:           30 b            0 skpd (  0.0%)    0.004 s ( 0.142 ms/b)
<fg|fg>:           36 b            0 skpd (  0.0%)    0.003 s ( 0.088 ms/b)
<fg|gg>:           24 b            0 skpd (  0.0%)    0.005 s ( 0.224 ms/b)
<gg|gg>:            6 b            0 skpd (  0.0%)    0.003 s ( 0.555 ms/b)
Recanonicalizing the internal orbitals
Recanonicalizing the virtual orbitals
Time needed for Fock operator              ...            0.523 sec
Reference energy                           ...   -760.277265023

------------------------------
PARTIAL COULOMB TRANSFORMATION
------------------------------

Transformation type                        ... one-operator
Dimension of the basis                     ...  123
Number of internal MOs                     ...  118 (5-122)
Pair cutoff                                ... 0.000e+00 Eh
Number of AO pairs included in the trafo   ... 7626
Total Number of distinct AO pairs          ... 7626
Memory devoted for trafo                   ... 2500.0 MB 
Max. Number of MO pairs treated together   ... 42968      
Max. Number of MOs treated per batch       ...  349      
Number Format for Storage                  ... Double (8 Byte)
AO-integral source                         ... DIRECT
Integral package used                      ... LIBINT

Starting integral evaluation:
<ss|**>: <sp|**>:        84360 b        0 skpd     0.033 s (  0.000 ms/b)
       94905 b        0 skpd     0.058 s (  0.001 ms/b)
<sd|**>:        73815 b        0 skpd     0.065 s (  0.001 ms/b)
<sf|**>:        42180 b        0 skpd     0.031 s (  0.001 ms/b)
<sg|**>:        21090 b        0 skpd     0.049 s (  0.002 ms/b)
<pp|**>:        31635 b        0 skpd     0.103 s (  0.003 ms/b)
<pd|**>:        44289 b        0 skpd     0.119 s (  0.003 ms/b)
<pf|**>:        25308 b        0 skpd     0.052 s (  0.002 ms/b)
<pg|**>:        12654 b        0 skpd     0.073 s (  0.006 ms/b)
<dd|**>:        19684 b        0 skpd     0.120 s (  0.006 ms/b)
<df|**>:        19684 b        0 skpd     0.072 s (  0.004 ms/b)
<dg|**>:         9842 b        0 skpd     0.079 s (  0.008 ms/b)
<ff|**>:         7030 b        0 skpd     0.034 s (  0.005 ms/b)
<fg|**>:         5624 b        0 skpd     0.048 s (  0.009 ms/b)
<gg|**>:         2109 b        0 skpd     0.073 s (  0.035 ms/b)
Closing buffer AOJ ( 0.02 GB; CompressionRatio= 1.00)
Collecting buffer AOJ 
    ... done with AO integral generation
Number of MO pairs included in the trafo   ... 7021
    ... Now sorting integrals
IBATCH = 1 of  1
Closing buffer JAO ( 0.02 GB; CompressionRatio= 1.00)
Collecting buffer JAO 
TOTAL TIME for half transformation         ...     1.273 sec
AO-integral generation                     ...     0.948 sec
Half transformation                        ...     0.080 sec
J-integral sorting                         ...     0.176 sec

-------------------------- SECOND HALF TRANSFORMATION -------------------------
Formation of (pq|rs)                       ... ok (     0.128 sec)
Integral sorting                           ... ok (     1.530 sec)

------------------
CLOSED SHELL GUESS
------------------

Initial guess performed in     0.006 sec
E(0)                                       ...   -760.277265023
E(MP2)                                     ...     -0.317432252
Initial E(tot)                             ...   -760.594697275
<T|T>                                      ...      0.111029606
Number of pairs included                   ... 21
Total number of pairs                      ... 21

------------------------------------------------
                  RHF COUPLED CLUSTER ITERATIONS
------------------------------------------------

Number of amplitudes to be optimized       ... 264096

Iter       E(tot)           E(Corr)          Delta-E          Residual     Time
  0   -760.594697275     -0.317432252      0.000000000      0.011875810    0.15
                           *** Turning on DIIS ***
  1   -760.612221869     -0.334956846     -0.017524594      0.004874685    0.44
  2   -760.621492771     -0.344227748     -0.009270902      0.003343314    0.44
  3   -760.624158547     -0.346893523     -0.002665776      0.002449192    0.44
  4   -760.625598510     -0.348333487     -0.001439963      0.001683223    0.44
  5   -760.626115690     -0.348850666     -0.000517180      0.001141936    0.45
  6   -760.626292418     -0.349027395     -0.000176728      0.000749488    0.45
  7   -760.626326122     -0.349061099     -0.000033704      0.000478744    0.45
  8   -760.626327886     -0.349062863     -0.000001764      0.000253380    0.45
  9   -760.626319396     -0.349054373      0.000008490      0.000113394    0.45
 10   -760.626320902     -0.349055879     -0.000001506      0.000043587    0.45
 11   -760.626322214     -0.349057190     -0.000001312      0.000020173    0.45
 12   -760.626322655     -0.349057632     -0.000000442      0.000009345    0.45
 13   -760.626322148     -0.349057125      0.000000507      0.000004199    0.45
 14   -760.626321699     -0.349056675      0.000000449      0.000001901    0.45
 15   -760.626321437     -0.349056414      0.000000261      0.000000821    0.45
               --- The Coupled-Cluster iterations have converged ---

----------------------
COUPLED CLUSTER ENERGY
----------------------

E(0)                                       ...   -760.277265023
E(CORR)                                    ...     -0.349056414
E(TOT)                                     ...   -760.626321437
Singles Norm <S|S>**1/2                    ...      0.111137785  
T1 diagnostic                              ...      0.032082715  

------------------
LARGEST AMPLITUDES
------------------
  10-> 13  -1-> -1       0.075124
  10-> 11  10-> 11       0.072752
  10-> 12  10-> 12       0.072752
  10-> 13  10-> 13       0.072516
  10-> 16  10-> 16       0.045193
  10-> 15  10-> 15       0.045193
  10-> 20  10-> 11       0.045065
  10-> 11  10-> 20       0.045065
  10-> 21  10-> 12       0.045065
  10-> 12  10-> 21       0.045065
  10-> 13  10-> 19       0.040334
  10-> 19  10-> 13       0.040334
  10-> 20  10-> 20       0.036839
  10-> 21  10-> 21       0.036839
  10-> 19  -1-> -1       0.034515
   9-> 27   9-> 27       0.033522


        !!!!!!!!!!!!!!!!!!!!!!!!!!!!!!!!!!!!!!!!!!!!!!!!!!!!!!!!!!!!!!!!!!!!!!!!!! 
        !  Warning: Densities are linearized densities !                         !
        !!!!!!!!!!!!!!!!!!!!!!!!!!!!!!!!!!!!!!!!!!!!!!!!!!!!!!!!!!!!!!!!!!!!!!!!!! 

Trace of internal density part =     -0.353799231
Trace of external density part =      0.353799231
----------------------
RHF TRIPLES CORRECTION (Algorithm 1)
----------------------

Multiplier for the singles contribution    ...      1.000000000

10% done
20% done
30% done
40% done
50% done
60% done
70% done
80% done
90% done

Triples Correction (T)                     ...     -0.014001460
Scaling of triples based on CCSD energies (Peterson et al. Molecular Physics 113, 1551 (2015))
E(T*) = f*E(T) where f = E(F12-CCSD)/E(CCSD) 
f = CCSD (with F12)/ CCSD (without F12)    ...      1.000000000
Scaled triples correction (T)              ...     -0.014001460

Final correlation energy                   ...     -0.363057874
E(CCSD)                                    ...   -760.626321437
E(CCSD(T))                                 ...   -760.640322898

NORM  =      1.189251223 sqrt=     1.090527956
W(HF) =      0.840865228
------------------------------------------------------------------------------
                           ORCA POPULATION ANALYSIS
------------------------------------------------------------------------------
Input electron density              ... 01_ScH.mdcip
BaseName (.gbw .S,...)              ... 01_ScH

                    ********************************
                    * MULLIKEN POPULATION ANALYSIS *
                    ********************************

-----------------------
MULLIKEN ATOMIC CHARGES
-----------------------
   0 Sc:    0.246174
   1 H :   -0.246174
Sum of atomic charges:   -0.0000000

--------------------------------
MULLIKEN REDUCED ORBITAL CHARGES
--------------------------------
  0 Scs       :     7.551554  s :     7.551554
      pz      :     4.159882  p :    12.173614
      px      :     4.006866
      py      :     4.006866
      dz2     :     0.896219  d :     1.002118
      dxz     :     0.024561
      dyz     :     0.024561
      dx2y2   :     0.028388
      dxy     :     0.028388
      f0      :     0.010653  f :     0.024134
      f+1     :     0.003929
      f-1     :     0.003929
      f+2     :     0.001324
      f-2     :     0.001324
      f+3     :     0.001488
      f-3     :     0.001488
      g0      :     0.000858  g :     0.002406
      g+1     :     0.000400
      g-1     :     0.000400
      g+2     :     0.000189
      g-2     :     0.000189
      g+3     :     0.000084
      g-3     :     0.000084
      g+4     :     0.000100
      g-4     :     0.000100
  1 H s       :     1.215681  s :     1.215681
      pz      :     0.017046  p :     0.027837
      px      :     0.005395
      py      :     0.005395
      dz2     :     0.001718  d :     0.002557
      dxz     :     0.000328
      dyz     :     0.000328
      dx2y2   :     0.000092
      dxy     :     0.000092
      f0      :     0.000054  f :     0.000099
      f+1     :     0.000013
      f-1     :     0.000013
      f+2     :     0.000006
      f-2     :     0.000006
      f+3     :     0.000003
      f-3     :     0.000003


                     *******************************
                     * LOEWDIN POPULATION ANALYSIS *
                     *******************************

----------------------
LOEWDIN ATOMIC CHARGES
----------------------
   0 Sc:    0.187801
   1 H :   -0.187801

-------------------------------
LOEWDIN REDUCED ORBITAL CHARGES
-------------------------------
  0 Scs       :     7.389789  s :     7.389789
      pz      :     4.245565  p :    12.255740
      px      :     4.005088
      py      :     4.005088
      dz2     :     1.002223  d :     1.108729
      dxz     :     0.024871
      dyz     :     0.024871
      dx2y2   :     0.028382
      dxy     :     0.028382
      f0      :     0.032754  f :     0.046713
      f+1     :     0.004167
      f-1     :     0.004167
      f+2     :     0.001325
      f-2     :     0.001325
      f+3     :     0.001488
      f-3     :     0.001488
      g0      :     0.009371  g :     0.011228
      g+1     :     0.000553
      g-1     :     0.000553
      g+2     :     0.000191
      g-2     :     0.000191
      g+3     :     0.000084
      g-3     :     0.000084
      g+4     :     0.000100
      g-4     :     0.000100
  1 H s       :     1.082239  s :     1.082239
      pz      :     0.066002  p :     0.077194
      px      :     0.005596
      py      :     0.005596
      dz2     :     0.023861  d :     0.026238
      dxz     :     0.001094
      dyz     :     0.001094
      dx2y2   :     0.000095
      dxy     :     0.000095
      f0      :     0.001860  f :     0.002130
      f+1     :     0.000125
      f-1     :     0.000125
      f+2     :     0.000007
      f-2     :     0.000007
      f+3     :     0.000003
      f-3     :     0.000003


                      *****************************
                      * MAYER POPULATION ANALYSIS *
                      *****************************

  NA   - Mulliken gross atomic population
  ZA   - Total nuclear charge
  QA   - Mulliken gross atomic charge
  VA   - Mayer's total valence
  BVA  - Mayer's bonded valence
  FA   - Mayer's free valence

  ATOM       NA         ZA         QA         VA         BVA        FA
  0 Sc    20.7538    21.0000     0.2462     2.0079     0.8662     1.1418
  1 H      1.2462     1.0000    -0.2462     1.0114     0.8662     0.1452

  Mayer bond orders larger than 0.100000
B(  0-Sc,  1-H ) :   0.8662 



------------------------------------------------------------------------------- 
                                     TIMINGS                                   
------------------------------------------------------------------------------- 


Total execution time                   ...       11.067 sec

Fock Matrix Formation                  ...        0.523 sec (  4.7%)
Initial Guess                          ...        0.006 sec (  0.1%)
DIIS Solver                            ...        0.261 sec (  2.4%)
State Vector Update                    ...        0.011 sec (  0.1%)
Sigma-vector construction              ...        6.579 sec ( 59.5%)
  <0|H|D>                              ...        0.001 sec (  0.0% of sigma)
  <D|H|D>(0-ext)                       ...        0.011 sec (  0.2% of sigma)
  <D|H|D>(2-ext Fock)                  ...        0.002 sec (  0.0% of sigma)
  <D|H|D>(2-ext)                       ...        0.040 sec (  0.6% of sigma)
  <D|H|D>(4-ext)                       ...        0.548 sec (  8.3% of sigma)
  <D|H|D>(4-ext-corr)                  ...        0.629 sec (  9.6% of sigma)
  <S|H|0>                              ...        0.004 sec (  0.1% of sigma)
  <S|H|S>                              ...        0.006 sec (  0.1% of sigma)
  <S|H|D>(1-ext)                       ...        0.015 sec (  0.2% of sigma)
  <D|H|S>(1-ext)                       ...        0.009 sec (  0.1% of sigma)
  <S|H|D>(3-ext)                       ...        0.227 sec (  3.4% of sigma)
  Fock-dressing                        ...        4.311 sec ( 65.5% of sigma)
  (ik|jl)-dressing                     ...        0.011 sec (  0.2% of sigma)
  (ij|ab),(ia|jb)-dressing             ...        0.615 sec (  9.3% of sigma)
  Pair energies                        ...        0.002 sec (  0.0% of sigma)
Total Time for computing (T)           ...        0.298 sec (  2.7% of ALL)
  I/O of integral and amplitudes       ...        0.101 sec ( 34.0% of (T))
  N**6 sorting step                    ...        0.066 sec ( 22.3% of (T))
  External N**7 contributions          ...        0.072 sec ( 24.3% of (T))
  Internal N**7 contributions          ...        0.025 sec (  8.5% of (T))
  N**6 triples energy contributions    ...        0.032 sec ( 10.9% of (T))
One-particle density matrix            ...        0.001 sec (  0.0%)


-------------------
EXTRAPOLATED ENERGY
-------------------


-----------------------------------------------------------------
                      EP1 - MDCI extrapolation:
-----------------------------------------------------------------
NOTE: We use as reference SCF energy, for the extrapolation, the one from the MDCI module and not the one 
from the SCF calculation. In case the first step is a DFT calculation these two might be different.

NOTE: For the SCF part we extrapolate based on the scheme proposed in J. Chem. Phys. 2008, 129, 184116
using the exponents from J. Chem. Theory Comput., 7, 33-43 (2011)

NOTE: For the correlation part we extrapolate based on the scheme proposed in J. Chem. Phys. 1997, 106, 9639
using the exponents from J. Chem. Theory Comput., 7, 33-43 (2011)


Alpha(3/4)     :  7.880 (SCF Extrapolation)
Beta(3/4)      :  2.970 (correlation extrapolation)

SCF energy with basis def2-TZVPP:                      -760.263210051
SCF energy with basis def2-QZVPP:                      -760.277265023
Extrapolated CBS SCF energy (3/4) :                    -760.279200937 (-0.001935913) 

MDCI energy with basis def2-TZVPP:                       -0.315986419
MDCI energy with basis def2-QZVPP:                       -0.363057874
Extrapolated CBS correlation energy (3/4) :              -0.397925593 (-0.034867719)

Estimated CBS total energy (3/4) :                     -760.677126530



-------------------------   --------------------
FINAL SINGLE POINT ENERGY      -760.677126530222
-------------------------   --------------------


                            ***************************************
                            *     ORCA property calculations      *
                            ***************************************

                                    ---------------------
                                    Active property flags
                                    ---------------------
   (+) Dipole Moment


------------------------------------------------------------------------------
                       ORCA ELECTRIC PROPERTIES CALCULATION
------------------------------------------------------------------------------

Dipole Moment Calculation                       ... on
Quadrupole Moment Calculation                   ... off
Polarizability Calculation                      ... off
GBWName                                         ... 01_ScH.gbw
Electron density file                           ... 01_ScH.scfp
The origin for moment calculation is the CENTER OF MASS  = ( 0.000000,  0.000000  0.291511)

-------------
DIPOLE MOMENT
-------------
                                X             Y             Z
Electronic contribution:      0.00000      -0.00000      -2.29531
Nuclear contribution   :      0.00000       0.00000       1.73028
                        -----------------------------------------
Total Dipole Moment    :      0.00000      -0.00000      -0.56503
                        -----------------------------------------
Magnitude (a.u.)       :      0.56503
Magnitude (Debye)      :      1.43618



--------------------
Rotational spectrum 
--------------------
 
Rotational constants in cm-1:     0.000000     5.463605     5.463605 
Rotational constants in MHz :     0.000000 163794.743331 163794.743331 

 Dipole components along the rotational axes: 
x,y,z [a.u.] :    -0.565026    -0.000000     0.000000 
x,y,z [Debye]:    -1.436181    -0.000000     0.000000 

 

                           *** MDCI DENSITY ***

------------------------------------------------------------------------------
                       ORCA ELECTRIC PROPERTIES CALCULATION
------------------------------------------------------------------------------

Dipole Moment Calculation                       ... on
Quadrupole Moment Calculation                   ... off
Polarizability Calculation                      ... off
GBWName                                         ... 01_ScH.gbw
Electron density file                           ... 01_ScH.mdcip
The origin for moment calculation is the CENTER OF MASS  = ( 0.000000,  0.000000  0.291511)

-------------
DIPOLE MOMENT
-------------
                                X             Y             Z
Electronic contribution:     -0.00000       0.00000      -2.44052
Nuclear contribution   :      0.00000       0.00000       1.73028
                        -----------------------------------------
Total Dipole Moment    :     -0.00000       0.00000      -0.71024
                        -----------------------------------------
Magnitude (a.u.)       :      0.71024
Magnitude (Debye)      :      1.80528



--------------------
Rotational spectrum 
--------------------
 
Rotational constants in cm-1:     0.000000     5.463605     5.463605 
Rotational constants in MHz :     0.000000 163794.743331 163794.743331 

 Dipole components along the rotational axes: 
x,y,z [a.u.] :    -0.710239     0.000000    -0.000000 
x,y,z [Debye]:    -1.805284     0.000000    -0.000000 

 

Timings for individual modules:

Sum of individual times         ...       24.643 sec (=   0.411 min)
GTO integral calculation        ...        1.455 sec (=   0.024 min)   5.9 %
SCF iterations                  ...        7.862 sec (=   0.131 min)  31.9 %
MDCI module                     ...       15.326 sec (=   0.255 min)  62.2 %
                             ****ORCA TERMINATED NORMALLY****
TOTAL RUN TIME: 0 days 0 hours 0 minutes 25 seconds 513 msec
