
                                 *****************
                                 * O   R   C   A *
                                 *****************

           --- An Ab Initio, DFT and Semiempirical electronic structure package ---

                  #######################################################
                  #                        -***-                        #
                  #          Department of theory and spectroscopy      #
                  #               Directorship: Frank Neese             #
                  #        Max Planck Institute fuer Kohlenforschung    #
                  #                Kaiser Wilhelm Platz 1               #
                  #                 D-45470 Muelheim/Ruhr               #
                  #                      Germany                        #
                  #                                                     #
                  #                  All rights reserved                #
                  #                        -***-                        #
                  #######################################################


                         Program Version 4.2.0 -  RELEASE  -


 With contributions from (in alphabetic order):
   Daniel Aravena         : Magnetic Suceptibility
   Michael Atanasov       : Ab Initio Ligand Field Theory (pilot matlab implementation)
   Alexander A. Auer      : GIAO ZORA, VPT2
   Ute Becker             : Parallelization
   Giovanni Bistoni       : ED, misc. LED, open-shell LED, HFLED
   Martin Brehm           : Molecular dynamics
   Dmytro Bykov           : SCF Hessian
   Vijay G. Chilkuri      : MRCI spin determinant printing, contributions to CSF-ICE
   Dipayan Datta          : RHF DLPNO-CCSD density
   Achintya Kumar Dutta   : EOM-CC, STEOM-CC
   Dmitry Ganyushin       : Spin-Orbit,Spin-Spin,Magnetic field MRCI
   Miquel Garcia          : C-PCM Hessian, Gaussian charge scheme
   Yang Guo               : DLPNO-NEVPT2, CIM, IAO-localization
   Andreas Hansen         : Spin unrestricted coupled pair/coupled cluster methods
   Benjamin Helmich-Paris : CASSCF linear response (MC-RPA)
   Lee Huntington         : MR-EOM, pCC
   Robert Izsak           : Overlap fitted RIJCOSX, COSX-SCS-MP3, EOM
   Christian Kollmar      : KDIIS, OOCD, Brueckner-CCSD(T), CCSD density
   Simone Kossmann        : Meta GGA functionals, TD-DFT gradient, OOMP2, MP2 Hessian
   Martin Krupicka        : AUTO-CI
   Lucas Lang             : DCDCAS
   Dagmar Lenk            : GEPOL surface, SMD
   Dimitrios Liakos       : Extrapolation schemes; Compound Job, initial MDCI parallelization
   Dimitrios Manganas     : Further ROCIS development; embedding schemes
   Dimitrios Pantazis     : SARC Basis sets
   Taras Petrenko         : DFT Hessian,TD-DFT gradient, ASA, ECA, R-Raman, ABS, FL, XAS/XES, NRVS
   Peter Pinski           : DLPNO-MP2, DLPNO-MP2 Gradient
   Christoph Reimann      : Effective Core Potentials
   Marius Retegan         : Local ZFS, SOC
   Christoph Riplinger    : Optimizer, TS searches, QM/MM, DLPNO-CCSD(T), (RO)-DLPNO pert. Triples
   Tobias Risthaus        : Range-separated hybrids, TD-DFT gradient, RPA, STAB
   Michael Roemelt        : Original ROCIS implementation
   Masaaki Saitow         : Open-shell DLPNO-CCSD energy and density
   Barbara Sandhoefer     : DKH picture change effects
   Avijit Sen             : IP-ROCIS
   Kantharuban Sivalingam : CASSCF convergence, NEVPT2, FIC-MRCI
   Bernardo de Souza      : ESD, SOC TD-DFT
   Georgi Stoychev        : AutoAux, RI-MP2 NMR
   Willem Van den Heuvel  : Paramagnetic NMR
   Boris Wezisla          : Elementary symmetry handling
   Frank Wennmohs         : Technical directorship


 We gratefully acknowledge several colleagues who have allowed us to
 interface, adapt or use parts of their codes:
   Stefan Grimme, W. Hujo, H. Kruse,             : VdW corrections, initial TS optimization,
                  C. Bannwarth                     DFT functionals, gCP, sTDA/sTD-DF
   Ed Valeev, F. Pavosevic, A. Kumar             : LibInt (2-el integral package), F12 methods
   Garnet Chan, S. Sharma, J. Yang, R. Olivares  : DMRG
   Ulf Ekstrom                                   : XCFun DFT Library
   Mihaly Kallay                                 : mrcc  (arbitrary order and MRCC methods)
   Andreas Klamt, Michael Diedenhofen            : otool_cosmo (COSMO solvation model)
   Jiri Pittner, Ondrej Demel                    : Mk-CCSD
   Frank Weinhold                                : gennbo (NPA and NBO analysis)
   Christopher J. Cramer and Donald G. Truhlar   : smd solvation model
   Lars Goerigk                                  : TD-DFT with DH, B97 family of functionals
   V. Asgeirsson, H. Jonsson                     : NEB implementation
   FAccTs GmbH                                   : IRC, NEB, NEB-TS, Multilevel, MM, QM/MM, CI optimization
   S Lehtola, MJT Oliveira, MAL Marques          : LibXC Library


 Your calculation uses the libint2 library for the computation of 2-el integrals
 For citations please refer to: http://libint.valeyev.net

 Your ORCA version has been built with support for libXC version: 4.2.3
 For citations please refer to: https://tddft.org/programs/libxc/

 This ORCA versions uses:
   CBLAS   interface :  Fast vector & matrix operations
   LAPACKE interface :  Fast linear algebra routines
   SCALAPACK package :  Parallel linear algebra routines


----- Orbital basis set information -----
Your calculation utilizes the basis: def2-TZVPP
   F. Weigend and R. Ahlrichs, Phys. Chem. Chem. Phys. 7, 3297 (2005).

================================================================================
                                        WARNINGS
                       Please study these warnings very carefully!
================================================================================


WARNING: MDCI localization with Augmented Hessian Foster-Boys
  ===> : Switching off randomization!

WARNING: Post HF methods need fully converged wavefunctions
  ===> : Setting SCFConvForced true
         You can overwrite this default with %scf ConvForced false 


INFO   : the flag for use of LIBINT has been found!

================================================================================
                                       INPUT FILE
================================================================================
NAME = 02_ScF.in
|  1> #
|  2> # 02_ScF ccsd(t)/cbs
|  3> #
|  4> ! ccsd(t) extrapolate(3/4,def2) verytightscf
|  5> 
|  6> *xyz 0 1
|  7>   Sc  0.00000000000000      0.00000000000000      0.10357126289626
|  8>   F   0.00000000000000      0.00000000000000      1.89642873710374
|  9> *
| 10> 
| 11> %maxcore 5000
| 12> %pal
| 13> nprocs 24
| 14> end
| 15> 
| 16> 
| 17>                          ****END OF INPUT****
================================================================================

                   *****************************************
                   * Extrapolated Single Point Calculation *
                   *****************************************

----- Orbital basis set information -----
Your calculation utilizes the basis: def2-TZVPP
   F. Weigend and R. Ahlrichs, Phys. Chem. Chem. Phys. 7, 3297 (2005).

----- AuxJ basis set information -----
Your calculation utilizes the auxiliary basis: def2/J
   F. Weigend, Phys. Chem. Chem. Phys. 8, 1057 (2006).

----- AuxC basis set information -----
Your calculation utilizes the auxiliary basis: def2-TZVPP/C
  H-La, Hf-Rn : A. Hellweg, C. Hattig, S. Hofener and W. Klopper, Theor. Chem. Acc. 117, 587 (2007).
        Ce-Lu : J. Chmela and M. E. Harding, Mol. Phys. (2018).

----- AuxJK basis set information -----
Your calculation utilizes the auxiliary basis: def2/JK
   H-Ba, Hf-Rn: F. Weigend, J. Comput. Chem. 29, 167 (2008).

All done

                     -----------------------------------------
                     Extrapolated Energy 1 Basis=  def2-TZVPP
                     -----------------------------------------

---------------------------------
CARTESIAN COORDINATES (ANGSTROEM)
---------------------------------
  Sc     0.000000    0.000000    0.103571
  F      0.000000    0.000000    1.896429

----------------------------
CARTESIAN COORDINATES (A.U.)
----------------------------
  NO LB      ZA    FRAG     MASS         X           Y           Z
   0 Sc   21.0000    0    44.960    0.000000    0.000000    0.195721
   1 F     9.0000    0    18.998    0.000000    0.000000    3.583731

--------------------------------
INTERNAL COORDINATES (ANGSTROEM)
--------------------------------
 Sc     0   0   0     0.000000000000     0.00000000     0.00000000
 F      1   0   0     1.792857474207     0.00000000     0.00000000

---------------------------
INTERNAL COORDINATES (A.U.)
---------------------------
 Sc     0   0   0     0.000000000000     0.00000000     0.00000000
 F      1   0   0     3.388009623406     0.00000000     0.00000000

---------------------
BASIS SET INFORMATION
---------------------
There are 2 groups of distinct atoms

 Group   1 Type Sc  : 17s12p7d2f1g contracted to 6s5p4d2f1g pattern {842111/63111/4111/11/1}
 Group   2 Type F   : 11s6p2d1f contracted to 5s3p2d1f pattern {62111/411/11/1}

Atom   0Sc   basis set group =>   1
Atom   1F    basis set group =>   2
---------------------------------
AUXILIARY/J BASIS SET INFORMATION
---------------------------------
There are 2 groups of distinct atoms

 Group   1 Type Sc  : 19s5p5d3f3g contracted to 8s5p5d2f3g pattern {121111111/11111/11111/21/111}
 Group   2 Type F   : 12s5p4d2f1g contracted to 6s4p3d1f1g pattern {711111/2111/211/2/1}

Atom   0Sc   basis set group =>   1
Atom   1F    basis set group =>   2
---------------------------------
AUXILIARY/C BASIS SET INFORMATION
---------------------------------
There are 2 groups of distinct atoms

 Group   1 Type Sc  : 9s9p8d7f5g3h1i contracted to 9s9p8d7f5g3h1i pattern {111111111/111111111/11111111/1111111/11111/111/1}
 Group   2 Type F   : 8s6p5d3f1g contracted to 8s6p4d3f1g pattern {11111111/111111/2111/111/1}

Atom   0Sc   basis set group =>   1
Atom   1F    basis set group =>   2
----------------------------------
AUXILIARY/JK BASIS SET INFORMATION
----------------------------------
There are 2 groups of distinct atoms

 Group   1 Type Sc  : 19s14p12d10f7g3h1i contracted to 16s13p11d9f5g3h1i pattern {4111111111111111/2111111111111/21111111111/211111111/31111/111/1}
 Group   2 Type F   : 14s10p6d2f1g contracted to 10s8p4d2f1g pattern {5111111111/31111111/3111/11/1}

Atom   0Sc   basis set group =>   1
Atom   1F    basis set group =>   2


           ************************************************************
           *        Program running with 24 parallel MPI-processes    *
           *              working on a common directory               *
           ************************************************************
------------------------------------------------------------------------------
                           ORCA GTO INTEGRAL CALCULATION
------------------------------------------------------------------------------

                         BASIS SET STATISTICS AND STARTUP INFO

 # of primitive gaussian shells          ...   59
 # of primitive gaussian functions       ...  157
 # of contracted shells                  ...   29
 # of contracted basis functions         ...   95
 Highest angular momentum                ...    4
 Maximum contraction depth               ...    8
 Integral package used                   ... LIBINT
 Integral threshhold            Thresh   ...  1.000e-12
 Primitive cut-off              TCut     ...  1.000e-14


------------------------------ INTEGRAL EVALUATION ----------------------------


 * One electron integrals 
 Pre-screening matrix                    ... done
 Shell pair data                         ... done (   0.000 sec)



           ************************************************************
           *        Program running with 24 parallel MPI-processes    *
           *              working on a common directory               *
           ************************************************************
-------------------------------------------------------------------------------
                                 ORCA SCF
-------------------------------------------------------------------------------

------------
SCF SETTINGS
------------
Hamiltonian:
 Ab initio Hamiltonian  Method          .... Hartree-Fock(GTOs)


General Settings:
 Integral files         IntName         .... 02_ScF
 Hartree-Fock type      HFTyp           .... RHF
 Total Charge           Charge          ....    0
 Multiplicity           Mult            ....    1
 Number of Electrons    NEL             ....   30
 Basis Dimension        Dim             ....   95
 Nuclear Repulsion      ENuc            ....     55.7849655132 Eh

Convergence Acceleration:
 DIIS                   CNVDIIS         .... on
   Start iteration      DIISMaxIt       ....    12
   Startup error        DIISStart       ....  0.200000
   # of expansion vecs  DIISMaxEq       ....     5
   Bias factor          DIISBfac        ....   1.050
   Max. coefficient     DIISMaxC        ....  10.000
 Newton-Raphson         CNVNR           .... off
 SOSCF                  CNVSOSCF        .... off
 Level Shifting         CNVShift        .... on
   Level shift para.    LevelShift      ....    0.2500
   Turn off err/grad.   ShiftErr        ....    0.0010
 Zerner damping         CNVZerner       .... off
 Static damping         CNVDamp         .... on
   Fraction old density DampFac         ....    0.7000
   Max. Damping (<1)    DampMax         ....    0.9800
   Min. Damping (>=0)   DampMin         ....    0.0000
   Turn off err/grad.   DampErr         ....    0.1000
 Fernandez-Rico         CNVRico         .... off

SCF Procedure:
 Maximum # iterations   MaxIter         ....   125
 SCF integral mode      SCFMode         .... Direct
   Integral package                     .... LIBINT
 Reset frequency        DirectResetFreq ....    20
 Integral Threshold     Thresh          ....  1.000e-12 Eh
 Primitive CutOff       TCut            ....  1.000e-14 Eh

Convergence Tolerance:
 Convergence Check Mode ConvCheckMode   .... Total+1el-Energy
 Convergence forced     ConvForced      .... 1
 Energy Change          TolE            ....  1.000e-09 Eh
 1-El. energy change                    ....  1.000e-06 Eh
 DIIS Error             TolErr          ....  1.000e-08


Diagonalization of the overlap matrix:
Smallest eigenvalue                        ... 2.791e-03
Time for diagonalization                   ...    0.003 sec
Threshold for overlap eigenvalues          ... 1.000e-08
Number of eigenvalues below threshold      ... 0
Time for construction of square roots      ...    0.001 sec
Total time needed                          ...    0.005 sec

-------------------
DFT GRID GENERATION
-------------------

General Integration Accuracy     IntAcc      ...  4.340
Radial Grid Type                 RadialGrid  ... Gauss-Chebyshev
Angular Grid (max. acc.)         AngularGrid ... Lebedev-110
Angular grid pruning method      GridPruning ... 3 (G Style)
Weight generation scheme         WeightScheme... Becke
Basis function cutoff            BFCut       ...    1.0000e-12
Integration weight cutoff        WCut        ...    1.0000e-14
Grids for H and He will be reduced by one unit

# of grid points (after initial pruning)     ...   4712 (   0.0 sec)
# of grid points (after weights+screening)   ...   4686 (   0.0 sec)
nearest neighbour list constructed           ...    0.0 sec
Grid point re-assignment to atoms done       ...    0.0 sec
Grid point division into batches done        ...    0.0 sec
Reduced shell lists constructed in    0.0 sec

Total number of grid points                  ...     4686
Total number of batches                      ...       74
Average number of points per batch           ...       63
Average number of grid points per atom       ...     2343
Average number of shells per batch           ...    11.20 (38.62%)
Average number of basis functions per batch  ...    43.20 (45.47%)
Average number of large shells per batch     ...     7.40 (66.07%)
Average number of large basis fcns per batch ...    29.80 (68.98%)
Maximum spatial batch extension              ...  21.18, 31.13, 17.09 au
Average spatial batch extension              ...   1.09,  1.42,  0.92 au

Time for grid setup =    0.024 sec

------------------------------
INITIAL GUESS: MODEL POTENTIAL
------------------------------
Loading Hartree-Fock densities                     ... done
Calculating cut-offs                               ... done
Setting up the integral package                    ... done
Initializing the effective Hamiltonian             ... done
Starting the Coulomb interaction                   ... done (   0.0 sec)
Reading the grid                                   ... done
Mapping shells                                     ... done
Starting the XC term evaluation                    ... done (   0.0 sec)
Transforming the Hamiltonian                       ... done (   0.0 sec)
Diagonalizing the Hamiltonian                      ... done (   0.0 sec)
Back transforming the eigenvectors                 ... done (   0.0 sec)
Now organizing SCF variables                       ... done
                      ------------------
                      INITIAL GUESS DONE (   0.1 sec)
                      ------------------
--------------
SCF ITERATIONS
--------------
ITER       Energy         Delta-E        Max-DP      RMS-DP      [F,P]     Damp
               ***  Starting incremental Fock matrix formation  ***
  0   -859.1964048543   0.000000000000 0.03408299  0.00111250  0.3313278 0.7000
  1   -859.2246752557  -0.028270401412 0.02441310  0.00082679  0.2491212 0.7000
                               ***Turning on DIIS***
  2   -859.2405405964  -0.015865340732 0.01889481  0.00057894  0.1851104 0.7000
  3   -859.3886133145  -0.148072718105 0.01578666  0.00046121  0.1353458 0.7000
  4   -859.3980622131  -0.009448898565 0.05122178  0.00138302  0.0951834 0.0000
  5   -859.2927157609   0.105346452148 0.01746771  0.00042608  0.0104670 0.0000
  6   -859.2986275016  -0.005911740665 0.01939875  0.00039252  0.0089464 0.0000
  7   -859.3523329339  -0.053705432324 0.02723626  0.00051103  0.0072509 0.0000
  8   -859.3176340757   0.034698858238 0.01605624  0.00030005  0.0051308 0.0000
  9   -859.3373284114  -0.019694335756 0.01395920  0.00026980  0.0033445 0.0000
 10   -859.3118317645   0.025496646965 0.00495881  0.00012104  0.0017941 0.0000
 11   -859.3013840127   0.010447751823 0.00384446  0.00011249  0.0009313 0.0000
 12   -859.2805365316   0.020847481046 0.00216100  0.00002803  0.0001246 0.0000
 13   -859.2812683563  -0.000731824699 0.00088380  0.00001165  0.0000551 0.0000
 14   -859.2815038773  -0.000235520999 0.00023792  0.00000321  0.0000326 0.0000
 15   -859.2814842056   0.000019671759 0.00001105  0.00000024  0.0000070 0.0000
 16   -859.2815012272  -0.000017021626 0.00003270  0.00000044  0.0000023 0.0000
 17   -859.2815021537  -0.000000926518 0.00001121  0.00000017  0.0000014 0.0000
 18   -859.2815022397  -0.000000085984 0.00000183  0.00000005  0.0000005 0.0000
 19   -859.2815005299   0.000001709775 0.00000132  0.00000003  0.0000001 0.0000
               *** Restarting incremental Fock matrix formation ***
                                   *** Resetting DIIS ***
 20   -859.2814982409   0.000002288977 0.00000057  0.00000001  0.0000000 0.0000
 21   -859.2814981579   0.000000083052 0.00000017  0.00000000  0.0000000 0.0000
                            ***DIIS convergence achieved***

               *****************************************************
               *                     SUCCESS                       *
               *           SCF CONVERGED AFTER  22 CYCLES          *
               *****************************************************


----------------
TOTAL SCF ENERGY
----------------

Total Energy       :         -859.28149832 Eh          -23382.23830 eV

Components:
Nuclear Repulsion  :           55.78496551 Eh            1517.98608 eV
Electronic Energy  :         -915.06646383 Eh          -24900.22438 eV
One Electron Energy:        -1289.24789743 Eh          -35082.21883 eV
Two Electron Energy:          374.18143360 Eh           10181.99445 eV

Virial components:
Potential Energy   :        -1718.57088878 Eh          -46764.69135 eV
Kinetic Energy     :          859.28939046 Eh           23382.45306 eV
Virial Ratio       :            1.99999082


---------------
SCF CONVERGENCE
---------------

  Last Energy change         ...   -1.6389e-07  Tolerance :   1.0000e-09
  Last MAX-Density change    ...    1.9981e-07  Tolerance :   1.0000e-08
  Last RMS-Density change    ...    2.6332e-09  Tolerance :   1.0000e-09
  Last DIIS Error            ...    8.4315e-09  Tolerance :   1.0000e-08

             **** THE GBW FILE WAS UPDATED (02_ScF.gbw) ****
             **** DENSITY FILE WAS UPDATED (02_ScF.scfp) ****
             **** ENERGY FILE WAS UPDATED (02_ScF.en.tmp) ****
             **** THE GBW FILE WAS UPDATED (02_ScF.gbw) ****
             **** DENSITY FILE WAS UPDATED (02_ScF.scfp) ****
----------------
ORBITAL ENERGIES
----------------

  NO   OCC          E(Eh)            E(eV) 
   0   2.0000    -166.029722     -4517.8984 
   1   2.0000     -26.258317      -714.5251 
   2   2.0000     -19.237222      -523.4714 
   3   2.0000     -15.823715      -430.5852 
   4   2.0000     -15.823715      -430.5852 
   5   2.0000     -15.817479      -430.4155 
   6   2.0000      -2.700764       -73.4915 
   7   2.0000      -1.734879       -47.2084 
   8   2.0000      -1.695424       -46.1348 
   9   2.0000      -1.695424       -46.1348 
  10   2.0000      -1.494529       -40.6682 
  11   2.0000      -0.642992       -17.4967 
  12   2.0000      -0.623175       -16.9574 
  13   2.0000      -0.623175       -16.9574 
  14   2.0000      -0.241984        -6.5847 
  15   0.0000       0.030385         0.8268 
  16   0.0000       0.030385         0.8268 
  17   0.0000       0.042998         1.1700 
  18   0.0000       0.061651         1.6776 
  19   0.0000       0.061651         1.6776 
  20   0.0000       0.106380         2.8948 
  21   0.0000       0.109298         2.9742 
  22   0.0000       0.109298         2.9742 
  23   0.0000       0.146595         3.9890 
  24   0.0000       0.146595         3.9890 
  25   0.0000       0.149582         4.0703 
  26   0.0000       0.150635         4.0990 
  27   0.0000       0.150635         4.0990 
  28   0.0000       0.194064         5.2808 
  29   0.0000       0.301224         8.1967 
  30   0.0000       0.301224         8.1967 
  31   0.0000       0.383422        10.4334 
  32   0.0000       0.409940        11.1550 
  33   0.0000       0.409940        11.1550 
  34   0.0000       0.410603        11.1731 
  35   0.0000       0.410603        11.1731 
  36   0.0000       0.438436        11.9305 
  37   0.0000       0.438436        11.9305 
  38   0.0000       0.442901        12.0519 
  39   0.0000       0.509742        13.8708 
  40   0.0000       0.509742        13.8708 
  41   0.0000       0.548557        14.9270 
  42   0.0000       0.555991        15.1293 
  43   0.0000       0.555991        15.1293 
  44   0.0000       0.892332        24.2816 
  45   0.0000       0.974462        26.5165 
  46   0.0000       0.974462        26.5165 
  47   0.0000       1.145313        31.1656 
  48   0.0000       1.145313        31.1656 
  49   0.0000       1.164362        31.6839 
  50   0.0000       1.164362        31.6839 
  51   0.0000       1.167691        31.7745 
  52   0.0000       1.167691        31.7745 
  53   0.0000       1.242020        33.7971 
  54   0.0000       1.310692        35.6657 
  55   0.0000       1.310692        35.6657 
  56   0.0000       1.393948        37.9312 
  57   0.0000       1.408745        38.3339 
  58   0.0000       1.408745        38.3339 
  59   0.0000       1.447864        39.3984 
  60   0.0000       1.466591        39.9080 
  61   0.0000       1.466591        39.9080 
  62   0.0000       1.469167        39.9781 
  63   0.0000       1.469167        39.9781 
  64   0.0000       1.470516        40.0148 
  65   0.0000       1.470516        40.0148 
  66   0.0000       1.661136        45.2018 
  67   0.0000       1.681792        45.7639 
  68   0.0000       1.783555        48.5330 
  69   0.0000       1.783555        48.5330 
  70   0.0000       1.792881        48.7868 
  71   0.0000       1.792881        48.7868 
  72   0.0000       2.056871        55.9703 
  73   0.0000       2.471288        67.2472 
  74   0.0000       2.471288        67.2472 
  75   0.0000       2.888260        78.5936 
  76   0.0000       2.888260        78.5936 
  77   0.0000       3.125151        85.0397 
  78   0.0000       3.854535       104.8872 
  79   0.0000       3.854535       104.8872 
  80   0.0000       4.333642       117.9244 
  81   0.0000       4.799657       130.6053 
  82   0.0000       7.418384       201.8645 
  83   0.0000       7.418384       201.8645 
  84   0.0000       7.430382       202.1910 
  85   0.0000       7.430382       202.1910 
  86   0.0000       7.470408       203.2801 
  87   0.0000       7.470408       203.2801 
  88   0.0000       7.522388       204.6946 
  89   0.0000       8.986163       244.5259 
  90   0.0000       8.986163       244.5259 
  91   0.0000       9.222084       250.9457 
  92   0.0000       9.222084       250.9457 
  93   0.0000       9.422778       256.4068 
  94   0.0000      58.958322      1604.3375 

                    ********************************
                    * MULLIKEN POPULATION ANALYSIS *
                    ********************************

-----------------------
MULLIKEN ATOMIC CHARGES
-----------------------
   0 Sc:    0.494432
   1 F :   -0.494432
Sum of atomic charges:   -0.0000000

--------------------------------
MULLIKEN REDUCED ORBITAL CHARGES
--------------------------------
  0 Scs       :     7.693140  s :     7.693140
      pz      :     4.148722  p :    12.193887
      px      :     4.022582
      py      :     4.022582
      dz2     :     0.370064  d :     0.534986
      dxz     :     0.082461
      dyz     :     0.082461
      dx2y2   :     0.000000
      dxy     :     0.000000
      f0      :     0.016096  f :     0.061699
      f+1     :     0.022801
      f-1     :     0.022801
      f+2     :     0.000000
      f-2     :     0.000000
      f+3     :     0.000000
      f-3     :     0.000000
      g0      :     0.002024  g :     0.021856
      g+1     :     0.009916
      g-1     :     0.009916
      g+2     :     0.000000
      g-2     :     0.000000
      g+3     :     0.000000
      g-3     :     0.000000
      g+4     :     0.000000
      g-4     :     0.000000
  1 F s       :     3.956950  s :     3.956950
      pz      :     1.809796  p :     5.530480
      px      :     1.860342
      py      :     1.860342
      dz2     :     0.003099  d :     0.006819
      dxz     :     0.001860
      dyz     :     0.001860
      dx2y2   :     0.000000
      dxy     :     0.000000
      f0      :     0.000110  f :     0.000183
      f+1     :     0.000037
      f-1     :     0.000037
      f+2     :     0.000000
      f-2     :     0.000000
      f+3     :     0.000000
      f-3     :     0.000000


                     *******************************
                     * LOEWDIN POPULATION ANALYSIS *
                     *******************************

----------------------
LOEWDIN ATOMIC CHARGES
----------------------
   0 Sc:   -0.063335
   1 F :    0.063335

-------------------------------
LOEWDIN REDUCED ORBITAL CHARGES
-------------------------------
  0 Scs       :     7.618967  s :     7.618967
      pz      :     4.243222  p :    12.308622
      px      :     4.032700
      py      :     4.032700
      dz2     :     0.508022  d :     0.749605
      dxz     :     0.120792
      dyz     :     0.120792
      dx2y2   :     0.000000
      dxy     :     0.000000
      f0      :     0.102516  f :     0.228934
      f+1     :     0.063209
      f-1     :     0.063209
      f+2     :     0.000000
      f-2     :     0.000000
      f+3     :     0.000000
      f-3     :     0.000000
      g0      :     0.052136  g :     0.157207
      g+1     :     0.052536
      g-1     :     0.052536
      g+2     :     0.000000
      g-2     :     0.000000
      g+3     :     0.000000
      g-3     :     0.000000
      g+4     :     0.000000
      g-4     :     0.000000
  1 F s       :     3.644655  s :     3.644655
      pz      :     1.821633  p :     5.281614
      px      :     1.729990
      py      :     1.729990
      dz2     :     0.008530  d :     0.010030
      dxz     :     0.000750
      dyz     :     0.000750
      dx2y2   :     0.000000
      dxy     :     0.000000
      f0      :     0.000319  f :     0.000367
      f+1     :     0.000024
      f-1     :     0.000024
      f+2     :     0.000000
      f-2     :     0.000000
      f+3     :     0.000000
      f-3     :     0.000000


                      *****************************
                      * MAYER POPULATION ANALYSIS *
                      *****************************

  NA   - Mulliken gross atomic population
  ZA   - Total nuclear charge
  QA   - Mulliken gross atomic charge
  VA   - Mayer's total valence
  BVA  - Mayer's bonded valence
  FA   - Mayer's free valence

  ATOM       NA         ZA         QA         VA         BVA        FA
  0 Sc    20.5056    21.0000     0.4944     0.9238     0.9238    -0.0000
  1 F      9.4944     9.0000    -0.4944     0.9238     0.9238     0.0000

  Mayer bond orders larger than 0.100000
B(  0-Sc,  1-F ) :   0.9238 

-------
TIMINGS
-------

Total SCF time: 0 days 0 hours 0 min 3 sec 

Total time                  ....       3.720 sec
Sum of individual times     ....       3.503 sec  ( 94.2%)

Fock matrix formation       ....       3.315 sec  ( 89.1%)
Diagonalization             ....       0.027 sec  (  0.7%)
Density matrix formation    ....       0.005 sec  (  0.1%)
Population analysis         ....       0.003 sec  (  0.1%)
Initial guess               ....       0.107 sec  (  2.9%)
Orbital Transformation      ....       0.000 sec  (  0.0%)
Orbital Orthonormalization  ....       0.000 sec  (  0.0%)
DIIS solution               ....       0.023 sec  (  0.6%)


           ************************************************************
           *        Program running with 24 parallel MPI-processes    *
           *              working on a common directory               *
           ************************************************************


------------------------------------------------------------------------------- 
                              ORCA-MATRIX DRIVEN CI                            
------------------------------------------------------------------------------- 

--------------------------------
AUTOMATIC CHOICE OF INCORE LEVEL
--------------------------------

Memory available                           ...   2500.00 MB
Memory needed for S+T                      ...      6.59 MB
Memory needed for J+K                      ...     13.24 MB
Memory needed for DIIS                     ...     92.29 MB
Memory needed for 3-ext                    ...     35.16 MB
Memory needed for 4-ext                    ...    158.20 MB
Memory needed for triples                  ...     19.53 MB
 -> Final InCoreLevel    ... 5
 -> check shows that triples correction can be computed


Wavefunction type
-----------------
Correlation treatment                      ...      CCSD     
Single excitations                         ... ON
Orbital optimization                       ... OFF
Calculation of Z vector                    ... OFF
Calculation of Brueckner orbitals          ... OFF
Perturbative triple excitations            ... ON
Calculation of F12 correction              ... OFF
Frozen core treatment                      ... chemical core (12 el)
Reference Wavefunction                     ... RHF
  Internal Orbitals:     6 ...   14 (  9 MO's/ 18 electrons)
  Virtual  Orbitals:    15 ...   94 ( 80 MO's              )
Number of AO's                             ...     95
Number of electrons                        ...     30
Number of correlated electrons             ...     18

Algorithmic settings
--------------------
Integral transformation                    ... AO direct full transformation
K(C) Formation                             ... FULL-MO TRAFO
Maximum number of iterations               ...        50
Convergence tolerance (max. residuum)      ... 1.000e-06
Level shift for amplitude update           ... 2.000e-01
Maximum number of DIIS vectors             ...         7
DIIS turned on at iteration                ...         0
Damping before turning on DIIS             ...     0.500
Damping after turning on DIIS              ...     0.000
Pair specific amplitude update             ... OFF
Natural orbital iterations                 ... OFF
Perturbative natural orbital generation    ... OFF
Printlevel                                 ... 2

Memory handling:
----------------
Maximum memory for working arrays          ...   2500 MB
Data storage in matrix containers          ... UNCOMPRESSED
Data type for integral storage             ... DOUBLE
In-Core Storage of quantities:
   Amplitudes+Sigma Vector      ... YES
   J+K operators                ... YES
   DIIS vectors                 ... YES
   3-external integrals         ... YES
   4-external integrals         ... YES


Initializing the integral package          ... done
Warning: reference  - re-canonicalizations have been set to INT 1 VIRT 1

--------------------------
CLOSED-SHELL FOCK OPERATOR
--------------------------

<ss|ss>:         1953 b            4 skpd (  0.2%)    0.001 s ( 0.000 ms/b)
<ss|sp>:         5332 b           14 skpd (  0.3%)    0.001 s ( 0.000 ms/b)
<ss|sd>:         4030 b            7 skpd (  0.2%)    0.001 s ( 0.000 ms/b)
<ss|sf>:         2046 b            7 skpd (  0.3%)    0.000 s ( 0.000 ms/b)
<ss|sg>:          682 b            3 skpd (  0.4%)    0.000 s ( 0.001 ms/b)
<ss|pp>:         2232 b            3 skpd (  0.1%)    0.001 s ( 0.001 ms/b)
<ss|pd>:         2976 b            8 skpd (  0.3%)    0.002 s ( 0.001 ms/b)
<ss|pf>:         1488 b            3 skpd (  0.2%)    0.001 s ( 0.000 ms/b)
<ss|pg>:          496 b            1 skpd (  0.2%)    0.001 s ( 0.001 ms/b)
<ss|dd>:         1302 b            1 skpd (  0.1%)    0.001 s ( 0.001 ms/b)
<ss|df>:         1116 b            0 skpd (  0.0%)    0.001 s ( 0.001 ms/b)
<ss|dg>:          372 b            0 skpd (  0.0%)    0.001 s ( 0.002 ms/b)
<ss|ff>:          372 b            0 skpd (  0.0%)    0.000 s ( 0.001 ms/b)
<ss|fg>:          186 b            0 skpd (  0.0%)    0.000 s ( 0.002 ms/b)
<ss|gg>:           62 b            0 skpd (  0.0%)    0.000 s ( 0.008 ms/b)
<sp|sp>:         3741 b           14 skpd (  0.4%)    0.001 s ( 0.000 ms/b)
<sp|sd>:         5590 b           22 skpd (  0.4%)    0.002 s ( 0.000 ms/b)
<sp|sf>:         2838 b           17 skpd (  0.6%)    0.001 s ( 0.000 ms/b)
<sp|sg>:          946 b            5 skpd (  0.5%)    0.001 s ( 0.001 ms/b)
<sp|pp>:         3096 b            3 skpd (  0.1%)    0.002 s ( 0.001 ms/b)
<sp|pd>:         4128 b           11 skpd (  0.3%)    0.002 s ( 0.001 ms/b)
<sp|pf>:         2064 b            6 skpd (  0.3%)    0.001 s ( 0.000 ms/b)
<sp|pg>:          688 b            1 skpd (  0.1%)    0.001 s ( 0.002 ms/b)
<sp|dd>:         1806 b            2 skpd (  0.1%)    0.002 s ( 0.001 ms/b)
<sp|df>:         1548 b            1 skpd (  0.1%)    0.001 s ( 0.001 ms/b)
<sp|dg>:          516 b            0 skpd (  0.0%)    0.002 s ( 0.003 ms/b)
<sp|ff>:          516 b            0 skpd (  0.0%)    0.001 s ( 0.001 ms/b)
<sp|fg>:          258 b            0 skpd (  0.0%)    0.001 s ( 0.004 ms/b)
<sp|gg>:           86 b            0 skpd (  0.0%)    0.001 s ( 0.015 ms/b)
<sd|sd>:         2145 b            5 skpd (  0.2%)    0.001 s ( 0.000 ms/b)
<sd|sf>:         2145 b           10 skpd (  0.5%)    0.001 s ( 0.000 ms/b)
<sd|sg>:          715 b            2 skpd (  0.3%)    0.002 s ( 0.002 ms/b)
<sd|pp>:         2340 b            2 skpd (  0.1%)    0.002 s ( 0.001 ms/b)
<sd|pd>:         3120 b           14 skpd (  0.4%)    0.003 s ( 0.001 ms/b)
<sd|pf>:         1560 b            4 skpd (  0.3%)    0.001 s ( 0.001 ms/b)
<sd|pg>:          520 b            1 skpd (  0.2%)    0.002 s ( 0.004 ms/b)
<sd|dd>:         1365 b            0 skpd (  0.0%)    0.003 s ( 0.002 ms/b)
<sd|df>:         1170 b            0 skpd (  0.0%)    0.002 s ( 0.001 ms/b)
<sd|dg>:          390 b            0 skpd (  0.0%)    0.003 s ( 0.007 ms/b)
<sd|ff>:          390 b            0 skpd (  0.0%)    0.001 s ( 0.003 ms/b)
<sd|fg>:          195 b            0 skpd (  0.0%)    0.001 s ( 0.008 ms/b)
<sd|gg>:           65 b            0 skpd (  0.0%)    0.002 s ( 0.033 ms/b)
<sf|sf>:          561 b            4 skpd (  0.7%)    0.000 s ( 0.001 ms/b)
<sf|sg>:          363 b            2 skpd (  0.6%)    0.001 s ( 0.002 ms/b)
<sf|pp>:         1188 b            3 skpd (  0.3%)    0.002 s ( 0.002 ms/b)
<sf|pd>:         1584 b           10 skpd (  0.6%)    0.003 s ( 0.002 ms/b)
<sf|pf>:          792 b            6 skpd (  0.8%)    0.001 s ( 0.001 ms/b)
<sf|pg>:          264 b            1 skpd (  0.4%)    0.002 s ( 0.006 ms/b)
<sf|dd>:          693 b            0 skpd (  0.0%)    0.003 s ( 0.004 ms/b)
<sf|df>:          594 b            0 skpd (  0.0%)    0.001 s ( 0.002 ms/b)
<sf|dg>:          198 b            0 skpd (  0.0%)    0.002 s ( 0.012 ms/b)
<sf|ff>:          198 b            0 skpd (  0.0%)    0.001 s ( 0.005 ms/b)
<sf|fg>:           99 b            0 skpd (  0.0%)    0.001 s ( 0.013 ms/b)
<sf|gg>:           33 b            0 skpd (  0.0%)    0.002 s ( 0.057 ms/b)
<sg|sg>:           66 b            0 skpd (  0.0%)    0.000 s ( 0.006 ms/b)
<sg|pp>:          396 b            1 skpd (  0.3%)    0.001 s ( 0.004 ms/b)
<sg|pd>:          528 b            3 skpd (  0.6%)    0.002 s ( 0.003 ms/b)
<sg|pf>:          264 b            2 skpd (  0.8%)    0.001 s ( 0.002 ms/b)
<sg|pg>:           88 b            1 skpd (  1.1%)    0.001 s ( 0.010 ms/b)
<sg|dd>:          231 b            0 skpd (  0.0%)    0.002 s ( 0.008 ms/b)
<sg|df>:          198 b            0 skpd (  0.0%)    0.001 s ( 0.005 ms/b)
<sg|dg>:           66 b            0 skpd (  0.0%)    0.002 s ( 0.025 ms/b)
<sg|ff>:           66 b            0 skpd (  0.0%)    0.001 s ( 0.008 ms/b)
<sg|fg>:           33 b            0 skpd (  0.0%)    0.001 s ( 0.027 ms/b)
<sg|gg>:           11 b            0 skpd (  0.0%)    0.001 s ( 0.114 ms/b)
<pp|pp>:          666 b            0 skpd (  0.0%)    0.002 s ( 0.003 ms/b)
<pp|pd>:         1728 b            1 skpd (  0.1%)    0.003 s ( 0.001 ms/b)
<pp|pf>:          864 b            0 skpd (  0.0%)    0.001 s ( 0.001 ms/b)
<pp|pg>:          288 b            0 skpd (  0.0%)    0.002 s ( 0.006 ms/b)
<pp|dd>:          756 b            0 skpd (  0.0%)    0.003 s ( 0.004 ms/b)
<pp|df>:          648 b            0 skpd (  0.0%)    0.001 s ( 0.002 ms/b)
<pp|dg>:          216 b            0 skpd (  0.0%)    0.002 s ( 0.010 ms/b)
<pp|ff>:          216 b            0 skpd (  0.0%)    0.001 s ( 0.004 ms/b)
<pp|fg>:          108 b            0 skpd (  0.0%)    0.001 s ( 0.012 ms/b)
<pp|gg>:           36 b            0 skpd (  0.0%)    0.002 s ( 0.051 ms/b)
<pd|pd>:         1176 b            1 skpd (  0.1%)    0.004 s ( 0.003 ms/b)
<pd|pf>:         1152 b            0 skpd (  0.0%)    0.002 s ( 0.002 ms/b)
<pd|pg>:          384 b            0 skpd (  0.0%)    0.004 s ( 0.009 ms/b)
<pd|dd>:         1008 b            0 skpd (  0.0%)    0.006 s ( 0.006 ms/b)
<pd|df>:          864 b            0 skpd (  0.0%)    0.003 s ( 0.004 ms/b)
<pd|dg>:          288 b            0 skpd (  0.0%)    0.005 s ( 0.017 ms/b)
<pd|ff>:          288 b            0 skpd (  0.0%)    0.002 s ( 0.007 ms/b)
<pd|fg>:          144 b            0 skpd (  0.0%)    0.003 s ( 0.021 ms/b)
<pd|gg>:           48 b            0 skpd (  0.0%)    0.004 s ( 0.089 ms/b)
<pf|pf>:          300 b            0 skpd (  0.0%)    0.001 s ( 0.003 ms/b)
<pf|pg>:          192 b            0 skpd (  0.0%)    0.003 s ( 0.014 ms/b)
<pf|dd>:          504 b            0 skpd (  0.0%)    0.004 s ( 0.008 ms/b)
<pf|df>:          432 b            0 skpd (  0.0%)    0.002 s ( 0.005 ms/b)
<pf|dg>:          144 b            0 skpd (  0.0%)    0.004 s ( 0.025 ms/b)
<pf|ff>:          144 b            0 skpd (  0.0%)    0.002 s ( 0.012 ms/b)
<pf|fg>:           72 b            0 skpd (  0.0%)    0.002 s ( 0.032 ms/b)
<pf|gg>:           24 b            0 skpd (  0.0%)    0.003 s ( 0.134 ms/b)
<pg|pg>:           36 b            0 skpd (  0.0%)    0.001 s ( 0.030 ms/b)
<pg|dd>:          168 b            0 skpd (  0.0%)    0.003 s ( 0.015 ms/b)
<pg|df>:          144 b            0 skpd (  0.0%)    0.001 s ( 0.010 ms/b)
<pg|dg>:           48 b            0 skpd (  0.0%)    0.002 s ( 0.047 ms/b)
<pg|ff>:           48 b            0 skpd (  0.0%)    0.001 s ( 0.017 ms/b)
<pg|fg>:           24 b            0 skpd (  0.0%)    0.001 s ( 0.058 ms/b)
<pg|gg>:            8 b            0 skpd (  0.0%)    0.002 s ( 0.237 ms/b)
<dd|dd>:          231 b            0 skpd (  0.0%)    0.004 s ( 0.016 ms/b)
<dd|df>:          378 b            0 skpd (  0.0%)    0.002 s ( 0.006 ms/b)
<dd|dg>:          126 b            0 skpd (  0.0%)    0.003 s ( 0.028 ms/b)
<dd|ff>:          126 b            0 skpd (  0.0%)    0.002 s ( 0.013 ms/b)
<dd|fg>:           63 b            0 skpd (  0.0%)    0.002 s ( 0.038 ms/b)
<dd|gg>:           21 b            0 skpd (  0.0%)    0.003 s ( 0.161 ms/b)
<df|df>:          171 b            0 skpd (  0.0%)    0.002 s ( 0.010 ms/b)
<df|dg>:          108 b            0 skpd (  0.0%)    0.004 s ( 0.035 ms/b)
<df|ff>:          108 b            0 skpd (  0.0%)    0.002 s ( 0.020 ms/b)
<df|fg>:           54 b            0 skpd (  0.0%)    0.003 s ( 0.054 ms/b)
<df|gg>:           18 b            0 skpd (  0.0%)    0.004 s ( 0.229 ms/b)
<dg|dg>:           21 b            0 skpd (  0.0%)    0.001 s ( 0.046 ms/b)
<dg|ff>:           36 b            0 skpd (  0.0%)    0.001 s ( 0.028 ms/b)
<dg|fg>:           18 b            0 skpd (  0.0%)    0.002 s ( 0.089 ms/b)
<dg|gg>:            6 b            0 skpd (  0.0%)    0.002 s ( 0.365 ms/b)
<ff|ff>:           21 b            0 skpd (  0.0%)    0.001 s ( 0.045 ms/b)
<ff|fg>:           18 b            0 skpd (  0.0%)    0.002 s ( 0.088 ms/b)
<ff|gg>:            6 b            0 skpd (  0.0%)    0.002 s ( 0.394 ms/b)
<fg|fg>:            6 b            0 skpd (  0.0%)    0.001 s ( 0.199 ms/b)
<fg|gg>:            3 b            0 skpd (  0.0%)    0.002 s ( 0.765 ms/b)
<gg|gg>:            1 b            0 skpd (  0.0%)    0.001 s ( 1.111 ms/b)
Recanonicalizing the internal orbitals
Recanonicalizing the virtual orbitals
Time needed for Fock operator              ...            0.224 sec
Reference energy                           ...   -859.281498241

------------------------------
PARTIAL COULOMB TRANSFORMATION
------------------------------

Transformation type                        ... one-operator
Dimension of the basis                     ...   95
Number of internal MOs                     ...   89 (6-94)
Pair cutoff                                ... 0.000e+00 Eh
Number of AO pairs included in the trafo   ... 4560
Total Number of distinct AO pairs          ... 4560
Memory devoted for trafo                   ... 2500.0 MB 
Max. Number of MO pairs treated together   ... 71859      
Max. Number of MOs treated per batch       ...  756      
Number Format for Storage                  ... Double (8 Byte)
AO-integral source                         ... DIRECT
Integral package used                      ... LIBINT

Starting integral evaluation:
<ss|**>: <sp|**>:        26536 b        0 skpd     0.011 s (  0.000 ms/b)
       36808 b        0 skpd     0.015 s (  0.000 ms/b)
<sd|**>:        27820 b        0 skpd     0.019 s (  0.001 ms/b)
<sf|**>:        14124 b        0 skpd     0.012 s (  0.001 ms/b)
<sg|**>:         4708 b        0 skpd     0.017 s (  0.004 ms/b)
<pp|**>:        15408 b        0 skpd     0.026 s (  0.002 ms/b)
<pd|**>:        20544 b        0 skpd     0.037 s (  0.002 ms/b)
<pf|**>:        10272 b        0 skpd     0.016 s (  0.002 ms/b)
<pg|**>:         3424 b        0 skpd     0.028 s (  0.008 ms/b)
<dd|**>:         8988 b        0 skpd     0.040 s (  0.004 ms/b)
<df|**>:         7704 b        0 skpd     0.024 s (  0.003 ms/b)
<dg|**>:         2568 b        0 skpd     0.036 s (  0.014 ms/b)
<ff|**>:         2568 b        0 skpd     0.018 s (  0.007 ms/b)
<fg|**>:         1284 b        0 skpd     0.026 s (  0.020 ms/b)
<gg|**>:          428 b        0 skpd     0.035 s (  0.082 ms/b)
Closing buffer AOJ ( 0.01 GB; CompressionRatio= 1.00)
Collecting buffer AOJ 
    ... done with AO integral generation
Number of MO pairs included in the trafo   ... 4005
    ... Now sorting integrals
IBATCH = 1 of  1
Closing buffer JAO ( 0.01 GB; CompressionRatio= 1.00)
Collecting buffer JAO 
TOTAL TIME for half transformation         ...     0.463 sec
AO-integral generation                     ...     0.347 sec
Half transformation                        ...     0.022 sec
J-integral sorting                         ...     0.063 sec

-------------------------- SECOND HALF TRANSFORMATION -------------------------
Formation of (pq|rs)                       ... ok (     0.049 sec)
Integral sorting                           ... ok (     0.473 sec)

------------------
CLOSED SHELL GUESS
------------------

Initial guess performed in     0.006 sec
E(0)                                       ...   -859.281498241
E(MP2)                                     ...     -0.528223443
Initial E(tot)                             ...   -859.809721684
<T|T>                                      ...      0.148077943
Number of pairs included                   ... 45
Total number of pairs                      ... 45

------------------------------------------------
                  RHF COUPLED CLUSTER ITERATIONS
------------------------------------------------

Number of amplitudes to be optimized       ... 288720

Iter       E(tot)           E(Corr)          Delta-E          Residual     Time
  0   -859.809721684     -0.528223443      0.000000000      0.025362593    0.10
                           *** Turning on DIIS ***
  1   -859.808249654     -0.526751413      0.001472030      0.008064182    0.21
  2   -859.820340507     -0.538842266     -0.012090854      0.005349395    0.22
  3   -859.822809691     -0.541311450     -0.002469184      0.003150759    0.23
  4   -859.824506654     -0.543008413     -0.001696963      0.001540814    0.23
  5   -859.825205446     -0.543707205     -0.000698793      0.000645725    0.23
  6   -859.825376244     -0.543878003     -0.000170797      0.000399180    0.23
  7   -859.825445819     -0.543947578     -0.000069576      0.000264904    0.26
  8   -859.825453890     -0.543955649     -0.000008070      0.000169067    0.24
  9   -859.825454064     -0.543955823     -0.000000175      0.000097113    0.23
 10   -859.825453168     -0.543954927      0.000000896      0.000055735    0.23
 11   -859.825451013     -0.543952772      0.000002155      0.000029077    0.23
 12   -859.825450237     -0.543951996      0.000000776      0.000012542    0.23
 13   -859.825449177     -0.543950936      0.000001060      0.000007253    0.23
 14   -859.825448519     -0.543950278      0.000000657      0.000003573    0.24
 15   -859.825448154     -0.543949913      0.000000366      0.000001546    0.24
 16   -859.825448034     -0.543949793      0.000000120      0.000000662    0.23
               --- The Coupled-Cluster iterations have converged ---

----------------------
COUPLED CLUSTER ENERGY
----------------------

E(0)                                       ...   -859.281498241
E(CORR)                                    ...     -0.543949793
E(TOT)                                     ...   -859.825448034
Singles Norm <S|S>**1/2                    ...      0.089404970  
T1 diagnostic                              ...      0.021072954  

------------------
LARGEST AMPLITUDES
------------------
  14-> 15  14-> 15       0.128164
  14-> 16  14-> 16       0.128164
  14-> 17  14-> 17       0.092257
  14-> 18  14-> 18       0.052887
  14-> 19  14-> 19       0.052887
  14-> 15  14-> 29       0.046703
  14-> 29  14-> 15       0.046703
  14-> 30  14-> 16       0.046703
  14-> 16  14-> 30       0.046703
  14-> 17  -1-> -1       0.042481
  14-> 20  -1-> -1       0.033222
  13-> 21  -1-> -1       0.032287
  12-> 22  -1-> -1       0.032287
  14-> 20  14-> 20       0.029001
  14-> 30  14-> 30       0.026163
  14-> 29  14-> 29       0.026163


        !!!!!!!!!!!!!!!!!!!!!!!!!!!!!!!!!!!!!!!!!!!!!!!!!!!!!!!!!!!!!!!!!!!!!!!!!! 
        !  Warning: Densities are linearized densities !                         !
        !!!!!!!!!!!!!!!!!!!!!!!!!!!!!!!!!!!!!!!!!!!!!!!!!!!!!!!!!!!!!!!!!!!!!!!!!! 

Trace of internal density part =     -0.389083979
Trace of external density part =      0.389083979
----------------------
RHF TRIPLES CORRECTION (Algorithm 1)
----------------------

Multiplier for the singles contribution    ...      1.000000000

10% done
20% done
30% done
40% done
50% done
60% done
70% done
80% done

Triples Correction (T)                     ...     -0.019698377
Scaling of triples based on CCSD energies (Peterson et al. Molecular Physics 113, 1551 (2015))
E(T*) = f*E(T) where f = E(F12-CCSD)/E(CCSD) 
f = CCSD (with F12)/ CCSD (without F12)    ...      1.000000000
Scaled triples correction (T)              ...     -0.019698377

Final correlation energy                   ...     -0.563648170
E(CCSD)                                    ...   -859.825448034
E(CCSD(T))                                 ...   -859.845146411

NORM  =      1.202535238 sqrt=     1.096601677
W(HF) =      0.831576463
------------------------------------------------------------------------------
                           ORCA POPULATION ANALYSIS
------------------------------------------------------------------------------
Input electron density              ... 02_ScF.mdcip
BaseName (.gbw .S,...)              ... 02_ScF

                    ********************************
                    * MULLIKEN POPULATION ANALYSIS *
                    ********************************

-----------------------
MULLIKEN ATOMIC CHARGES
-----------------------
   0 Sc:    0.356042
   1 F :   -0.356042
Sum of atomic charges:   -0.0000000

--------------------------------
MULLIKEN REDUCED ORBITAL CHARGES
--------------------------------
  0 Scs       :     7.568797  s :     7.568797
      pz      :     4.101471  p :    12.187540
      px      :     4.043035
      py      :     4.043035
      dz2     :     0.448710  d :     0.794559
      dxz     :     0.146870
      dyz     :     0.146870
      dx2y2   :     0.026055
      dxy     :     0.026055
      f0      :     0.017082  f :     0.071848
      f+1     :     0.025859
      f-1     :     0.025859
      f+2     :     0.000970
      f-2     :     0.000970
      f+3     :     0.000554
      f-3     :     0.000554
      g0      :     0.001991  g :     0.021214
      g+1     :     0.009240
      g-1     :     0.009240
      g+2     :     0.000298
      g-2     :     0.000298
      g+3     :     0.000050
      g-3     :     0.000050
      g+4     :     0.000024
      g-4     :     0.000024
  1 F s       :     3.948938  s :     3.948938
      pz      :     1.766662  p :     5.371575
      px      :     1.802456
      py      :     1.802456
      dz2     :     0.008473  d :     0.032920
      dxz     :     0.007110
      dyz     :     0.007110
      dx2y2   :     0.005113
      dxy     :     0.005113
      f0      :     0.000474  f :     0.002609
      f+1     :     0.000394
      f-1     :     0.000394
      f+2     :     0.000344
      f-2     :     0.000344
      f+3     :     0.000330
      f-3     :     0.000330


                     *******************************
                     * LOEWDIN POPULATION ANALYSIS *
                     *******************************

----------------------
LOEWDIN ATOMIC CHARGES
----------------------
   0 Sc:   -0.164608
   1 F :    0.164608

-------------------------------
LOEWDIN REDUCED ORBITAL CHARGES
-------------------------------
  0 Scs       :     7.488452  s :     7.488452
      pz      :     4.192419  p :    12.294736
      px      :     4.051158
      py      :     4.051158
      dz2     :     0.585776  d :     1.003328
      dxz     :     0.182719
      dyz     :     0.182719
      dx2y2   :     0.026057
      dxy     :     0.026057
      f0      :     0.101348  f :     0.229455
      f+1     :     0.062512
      f-1     :     0.062512
      f+2     :     0.000988
      f-2     :     0.000988
      f+3     :     0.000554
      f-3     :     0.000554
      g0      :     0.051624  g :     0.148637
      g+1     :     0.048085
      g-1     :     0.048085
      g+2     :     0.000347
      g-2     :     0.000347
      g+3     :     0.000050
      g-3     :     0.000050
      g+4     :     0.000024
      g-4     :     0.000024
  1 F s       :     3.641904  s :     3.641904
      pz      :     1.785817  p :     5.153629
      px      :     1.683906
      py      :     1.683906
      dz2     :     0.014545  d :     0.037019
      dxz     :     0.006193
      dyz     :     0.006193
      dx2y2   :     0.005044
      dxy     :     0.005044
      f0      :     0.000713  f :     0.002841
      f+1     :     0.000390
      f-1     :     0.000390
      f+2     :     0.000344
      f-2     :     0.000344
      f+3     :     0.000330
      f-3     :     0.000330


                      *****************************
                      * MAYER POPULATION ANALYSIS *
                      *****************************

  NA   - Mulliken gross atomic population
  ZA   - Total nuclear charge
  QA   - Mulliken gross atomic charge
  VA   - Mayer's total valence
  BVA  - Mayer's bonded valence
  FA   - Mayer's free valence

  ATOM       NA         ZA         QA         VA         BVA        FA
  0 Sc    20.6440    21.0000     0.3560     2.1247     1.0682     1.0565
  1 F      9.3560     9.0000    -0.3560     1.4727     1.0682     0.4045

  Mayer bond orders larger than 0.100000
B(  0-Sc,  1-F ) :   1.0682 



------------------------------------------------------------------------------- 
                                     TIMINGS                                   
------------------------------------------------------------------------------- 


Total execution time                   ...        5.603 sec

Fock Matrix Formation                  ...        0.224 sec (  4.0%)
Initial Guess                          ...        0.006 sec (  0.1%)
DIIS Solver                            ...        0.334 sec (  6.0%)
State Vector Update                    ...        0.013 sec (  0.2%)
Sigma-vector construction              ...        3.480 sec ( 62.1%)
  <0|H|D>                              ...        0.001 sec (  0.0% of sigma)
  <D|H|D>(0-ext)                       ...        0.024 sec (  0.7% of sigma)
  <D|H|D>(2-ext Fock)                  ...        0.002 sec (  0.1% of sigma)
  <D|H|D>(2-ext)                       ...        0.053 sec (  1.5% of sigma)
  <D|H|D>(4-ext)                       ...        0.303 sec (  8.7% of sigma)
  <D|H|D>(4-ext-corr)                  ...        0.272 sec (  7.8% of sigma)
  <S|H|0>                              ...        0.005 sec (  0.1% of sigma)
  <S|H|S>                              ...        0.005 sec (  0.2% of sigma)
  <S|H|D>(1-ext)                       ...        0.017 sec (  0.5% of sigma)
  <D|H|S>(1-ext)                       ...        0.013 sec (  0.4% of sigma)
  <S|H|D>(3-ext)                       ...        0.227 sec (  6.5% of sigma)
  Fock-dressing                        ...        1.774 sec ( 51.0% of sigma)
  (ik|jl)-dressing                     ...        0.027 sec (  0.8% of sigma)
  (ij|ab),(ia|jb)-dressing             ...        0.604 sec ( 17.4% of sigma)
  Pair energies                        ...        0.002 sec (  0.1% of sigma)
Total Time for computing (T)           ...        0.236 sec (  4.2% of ALL)
  I/O of integral and amplitudes       ...        0.090 sec ( 38.3% of (T))
  N**6 sorting step                    ...        0.047 sec ( 19.7% of (T))
  External N**7 contributions          ...        0.053 sec ( 22.6% of (T))
  Internal N**7 contributions          ...        0.023 sec (  9.6% of (T))
  N**6 triples energy contributions    ...        0.023 sec (  9.7% of (T))
One-particle density matrix            ...        0.001 sec (  0.0%)

----- Orbital basis set information -----
Your calculation utilizes the basis: def2-QZVPP
   F. Weigend and R. Ahlrichs, Phys. Chem. Chem. Phys. 7, 3297 (2005).

----- AuxJ basis set information -----
Your calculation utilizes the auxiliary basis: def2/J
   F. Weigend, Phys. Chem. Chem. Phys. 8, 1057 (2006).

----- AuxC basis set information -----
Your calculation utilizes the auxiliary basis: def2-QZVPP/C
  H-La, Hf-Rn : A. Hellweg, C. Hattig, S. Hofener and W. Klopper, Theor. Chem. Acc. 117, 587 (2007).
        Ce-Lu : J. Chmela and M. E. Harding, Mol. Phys. (2018).

----- AuxJK basis set information -----
Your calculation utilizes the auxiliary basis: def2/JK
   H-Ba, Hf-Rn: F. Weigend, J. Comput. Chem. 29, 167 (2008).

All done

                     -----------------------------------------
                     Extrapolated Energy 2 Basis=  def2-QZVPP
                     -----------------------------------------

---------------------------------
CARTESIAN COORDINATES (ANGSTROEM)
---------------------------------
  Sc     0.000000    0.000000    0.103571
  F      0.000000    0.000000    1.896429

----------------------------
CARTESIAN COORDINATES (A.U.)
----------------------------
  NO LB      ZA    FRAG     MASS         X           Y           Z
   0 Sc   21.0000    0    44.960    0.000000    0.000000    0.195721
   1 F     9.0000    0    18.998    0.000000    0.000000    3.583731

--------------------------------
INTERNAL COORDINATES (ANGSTROEM)
--------------------------------
 Sc     0   0   0     0.000000000000     0.00000000     0.00000000
 F      1   0   0     1.792857474207     0.00000000     0.00000000

---------------------------
INTERNAL COORDINATES (A.U.)
---------------------------
 Sc     0   0   0     0.000000000000     0.00000000     0.00000000
 F      1   0   0     3.388009623406     0.00000000     0.00000000

---------------------
BASIS SET INFORMATION
---------------------
There are 2 groups of distinct atoms

 Group   1 Type Sc  : 24s18p9d3f2g contracted to 11s6p5d3f2g pattern {114111111111/951111/51111/111/11}
 Group   2 Type F   : 15s8p3d2f1g contracted to 7s4p3d2f1g pattern {8211111/5111/111/11/1}

Atom   0Sc   basis set group =>   1
Atom   1F    basis set group =>   2
---------------------------------
AUXILIARY/J BASIS SET INFORMATION
---------------------------------
There are 2 groups of distinct atoms

 Group   1 Type Sc  : 19s5p5d3f3g contracted to 8s5p5d2f3g pattern {121111111/11111/11111/21/111}
 Group   2 Type F   : 12s5p4d2f1g contracted to 6s4p3d1f1g pattern {711111/2111/211/2/1}

Atom   0Sc   basis set group =>   1
Atom   1F    basis set group =>   2
---------------------------------
AUXILIARY/C BASIS SET INFORMATION
---------------------------------
There are 2 groups of distinct atoms

 Group   1 Type Sc  : 15s13p11d8f7g5h2i contracted to 15s13p11d8f7g5h2i pattern {111111111111111/1111111111111/11111111111/11111111/1111111/11111/11}
 Group   2 Type F   : 9s8p7d5f3g1h contracted to 9s8p7d5f3g1h pattern {111111111/11111111/1111111/11111/111/1}

Atom   0Sc   basis set group =>   1
Atom   1F    basis set group =>   2
----------------------------------
AUXILIARY/JK BASIS SET INFORMATION
----------------------------------
There are 2 groups of distinct atoms

 Group   1 Type Sc  : 19s14p12d10f7g3h1i contracted to 16s13p11d9f5g3h1i pattern {4111111111111111/2111111111111/21111111111/211111111/31111/111/1}
 Group   2 Type F   : 14s10p6d2f1g contracted to 10s8p4d2f1g pattern {5111111111/31111111/3111/11/1}

Atom   0Sc   basis set group =>   1
Atom   1F    basis set group =>   2

Checking for AutoStart:
The File: 02_ScF.gbw exists
Trying to determine its content:
     ... Fine, the file contains calculation information
     ... Fine, the calculation information was read
     ... Fine, the file contains a basis set
     ... Fine, the basis set was read
     ... Fine, the file contains a geometry
     ... Fine, the geometry was read
     ... Fine, the file contains a set of orbitals
     ... Fine, the orbitals can be read
     => possible old guess file was deleted
     => GBW file was renamed to GES file
     => GES file is set as startup file
     => Guess is set to MORead
     ... now leaving AutoStart



           ************************************************************
           *        Program running with 24 parallel MPI-processes    *
           *              working on a common directory               *
           ************************************************************
------------------------------------------------------------------------------
                           ORCA GTO INTEGRAL CALCULATION
------------------------------------------------------------------------------

                         BASIS SET STATISTICS AND STARTUP INFO

 # of primitive gaussian shells          ...   85
 # of primitive gaussian functions       ...  239
 # of contracted shells                  ...   44
 # of contracted basis functions         ...  150
 Highest angular momentum                ...    4
 Maximum contraction depth               ...   11
 Integral package used                   ... LIBINT
 Integral threshhold            Thresh   ...  1.000e-12
 Primitive cut-off              TCut     ...  1.000e-14


------------------------------ INTEGRAL EVALUATION ----------------------------


 * One electron integrals 
 Pre-screening matrix                    ... done
 Shell pair data                         ... done (   0.000 sec)



           ************************************************************
           *        Program running with 24 parallel MPI-processes    *
           *              working on a common directory               *
           ************************************************************
-------------------------------------------------------------------------------
                                 ORCA SCF
-------------------------------------------------------------------------------

------------
SCF SETTINGS
------------
Hamiltonian:
 Ab initio Hamiltonian  Method          .... Hartree-Fock(GTOs)


General Settings:
 Integral files         IntName         .... 02_ScF
 Hartree-Fock type      HFTyp           .... RHF
 Total Charge           Charge          ....    0
 Multiplicity           Mult            ....    1
 Number of Electrons    NEL             ....   30
 Basis Dimension        Dim             ....  150
 Nuclear Repulsion      ENuc            ....     55.7849655132 Eh

Convergence Acceleration:
 DIIS                   CNVDIIS         .... on
   Start iteration      DIISMaxIt       ....    12
   Startup error        DIISStart       ....  0.200000
   # of expansion vecs  DIISMaxEq       ....     5
   Bias factor          DIISBfac        ....   1.050
   Max. coefficient     DIISMaxC        ....  10.000
 Newton-Raphson         CNVNR           .... off
 SOSCF                  CNVSOSCF        .... off
 Level Shifting         CNVShift        .... on
   Level shift para.    LevelShift      ....    0.2500
   Turn off err/grad.   ShiftErr        ....    0.0010
 Zerner damping         CNVZerner       .... off
 Static damping         CNVDamp         .... on
   Fraction old density DampFac         ....    0.7000
   Max. Damping (<1)    DampMax         ....    0.9800
   Min. Damping (>=0)   DampMin         ....    0.0000
   Turn off err/grad.   DampErr         ....    0.1000
 Fernandez-Rico         CNVRico         .... off

SCF Procedure:
 Maximum # iterations   MaxIter         ....   125
 SCF integral mode      SCFMode         .... Direct
   Integral package                     .... LIBINT
 Reset frequency        DirectResetFreq ....    20
 Integral Threshold     Thresh          ....  1.000e-12 Eh
 Primitive CutOff       TCut            ....  1.000e-14 Eh

Convergence Tolerance:
 Convergence Check Mode ConvCheckMode   .... Total+1el-Energy
 Convergence forced     ConvForced      .... 1
 Energy Change          TolE            ....  1.000e-09 Eh
 1-El. energy change                    ....  1.000e-06 Eh
 DIIS Error             TolErr          ....  1.000e-08


Diagonalization of the overlap matrix:
Smallest eigenvalue                        ... 9.658e-04
Time for diagonalization                   ...    0.004 sec
Threshold for overlap eigenvalues          ... 1.000e-08
Number of eigenvalues below threshold      ... 0
Time for construction of square roots      ...    0.003 sec
Total time needed                          ...    0.007 sec

---------------------
INITIAL GUESS: MOREAD
---------------------
Guess MOs are being read from file: 02_ScF.ges
Input Geometry matches current geometry (good)
Atom 0: N(Shells)= 27 and 18 - projection required
Input basis set needs projection
NBasis(read)= 95
NBasis(calc)= 150
Basis set overlap was calculated
Using GuessMode=FMatrix for the initial guess
C*T matrix was formed
Effective Fockian was calculated
Effective Fockian was diagonalized
Initial density was built
                      ------------------
                      INITIAL GUESS DONE (   0.0 sec)
                      ------------------
--------------
SCF ITERATIONS
--------------
ITER       Energy         Delta-E        Max-DP      RMS-DP      [F,P]     Damp
               ***  Starting incremental Fock matrix formation  ***
  0   -859.2969734490   0.000000000000 0.01848599  0.00044885  0.0575134 0.7000
  1   -859.2978172484  -0.000843799395 0.01638179  0.00035132  0.0402258 0.7000
                               ***Turning on DIIS***
  2   -859.2984219259  -0.000604677550 0.04621795  0.00089171  0.0281341 0.0000
  3   -859.2993880587  -0.000966132739 0.01990302  0.00023002  0.0008899 0.0000
  4   -859.2991366278   0.000251430830 0.00655377  0.00006812  0.0003135 0.0000
  5   -859.3004020647  -0.001265436923 0.00251871  0.00002540  0.0001650 0.0000
  6   -859.2999849830   0.000417081723 0.00113991  0.00001144  0.0000971 0.0000
  7   -859.3000676028  -0.000082619815 0.00029987  0.00000331  0.0000373 0.0000
  8   -859.3000746048  -0.000007001989 0.00012570  0.00000140  0.0000198 0.0000
  9   -859.2999491057   0.000125499169 0.00007893  0.00000081  0.0000083 0.0000
 10   -859.2999167421   0.000032363512 0.00001023  0.00000018  0.0000022 0.0000
 11   -859.2998965241   0.000020218092 0.00000847  0.00000009  0.0000007 0.0000
 12   -859.2998941061   0.000002417955 0.00000345  0.00000003  0.0000002 0.0000
 13   -859.2998936342   0.000000471851 0.00000088  0.00000001  0.0000001 0.0000
                            ***DIIS convergence achieved***

               *****************************************************
               *                     SUCCESS                       *
               *           SCF CONVERGED AFTER  14 CYCLES          *
               *****************************************************


----------------
TOTAL SCF ENERGY
----------------

Total Energy       :         -859.29989351 Eh          -23382.73886 eV

Components:
Nuclear Repulsion  :           55.78496551 Eh            1517.98608 eV
Electronic Energy  :         -915.08485902 Eh          -24900.72494 eV
One Electron Energy:        -1289.25138764 Eh          -35082.31381 eV
Two Electron Energy:          374.16652861 Eh           10181.58887 eV

Virial components:
Potential Energy   :        -1718.54730580 Eh          -46764.04963 eV
Kinetic Energy     :          859.24741229 Eh           23381.31077 eV
Virial Ratio       :            2.00006108


---------------
SCF CONVERGENCE
---------------

  Last Energy change         ...    1.2470e-07  Tolerance :   1.0000e-09
  Last MAX-Density change    ...    6.7444e-08  Tolerance :   1.0000e-08
  Last RMS-Density change    ...    7.8688e-10  Tolerance :   1.0000e-09
  Last DIIS Error            ...    1.7031e-08  Tolerance :   1.0000e-08

             **** THE GBW FILE WAS UPDATED (02_ScF.gbw) ****
             **** DENSITY FILE WAS UPDATED (02_ScF.scfp) ****
             **** ENERGY FILE WAS UPDATED (02_ScF.en.tmp) ****
             **** THE GBW FILE WAS UPDATED (02_ScF.gbw) ****
             **** DENSITY FILE WAS UPDATED (02_ScF.scfp) ****
----------------
ORBITAL ENERGIES
----------------

  NO   OCC          E(Eh)            E(eV) 
   0   2.0000    -166.035688     -4518.0608 
   1   2.0000     -26.256100      -714.4648 
   2   2.0000     -19.240986      -523.5739 
   3   2.0000     -15.827591      -430.6906 
   4   2.0000     -15.827591      -430.6906 
   5   2.0000     -15.821692      -430.5301 
   6   2.0000      -2.700411       -73.4819 
   7   2.0000      -1.734253       -47.1914 
   8   2.0000      -1.694327       -46.1050 
   9   2.0000      -1.694327       -46.1050 
  10   2.0000      -1.494503       -40.6675 
  11   2.0000      -0.643081       -17.4991 
  12   2.0000      -0.623497       -16.9662 
  13   2.0000      -0.623497       -16.9662 
  14   2.0000      -0.241621        -6.5748 
  15   0.0000       0.016289         0.4432 
  16   0.0000       0.016289         0.4432 
  17   0.0000       0.028861         0.7853 
  18   0.0000       0.060606         1.6492 
  19   0.0000       0.060606         1.6492 
  20   0.0000       0.066991         1.8229 
  21   0.0000       0.082370         2.2414 
  22   0.0000       0.082370         2.2414 
  23   0.0000       0.084202         2.2912 
  24   0.0000       0.112761         3.0684 
  25   0.0000       0.112761         3.0684 
  26   0.0000       0.121351         3.3021 
  27   0.0000       0.121351         3.3021 
  28   0.0000       0.124775         3.3953 
  29   0.0000       0.135733         3.6935 
  30   0.0000       0.135733         3.6935 
  31   0.0000       0.209260         5.6943 
  32   0.0000       0.334022         9.0892 
  33   0.0000       0.334022         9.0892 
  34   0.0000       0.340744         9.2721 
  35   0.0000       0.361981         9.8500 
  36   0.0000       0.361981         9.8500 
  37   0.0000       0.365989         9.9591 
  38   0.0000       0.365989         9.9591 
  39   0.0000       0.369461        10.0535 
  40   0.0000       0.407220        11.0810 
  41   0.0000       0.407220        11.0810 
  42   0.0000       0.408799        11.1240 
  43   0.0000       0.408799        11.1240 
  44   0.0000       0.441673        12.0185 
  45   0.0000       0.470366        12.7993 
  46   0.0000       0.470366        12.7993 
  47   0.0000       0.472779        12.8650 
  48   0.0000       0.630323        17.1520 
  49   0.0000       0.656861        17.8741 
  50   0.0000       0.656861        17.8741 
  51   0.0000       0.660178        17.9644 
  52   0.0000       0.660178        17.9644 
  53   0.0000       0.662951        18.0398 
  54   0.0000       0.662951        18.0398 
  55   0.0000       0.664298        18.0765 
  56   0.0000       0.664298        18.0765 
  57   0.0000       0.803069        21.8526 
  58   0.0000       0.803069        21.8526 
  59   0.0000       0.827232        22.5101 
  60   0.0000       1.014247        27.5991 
  61   0.0000       1.025106        27.8946 
  62   0.0000       1.025106        27.8946 
  63   0.0000       1.031020        28.0555 
  64   0.0000       1.031020        28.0555 
  65   0.0000       1.049971        28.5712 
  66   0.0000       1.049971        28.5712 
  67   0.0000       1.118350        30.4318 
  68   0.0000       1.249092        33.9895 
  69   0.0000       1.249092        33.9895 
  70   0.0000       1.255488        34.1636 
  71   0.0000       1.255488        34.1636 
  72   0.0000       1.272569        34.6284 
  73   0.0000       1.272569        34.6284 
  74   0.0000       1.418420        38.5972 
  75   0.0000       1.590145        43.2700 
  76   0.0000       1.726774        46.9879 
  77   0.0000       1.820178        49.5296 
  78   0.0000       1.820178        49.5296 
  79   0.0000       2.084807        56.7305 
  80   0.0000       2.084807        56.7305 
  81   0.0000       2.097044        57.0635 
  82   0.0000       2.177556        59.2543 
  83   0.0000       2.177556        59.2543 
  84   0.0000       2.474996        67.3481 
  85   0.0000       2.474996        67.3481 
  86   0.0000       2.477660        67.4206 
  87   0.0000       2.477660        67.4206 
  88   0.0000       2.504330        68.1463 
  89   0.0000       2.504330        68.1463 
  90   0.0000       2.733172        74.3734 
  91   0.0000       2.880574        78.3844 
  92   0.0000       2.918845        79.4258 
  93   0.0000       2.918845        79.4258 
  94   0.0000       2.980808        81.1119 
  95   0.0000       2.980808        81.1119 
  96   0.0000       2.990913        81.3869 
  97   0.0000       2.990913        81.3869 
  98   0.0000       3.567547        97.0779 
  99   0.0000       4.329859       117.8215 
 100   0.0000       4.329859       117.8215 
 101   0.0000       4.343915       118.2039 
 102   0.0000       4.343915       118.2039 
 103   0.0000       4.450258       121.0977 
 104   0.0000       4.450258       121.0977 
 105   0.0000       4.463379       121.4547 
 106   0.0000       4.569250       124.3356 
 107   0.0000       4.569250       124.3356 
 108   0.0000       4.652427       126.5990 
 109   0.0000       4.743287       129.0714 
 110   0.0000       4.743287       129.0714 
 111   0.0000       5.029329       136.8550 
 112   0.0000       5.029329       136.8550 
 113   0.0000       5.210572       141.7869 
 114   0.0000       5.578580       151.8009 
 115   0.0000       5.578580       151.8009 
 116   0.0000       6.018093       163.7606 
 117   0.0000       6.018093       163.7606 
 118   0.0000       6.124013       166.6429 
 119   0.0000       6.945884       189.0071 
 120   0.0000       6.945884       189.0071 
 121   0.0000       7.056578       192.0193 
 122   0.0000       7.799062       212.2233 
 123   0.0000      11.981569       326.0351 
 124   0.0000      11.981569       326.0351 
 125   0.0000      11.991267       326.2990 
 126   0.0000      11.991267       326.2990 
 127   0.0000      11.996865       326.4513 
 128   0.0000      11.996865       326.4513 
 129   0.0000      12.021621       327.1249 
 130   0.0000      12.021621       327.1249 
 131   0.0000      12.058148       328.1189 
 132   0.0000      15.264737       415.3746 
 133   0.0000      15.264737       415.3746 
 134   0.0000      15.327093       417.0714 
 135   0.0000      15.327093       417.0714 
 136   0.0000      15.515161       422.1890 
 137   0.0000      15.515161       422.1890 
 138   0.0000      15.554453       423.2582 
 139   0.0000      15.995709       435.2654 
 140   0.0000      16.599226       451.6879 
 141   0.0000      16.599226       451.6879 
 142   0.0000      16.871530       459.0977 
 143   0.0000      16.871530       459.0977 
 144   0.0000      17.105057       465.4523 
 145   0.0000      23.151844       629.9937 
 146   0.0000      55.563932      1511.9714 
 147   0.0000      77.244729      2101.9359 
 148   0.0000     288.419296      7848.2880 
 149   0.0000     480.846075     13084.4869 

                    ********************************
                    * MULLIKEN POPULATION ANALYSIS *
                    ********************************

-----------------------
MULLIKEN ATOMIC CHARGES
-----------------------
   0 Sc:    0.548044
   1 F :   -0.548044
Sum of atomic charges:   -0.0000000

--------------------------------
MULLIKEN REDUCED ORBITAL CHARGES
--------------------------------
  0 Scs       :     7.709639  s :     7.709639
      pz      :     4.123071  p :    12.162325
      px      :     4.019627
      py      :     4.019627
      dz2     :     0.355413  d :     0.510136
      dxz     :     0.077361
      dyz     :     0.077361
      dx2y2   :     0.000000
      dxy     :     0.000000
      f0      :     0.014071  f :     0.055692
      f+1     :     0.020811
      f-1     :     0.020811
      f+2     :     0.000000
      f-2     :     0.000000
      f+3     :     0.000000
      f-3     :     0.000000
      g0      :     0.002610  g :     0.014164
      g+1     :     0.005777
      g-1     :     0.005777
      g+2     :     0.000000
      g-2     :     0.000000
      g+3     :     0.000000
      g-3     :     0.000000
      g+4     :     0.000000
      g-4     :     0.000000
  1 F s       :     3.970677  s :     3.970677
      pz      :     1.818373  p :     5.564976
      px      :     1.873302
      py      :     1.873302
      dz2     :     0.005768  d :     0.011702
      dxz     :     0.002967
      dyz     :     0.002967
      dx2y2   :     0.000000
      dxy     :     0.000000
      f0      :     0.000370  f :     0.000676
      f+1     :     0.000153
      f-1     :     0.000153
      f+2     :     0.000000
      f-2     :    -0.000000
      f+3     :     0.000000
      f-3     :     0.000000
      g0      :     0.000009  g :     0.000014
      g+1     :     0.000003
      g-1     :     0.000003
      g+2     :     0.000000
      g-2     :     0.000000
      g+3     :     0.000000
      g-3     :     0.000000
      g+4     :     0.000000
      g-4     :     0.000000


                     *******************************
                     * LOEWDIN POPULATION ANALYSIS *
                     *******************************

----------------------
LOEWDIN ATOMIC CHARGES
----------------------
   0 Sc:   -0.067421
   1 F :    0.067421

-------------------------------
LOEWDIN REDUCED ORBITAL CHARGES
-------------------------------
  0 Scs       :     7.628885  s :     7.628885
      pz      :     4.230999  p :    12.290767
      px      :     4.029884
      py      :     4.029884
      dz2     :     0.516055  d :     0.750967
      dxz     :     0.117456
      dyz     :     0.117456
      dx2y2   :     0.000000
      dxy     :     0.000000
      f0      :     0.114818  f :     0.244991
      f+1     :     0.065086
      f-1     :     0.065086
      f+2     :     0.000000
      f-2     :     0.000000
      f+3     :     0.000000
      f-3     :     0.000000
      g0      :     0.065246  g :     0.151811
      g+1     :     0.043283
      g-1     :     0.043283
      g+2     :     0.000000
      g-2     :     0.000000
      g+3     :     0.000000
      g-3     :     0.000000
      g+4     :     0.000000
      g-4     :     0.000000
  1 F s       :     3.583630  s :     3.583630
      pz      :     1.826726  p :     5.310789
      px      :     1.742031
      py      :     1.742031
      dz2     :     0.029688  d :     0.033712
      dxz     :     0.002012
      dyz     :     0.002012
      dx2y2   :     0.000000
      dxy     :     0.000000
      f0      :     0.003874  f :     0.004355
      f+1     :     0.000240
      f-1     :     0.000240
      f+2     :     0.000000
      f-2     :     0.000000
      f+3     :     0.000000
      f-3     :     0.000000
      g0      :     0.000079  g :     0.000093
      g+1     :     0.000007
      g-1     :     0.000007
      g+2     :     0.000000
      g-2     :     0.000000
      g+3     :     0.000000
      g-3     :     0.000000
      g+4     :     0.000000
      g-4     :     0.000000


                      *****************************
                      * MAYER POPULATION ANALYSIS *
                      *****************************

  NA   - Mulliken gross atomic population
  ZA   - Total nuclear charge
  QA   - Mulliken gross atomic charge
[...]
Recanonicalizing the internal orbitals
Recanonicalizing the virtual orbitals
Time needed for Fock operator              ...            0.745 sec
Reference energy                           ...   -859.299893479

------------------------------
PARTIAL COULOMB TRANSFORMATION
------------------------------

Transformation type                        ... one-operator
Dimension of the basis                     ...  150
Number of internal MOs                     ...  144 (6-149)
Pair cutoff                                ... 0.000e+00 Eh
Number of AO pairs included in the trafo   ... 11325
Total Number of distinct AO pairs          ... 11325
Memory devoted for trafo                   ... 2500.0 MB 
Max. Number of MO pairs treated together   ... 28934      
Max. Number of MOs treated per batch       ...  192      
Number Format for Storage                  ... Double (8 Byte)
AO-integral source                         ... DIRECT
Integral package used                      ... LIBINT

Starting integral evaluation:
<ss|**>: <sp|**>:       146072 b        0 skpd     0.047 s (  0.000 ms/b)
      170097 b        0 skpd     0.071 s (  0.000 ms/b)
<sd|**>:       134540 b        0 skpd     0.092 s (  0.001 ms/b)
<sf|**>:        83607 b        0 skpd     0.051 s (  0.001 ms/b)
<sg|**>:        51894 b        0 skpd     0.111 s (  0.002 ms/b)
<pp|**>:        52855 b        0 skpd     0.138 s (  0.003 ms/b)
<pd|**>:        76880 b        0 skpd     0.168 s (  0.002 ms/b)
<pf|**>:        48050 b        0 skpd     0.135 s (  0.003 ms/b)
<pg|**>:        28830 b        0 skpd     0.133 s (  0.005 ms/b)
<dd|**>:        34596 b        0 skpd     0.176 s (  0.005 ms/b)
<df|**>:        38440 b        0 skpd     0.108 s (  0.003 ms/b)
<dg|**>:        23064 b        0 skpd     0.121 s (  0.005 ms/b)
<ff|**>:        14415 b        0 skpd     0.056 s (  0.004 ms/b)
<fg|**>:        14415 b        0 skpd     0.078 s (  0.005 ms/b)
<gg|**>:         5766 b        0 skpd     0.115 s (  0.020 ms/b)
Closing buffer AOJ ( 0.04 GB; CompressionRatio= 1.00)
Collecting buffer AOJ 
    ... done with AO integral generation
Number of MO pairs included in the trafo   ... 10440
    ... Now sorting integrals
IBATCH = 1 of  1
Closing buffer JAO ( 0.04 GB; CompressionRatio= 1.00)
Collecting buffer JAO 
TOTAL TIME for half transformation         ...     2.129 sec
AO-integral generation                     ...     1.438 sec
Half transformation                        ...     0.167 sec
J-integral sorting                         ...     0.368 sec

-------------------------- SECOND HALF TRANSFORMATION -------------------------
Formation of (pq|rs)                       ... ok (     0.306 sec)
Integral sorting                           ... ok (     3.337 sec)

------------------
CLOSED SHELL GUESS
------------------

Initial guess performed in     0.018 sec
E(0)                                       ...   -859.299893479
E(MP2)                                     ...     -0.590635214
Initial E(tot)                             ...   -859.890528693
<T|T>                                      ...      0.154277364
Number of pairs included                   ... 45
Total number of pairs                      ... 45

------------------------------------------------
                  RHF COUPLED CLUSTER ITERATIONS
------------------------------------------------

Number of amplitudes to be optimized       ... 821340

Iter       E(tot)           E(Corr)          Delta-E          Residual     Time
  0   -859.890528693     -0.590635214      0.000000000      0.025115564    0.41
                           *** Turning on DIIS ***
  1   -859.888581670     -0.588688191      0.001947023      0.005083823    0.82
  2   -859.902489410     -0.602595931     -0.013907740      0.004158042    0.85
  3   -859.904906683     -0.605013204     -0.002417272      0.002338987    0.86
  4   -859.906740492     -0.606847013     -0.001833810      0.001623231    0.87
  5   -859.907631831     -0.607738352     -0.000891339      0.000992362    0.87
  6   -859.907848447     -0.607954968     -0.000216616      0.000649520    0.87
  7   -859.907954191     -0.608060713     -0.000105744      0.000451198    0.89
  8   -859.907970283     -0.608076804     -0.000016092      0.000263294    0.87
  9   -859.907971922     -0.608078443     -0.000001639      0.000109147    0.87
 10   -859.907965108     -0.608071630      0.000006813      0.000075639    0.89
 11   -859.907964119     -0.608070640      0.000000990      0.000042249    0.87
 12   -859.907961753     -0.608068274      0.000002366      0.000017017    0.87
 13   -859.907961221     -0.608067742      0.000000532      0.000007328    0.89
 14   -859.907959947     -0.608066468      0.000001274      0.000003672    0.89
 15   -859.907959718     -0.608066239      0.000000229      0.000001606    0.88
 16   -859.907959335     -0.608065856      0.000000383      0.000000868    0.87
               --- The Coupled-Cluster iterations have converged ---

----------------------
COUPLED CLUSTER ENERGY
----------------------

E(0)                                       ...   -859.299893479
E(CORR)                                    ...     -0.608065856
E(TOT)                                     ...   -859.907959335
Singles Norm <S|S>**1/2                    ...      0.109172793  
T1 diagnostic                              ...      0.025732274  

------------------
LARGEST AMPLITUDES
------------------
  14-> 16  14-> 16       0.085305
  14-> 15  14-> 15       0.085305
  14-> 17  14-> 17       0.059022
  14-> 17  -1-> -1       0.057248
  14-> 18  14-> 18       0.049468
  14-> 19  14-> 19       0.049468
  14-> 15  14-> 22       0.048586
  14-> 22  14-> 15       0.048586
  14-> 16  14-> 21       0.048586
  14-> 21  14-> 16       0.048586
  14-> 20  -1-> -1       0.043922
  14-> 23  14-> 17       0.035021
  14-> 17  14-> 23       0.035021
  14-> 16  14-> 24       0.034314
  14-> 24  14-> 16       0.034314
  14-> 15  14-> 25       0.034314


        !!!!!!!!!!!!!!!!!!!!!!!!!!!!!!!!!!!!!!!!!!!!!!!!!!!!!!!!!!!!!!!!!!!!!!!!!! 
        !  Warning: Densities are linearized densities !                         !
        !!!!!!!!!!!!!!!!!!!!!!!!!!!!!!!!!!!!!!!!!!!!!!!!!!!!!!!!!!!!!!!!!!!!!!!!!! 

Trace of internal density part =     -0.404582872
Trace of external density part =      0.404582872
----------------------
RHF TRIPLES CORRECTION (Algorithm 1)
----------------------

Multiplier for the singles contribution    ...      1.000000000

10% done
20% done
30% done
40% done
50% done
60% done
70% done
80% done

Triples Correction (T)                     ...     -0.024747915
Scaling of triples based on CCSD energies (Peterson et al. Molecular Physics 113, 1551 (2015))
E(T*) = f*E(T) where f = E(F12-CCSD)/E(CCSD) 
f = CCSD (with F12)/ CCSD (without F12)    ...      1.000000000
Scaled triples correction (T)              ...     -0.024747915

Final correlation energy                   ...     -0.632813771
E(CCSD)                                    ...   -859.907959335
E(CCSD(T))                                 ...   -859.932707250

NORM  =      1.214210135 sqrt=     1.101912036
W(HF) =      0.823580673
------------------------------------------------------------------------------
                           ORCA POPULATION ANALYSIS
------------------------------------------------------------------------------
Input electron density              ... 02_ScF.mdcip
BaseName (.gbw .S,...)              ... 02_ScF

                    ********************************
                    * MULLIKEN POPULATION ANALYSIS *
                    ********************************

-----------------------
MULLIKEN ATOMIC CHARGES
-----------------------
   0 Sc:    0.403870
   1 F :   -0.403870
Sum of atomic charges:   -0.0000000

--------------------------------
MULLIKEN REDUCED ORBITAL CHARGES
--------------------------------
  0 Scs       :     7.558803  s :     7.558803
      pz      :     4.073803  p :    12.141703
      px      :     4.033950
      py      :     4.033950
      dz2     :     0.475757  d :     0.808724
      dxz     :     0.139553
      dyz     :     0.139553
      dx2y2   :     0.026930
      dxy     :     0.026930
      f0      :     0.016377  f :     0.071372
      f+1     :     0.024320
      f-1     :     0.024320
      f+2     :     0.001764
      f-2     :     0.001764
      f+3     :     0.001414
      f-3     :     0.001414
      g0      :     0.002788  g :     0.015528
      g+1     :     0.005845
      g-1     :     0.005845
      g+2     :     0.000313
      g-2     :     0.000313
      g+3     :     0.000117
      g-3     :     0.000117
      g+4     :     0.000096
      g-4     :     0.000096
  1 F s       :     3.954004  s :     3.954004
      pz      :     1.768969  p :     5.404581
      px      :     1.817806
      py      :     1.817806
      dz2     :     0.011304  d :     0.040415
      dxz     :     0.008844
      dyz     :     0.008844
      dx2y2   :     0.005711
      dxy     :     0.005711
      f0      :     0.000949  f :     0.004358
      f+1     :     0.000701
      f-1     :     0.000701
      f+2     :     0.000520
      f-2     :     0.000520
      f+3     :     0.000484
      f-3     :     0.000484
      g0      :     0.000067  g :     0.000513
      g+1     :     0.000060
      g-1     :     0.000060
      g+2     :     0.000056
      g-2     :     0.000056
      g+3     :     0.000054
      g-3     :     0.000054
      g+4     :     0.000052
      g-4     :     0.000052


                     *******************************
                     * LOEWDIN POPULATION ANALYSIS *
                     *******************************

----------------------
LOEWDIN ATOMIC CHARGES
----------------------
   0 Sc:   -0.160535
   1 F :    0.160535

-------------------------------
LOEWDIN REDUCED ORBITAL CHARGES
-------------------------------
  0 Scs       :     7.473178  s :     7.473178
      pz      :     4.165835  p :    12.249627
      px      :     4.041896
      py      :     4.041896
      dz2     :     0.632470  d :     1.041862
      dxz     :     0.177764
      dyz     :     0.177764
      dx2y2   :     0.026932
      dxy     :     0.026932
      f0      :     0.114259  f :     0.250349
      f+1     :     0.064828
      f-1     :     0.064828
      f+2     :     0.001803
      f-2     :     0.001803
      f+3     :     0.001414
      f-3     :     0.001414
      g0      :     0.063944  g :     0.145518
      g+1     :     0.040194
      g-1     :     0.040194
      g+2     :     0.000380
      g-2     :     0.000380
      g+3     :     0.000118
      g-3     :     0.000118
      g+4     :     0.000096
      g-4     :     0.000096
  1 F s       :     3.580021  s :     3.580021
      pz      :     1.791242  p :     5.185942
      px      :     1.697350
      py      :     1.697350
      dz2     :     0.037086  d :     0.064580
      dxz     :     0.008142
      dyz     :     0.008142
      dx2y2   :     0.005605
      dxy     :     0.005605
      f0      :     0.004644  f :     0.008322
      f+1     :     0.000838
      f-1     :     0.000838
      f+2     :     0.000518
      f-2     :     0.000518
      f+3     :     0.000483
      f-3     :     0.000483
      g0      :     0.000142  g :     0.000600
      g+1     :     0.000066
      g-1     :     0.000066
      g+2     :     0.000056
      g-2     :     0.000056
      g+3     :     0.000054
      g-3     :     0.000054
      g+4     :     0.000052
      g-4     :     0.000052


                      *****************************
                      * MAYER POPULATION ANALYSIS *
                      *****************************

  NA   - Mulliken gross atomic population
  ZA   - Total nuclear charge
  QA   - Mulliken gross atomic charge
  VA   - Mayer's total valence
  BVA  - Mayer's bonded valence
  FA   - Mayer's free valence

  ATOM       NA         ZA         QA         VA         BVA        FA
  0 Sc    20.5961    21.0000     0.4039     2.0867     1.0074     1.0793
  1 F      9.4039     9.0000    -0.4039     1.4242     1.0074     0.4167

  Mayer bond orders larger than 0.100000
B(  0-Sc,  1-F ) :   1.0074 



------------------------------------------------------------------------------- 
                                     TIMINGS                                   
------------------------------------------------------------------------------- 


Total execution time                   ...       23.367 sec

Fock Matrix Formation                  ...        0.745 sec (  3.2%)
Initial Guess                          ...        0.018 sec (  0.1%)
DIIS Solver                            ...        0.923 sec (  4.0%)
State Vector Update                    ...        0.042 sec (  0.2%)
Sigma-vector construction              ...       13.367 sec ( 57.2%)
  <0|H|D>                              ...        0.003 sec (  0.0% of sigma)
  <D|H|D>(0-ext)                       ...        0.068 sec (  0.5% of sigma)
  <D|H|D>(2-ext Fock)                  ...        0.007 sec (  0.1% of sigma)
  <D|H|D>(2-ext)                       ...        0.222 sec (  1.7% of sigma)
  <D|H|D>(4-ext)                       ...        1.452 sec ( 10.9% of sigma)
  <D|H|D>(4-ext-corr)                  ...        1.355 sec ( 10.1% of sigma)
  <S|H|0>                              ...        0.007 sec (  0.1% of sigma)
  <S|H|S>                              ...        0.012 sec (  0.1% of sigma)
  <S|H|D>(1-ext)                       ...        0.050 sec (  0.4% of sigma)
  <D|H|S>(1-ext)                       ...        0.041 sec (  0.3% of sigma)
  <S|H|D>(3-ext)                       ...        0.777 sec (  5.8% of sigma)
  Fock-dressing                        ...        6.743 sec ( 50.4% of sigma)
  (ik|jl)-dressing                     ...        0.071 sec (  0.5% of sigma)
  (ij|ab),(ia|jb)-dressing             ...        2.131 sec ( 15.9% of sigma)
  Pair energies                        ...        0.005 sec (  0.0% of sigma)
Total Time for computing (T)           ...        1.432 sec (  6.1% of ALL)
  I/O of integral and amplitudes       ...        0.358 sec ( 25.0% of (T))
  N**6 sorting step                    ...        0.409 sec ( 28.6% of (T))
  External N**7 contributions          ...        0.401 sec ( 28.0% of (T))
  Internal N**7 contributions          ...        0.114 sec (  8.0% of (T))
  N**6 triples energy contributions    ...        0.151 sec ( 10.5% of (T))
One-particle density matrix            ...        0.003 sec (  0.0%)


-------------------
EXTRAPOLATED ENERGY
-------------------


-----------------------------------------------------------------
                      EP1 - MDCI extrapolation:
-----------------------------------------------------------------
NOTE: We use as reference SCF energy, for the extrapolation, the one from the MDCI module and not the one 
from the SCF calculation. In case the first step is a DFT calculation these two might be different.

NOTE: For the SCF part we extrapolate based on the scheme proposed in J. Chem. Phys. 2008, 129, 184116
using the exponents from J. Chem. Theory Comput., 7, 33-43 (2011)

NOTE: For the correlation part we extrapolate based on the scheme proposed in J. Chem. Phys. 1997, 106, 9639
using the exponents from J. Chem. Theory Comput., 7, 33-43 (2011)


Alpha(3/4)     :  7.880 (SCF Extrapolation)
Beta(3/4)      :  2.970 (correlation extrapolation)

SCF energy with basis def2-TZVPP:                      -859.281498241
SCF energy with basis def2-QZVPP:                      -859.299893479
Extrapolated CBS SCF energy (3/4) :                    -859.302427215 (-0.002533736) 

MDCI energy with basis def2-TZVPP:                       -0.563648170
MDCI energy with basis def2-QZVPP:                       -0.632813771
Extrapolated CBS correlation energy (3/4) :              -0.684047512 (-0.051233741)

Estimated CBS total energy (3/4) :                     -859.986474727



-------------------------   --------------------
FINAL SINGLE POINT ENERGY      -859.986474726539
-------------------------   --------------------


                            ***************************************
                            *     ORCA property calculations      *
                            ***************************************

                                    ---------------------
                                    Active property flags
                                    ---------------------
   (+) Dipole Moment


------------------------------------------------------------------------------
                       ORCA ELECTRIC PROPERTIES CALCULATION
------------------------------------------------------------------------------

Dipole Moment Calculation                       ... on
Quadrupole Moment Calculation                   ... off
Polarizability Calculation                      ... off
GBWName                                         ... 02_ScF.gbw
Electron density file                           ... 02_ScF.scfp
The origin for moment calculation is the CENTER OF MASS  = ( 0.000000,  0.000000  1.202091)

-------------
DIPOLE MOMENT
-------------
                                X             Y             Z
Electronic contribution:     -0.00000       0.00000      -0.96161
Nuclear contribution   :      0.00000       0.00000       0.30099
                        -----------------------------------------
Total Dipole Moment    :     -0.00000       0.00000      -0.66062
                        -----------------------------------------
Magnitude (a.u.)       :      0.66062
Magnitude (Debye)      :      1.67917



--------------------
Rotational spectrum 
--------------------
 
Rotational constants in cm-1:     0.000000     0.392705     0.392705 
Rotational constants in MHz :     0.000000 11772.989606 11772.989606 

 Dipole components along the rotational axes: 
x,y,z [a.u.] :    -0.660622     0.000000    -0.000000 
x,y,z [Debye]:    -1.679168     0.000000    -0.000000 

 

                           *** MDCI DENSITY ***

------------------------------------------------------------------------------
                       ORCA ELECTRIC PROPERTIES CALCULATION
------------------------------------------------------------------------------

Dipole Moment Calculation                       ... on
Quadrupole Moment Calculation                   ... off
Polarizability Calculation                      ... off
GBWName                                         ... 02_ScF.gbw
Electron density file                           ... 02_ScF.mdcip
The origin for moment calculation is the CENTER OF MASS  = ( 0.000000,  0.000000  1.202091)

-------------
DIPOLE MOMENT
-------------
                                X             Y             Z
Electronic contribution:     -0.00000      -0.00000      -1.00487
Nuclear contribution   :      0.00000       0.00000       0.30099
                        -----------------------------------------
Total Dipole Moment    :     -0.00000      -0.00000      -0.70388
                        -----------------------------------------
Magnitude (a.u.)       :      0.70388
Magnitude (Debye)      :      1.78913



--------------------
Rotational spectrum 
--------------------
 
Rotational constants in cm-1:     0.000000     0.392705     0.392705 
Rotational constants in MHz :     0.000000 11772.989606 11772.989606 

 Dipole components along the rotational axes: 
x,y,z [a.u.] :    -0.703884    -0.000000    -0.000000 
x,y,z [Debye]:    -1.789132    -0.000000    -0.000000 

 

Timings for individual modules:

Sum of individual times         ...       42.239 sec (=   0.704 min)
GTO integral calculation        ...        1.600 sec (=   0.027 min)   3.8 %
SCF iterations                  ...       10.039 sec (=   0.167 min)  23.8 %
MDCI module                     ...       30.600 sec (=   0.510 min)  72.4 %
                             ****ORCA TERMINATED NORMALLY****
TOTAL RUN TIME: 0 days 0 hours 0 minutes 43 seconds 201 msec
