
                                 *****************
                                 * O   R   C   A *
                                 *****************

           --- An Ab Initio, DFT and Semiempirical electronic structure package ---

                  #######################################################
                  #                        -***-                        #
                  #          Department of theory and spectroscopy      #
                  #               Directorship: Frank Neese             #
                  #        Max Planck Institute fuer Kohlenforschung    #
                  #                Kaiser Wilhelm Platz 1               #
                  #                 D-45470 Muelheim/Ruhr               #
                  #                      Germany                        #
                  #                                                     #
                  #                  All rights reserved                #
                  #                        -***-                        #
                  #######################################################


                         Program Version 4.2.0 -  RELEASE  -


 With contributions from (in alphabetic order):
   Daniel Aravena         : Magnetic Suceptibility
   Michael Atanasov       : Ab Initio Ligand Field Theory (pilot matlab implementation)
   Alexander A. Auer      : GIAO ZORA, VPT2
   Ute Becker             : Parallelization
   Giovanni Bistoni       : ED, misc. LED, open-shell LED, HFLED
   Martin Brehm           : Molecular dynamics
   Dmytro Bykov           : SCF Hessian
   Vijay G. Chilkuri      : MRCI spin determinant printing, contributions to CSF-ICE
   Dipayan Datta          : RHF DLPNO-CCSD density
   Achintya Kumar Dutta   : EOM-CC, STEOM-CC
   Dmitry Ganyushin       : Spin-Orbit,Spin-Spin,Magnetic field MRCI
   Miquel Garcia          : C-PCM Hessian, Gaussian charge scheme
   Yang Guo               : DLPNO-NEVPT2, CIM, IAO-localization
   Andreas Hansen         : Spin unrestricted coupled pair/coupled cluster methods
   Benjamin Helmich-Paris : CASSCF linear response (MC-RPA)
   Lee Huntington         : MR-EOM, pCC
   Robert Izsak           : Overlap fitted RIJCOSX, COSX-SCS-MP3, EOM
   Christian Kollmar      : KDIIS, OOCD, Brueckner-CCSD(T), CCSD density
   Simone Kossmann        : Meta GGA functionals, TD-DFT gradient, OOMP2, MP2 Hessian
   Martin Krupicka        : AUTO-CI
   Lucas Lang             : DCDCAS
   Dagmar Lenk            : GEPOL surface, SMD
   Dimitrios Liakos       : Extrapolation schemes; Compound Job, initial MDCI parallelization
   Dimitrios Manganas     : Further ROCIS development; embedding schemes
   Dimitrios Pantazis     : SARC Basis sets
   Taras Petrenko         : DFT Hessian,TD-DFT gradient, ASA, ECA, R-Raman, ABS, FL, XAS/XES, NRVS
   Peter Pinski           : DLPNO-MP2, DLPNO-MP2 Gradient
   Christoph Reimann      : Effective Core Potentials
   Marius Retegan         : Local ZFS, SOC
   Christoph Riplinger    : Optimizer, TS searches, QM/MM, DLPNO-CCSD(T), (RO)-DLPNO pert. Triples
   Tobias Risthaus        : Range-separated hybrids, TD-DFT gradient, RPA, STAB
   Michael Roemelt        : Original ROCIS implementation
   Masaaki Saitow         : Open-shell DLPNO-CCSD energy and density
   Barbara Sandhoefer     : DKH picture change effects
   Avijit Sen             : IP-ROCIS
   Kantharuban Sivalingam : CASSCF convergence, NEVPT2, FIC-MRCI
   Bernardo de Souza      : ESD, SOC TD-DFT
   Georgi Stoychev        : AutoAux, RI-MP2 NMR
   Willem Van den Heuvel  : Paramagnetic NMR
   Boris Wezisla          : Elementary symmetry handling
   Frank Wennmohs         : Technical directorship


 We gratefully acknowledge several colleagues who have allowed us to
 interface, adapt or use parts of their codes:
   Stefan Grimme, W. Hujo, H. Kruse,             : VdW corrections, initial TS optimization,
                  C. Bannwarth                     DFT functionals, gCP, sTDA/sTD-DF
   Ed Valeev, F. Pavosevic, A. Kumar             : LibInt (2-el integral package), F12 methods
   Garnet Chan, S. Sharma, J. Yang, R. Olivares  : DMRG
   Ulf Ekstrom                                   : XCFun DFT Library
   Mihaly Kallay                                 : mrcc  (arbitrary order and MRCC methods)
   Andreas Klamt, Michael Diedenhofen            : otool_cosmo (COSMO solvation model)
   Jiri Pittner, Ondrej Demel                    : Mk-CCSD
   Frank Weinhold                                : gennbo (NPA and NBO analysis)
   Christopher J. Cramer and Donald G. Truhlar   : smd solvation model
   Lars Goerigk                                  : TD-DFT with DH, B97 family of functionals
   V. Asgeirsson, H. Jonsson                     : NEB implementation
   FAccTs GmbH                                   : IRC, NEB, NEB-TS, Multilevel, MM, QM/MM, CI optimization
   S Lehtola, MJT Oliveira, MAL Marques          : LibXC Library


 Your calculation uses the libint2 library for the computation of 2-el integrals
 For citations please refer to: http://libint.valeyev.net

 Your ORCA version has been built with support for libXC version: 4.2.3
 For citations please refer to: https://tddft.org/programs/libxc/

 This ORCA versions uses:
   CBLAS   interface :  Fast vector & matrix operations
   LAPACKE interface :  Fast linear algebra routines
   SCALAPACK package :  Parallel linear algebra routines


----- Orbital basis set information -----
Your calculation utilizes the basis: def2-TZVPP
   F. Weigend and R. Ahlrichs, Phys. Chem. Chem. Phys. 7, 3297 (2005).

================================================================================
                                        WARNINGS
                       Please study these warnings very carefully!
================================================================================


WARNING: MDCI localization with Augmented Hessian Foster-Boys
  ===> : Switching off randomization!

WARNING: Post HF methods need fully converged wavefunctions
  ===> : Setting SCFConvForced true
         You can overwrite this default with %scf ConvForced false 


INFO   : the flag for use of LIBINT has been found!

================================================================================
                                       INPUT FILE
================================================================================
NAME = 03_ScCl.in
|  1> #
|  2> # 03_ScCl ccsd(t)/cbs
|  3> #
|  4> ! ccsd(t) extrapolate(3/4,def2) verytightscf
|  5> 
|  6> *xyz 0 1
|  7>   Sc  0.00000000000000      0.00000000000000     -0.11786902866458
|  8>   Cl  0.00000000000000      0.00000000000000      2.11786902866458
|  9> *
| 10> 
| 11> %maxcore 5000
| 12> %pal
| 13> nprocs 24
| 14> end
| 15> 
| 16> 
| 17>                          ****END OF INPUT****
================================================================================

                   *****************************************
                   * Extrapolated Single Point Calculation *
                   *****************************************

----- Orbital basis set information -----
Your calculation utilizes the basis: def2-TZVPP
   F. Weigend and R. Ahlrichs, Phys. Chem. Chem. Phys. 7, 3297 (2005).

----- AuxJ basis set information -----
Your calculation utilizes the auxiliary basis: def2/J
   F. Weigend, Phys. Chem. Chem. Phys. 8, 1057 (2006).

----- AuxC basis set information -----
Your calculation utilizes the auxiliary basis: def2-TZVPP/C
  H-La, Hf-Rn : A. Hellweg, C. Hattig, S. Hofener and W. Klopper, Theor. Chem. Acc. 117, 587 (2007).
        Ce-Lu : J. Chmela and M. E. Harding, Mol. Phys. (2018).

----- AuxJK basis set information -----
Your calculation utilizes the auxiliary basis: def2/JK
   H-Ba, Hf-Rn: F. Weigend, J. Comput. Chem. 29, 167 (2008).

All done

                     -----------------------------------------
                     Extrapolated Energy 1 Basis=  def2-TZVPP
                     -----------------------------------------

---------------------------------
CARTESIAN COORDINATES (ANGSTROEM)
---------------------------------
  Sc     0.000000    0.000000   -0.117869
  Cl     0.000000    0.000000    2.117869

----------------------------
CARTESIAN COORDINATES (A.U.)
----------------------------
  NO LB      ZA    FRAG     MASS         X           Y           Z
   0 Sc   21.0000    0    44.960    0.000000    0.000000   -0.222740
   1 Cl   17.0000    0    35.453    0.000000    0.000000    4.002192

--------------------------------
INTERNAL COORDINATES (ANGSTROEM)
--------------------------------
 Sc     0   0   0     0.000000000000     0.00000000     0.00000000
 Cl     1   0   0     2.235738057329     0.00000000     0.00000000

---------------------------
INTERNAL COORDINATES (A.U.)
---------------------------
 Sc     0   0   0     0.000000000000     0.00000000     0.00000000
 Cl     1   0   0     4.224932635537     0.00000000     0.00000000

---------------------
BASIS SET INFORMATION
---------------------
There are 2 groups of distinct atoms

 Group   1 Type Sc  : 17s12p7d2f1g contracted to 6s5p4d2f1g pattern {842111/63111/4111/11/1}
 Group   2 Type Cl  : 14s9p3d1f contracted to 5s5p3d1f pattern {73211/51111/111/1}

Atom   0Sc   basis set group =>   1
Atom   1Cl   basis set group =>   2
---------------------------------
AUXILIARY/J BASIS SET INFORMATION
---------------------------------
There are 2 groups of distinct atoms

 Group   1 Type Sc  : 19s5p5d3f3g contracted to 8s5p5d2f3g pattern {121111111/11111/11111/21/111}
 Group   2 Type Cl  : 14s5p5d2f1g contracted to 8s4p3d1f1g pattern {71111111/2111/311/2/1}

Atom   0Sc   basis set group =>   1
Atom   1Cl   basis set group =>   2
---------------------------------
AUXILIARY/C BASIS SET INFORMATION
---------------------------------
There are 2 groups of distinct atoms

 Group   1 Type Sc  : 9s9p8d7f5g3h1i contracted to 9s9p8d7f5g3h1i pattern {111111111/111111111/11111111/1111111/11111/111/1}
 Group   2 Type Cl  : 11s8p7d5f2g contracted to 11s8p7d5f2g pattern {11111111111/11111111/1111111/11111/11}

Atom   0Sc   basis set group =>   1
Atom   1Cl   basis set group =>   2
----------------------------------
AUXILIARY/JK BASIS SET INFORMATION
----------------------------------
There are 2 groups of distinct atoms

 Group   1 Type Sc  : 19s14p12d10f7g3h1i contracted to 16s13p11d9f5g3h1i pattern {4111111111111111/2111111111111/21111111111/211111111/31111/111/1}
 Group   2 Type Cl  : 16s12p10d4f1g contracted to 13s11p9d4f1g pattern {4111111111111/21111111111/211111111/1111/1}

Atom   0Sc   basis set group =>   1
Atom   1Cl   basis set group =>   2


           ************************************************************
           *        Program running with 24 parallel MPI-processes    *
           *              working on a common directory               *
           ************************************************************
------------------------------------------------------------------------------
                           ORCA GTO INTEGRAL CALCULATION
------------------------------------------------------------------------------

                         BASIS SET STATISTICS AND STARTUP INFO

 # of primitive gaussian shells          ...   66
 # of primitive gaussian functions       ...  174
 # of contracted shells                  ...   32
 # of contracted basis functions         ...  106
 Highest angular momentum                ...    4
 Maximum contraction depth               ...    8
 Integral package used                   ... LIBINT
 Integral threshhold            Thresh   ...  1.000e-12
 Primitive cut-off              TCut     ...  1.000e-14


------------------------------ INTEGRAL EVALUATION ----------------------------


 * One electron integrals 
 Pre-screening matrix                    ... done
 Shell pair data                         ... done (   0.000 sec)



           ************************************************************
           *        Program running with 24 parallel MPI-processes    *
           *              working on a common directory               *
           ************************************************************
-------------------------------------------------------------------------------
                                 ORCA SCF
-------------------------------------------------------------------------------

------------
SCF SETTINGS
------------
Hamiltonian:
 Ab initio Hamiltonian  Method          .... Hartree-Fock(GTOs)


General Settings:
 Integral files         IntName         .... 03_ScCl
 Hartree-Fock type      HFTyp           .... RHF
 Total Charge           Charge          ....    0
 Multiplicity           Mult            ....    1
 Number of Electrons    NEL             ....   38
 Basis Dimension        Dim             ....  106
 Nuclear Repulsion      ENuc            ....     84.4983886837 Eh

Convergence Acceleration:
 DIIS                   CNVDIIS         .... on
   Start iteration      DIISMaxIt       ....    12
   Startup error        DIISStart       ....  0.200000
   # of expansion vecs  DIISMaxEq       ....     5
   Bias factor          DIISBfac        ....   1.050
   Max. coefficient     DIISMaxC        ....  10.000
 Newton-Raphson         CNVNR           .... off
 SOSCF                  CNVSOSCF        .... off
 Level Shifting         CNVShift        .... on
   Level shift para.    LevelShift      ....    0.2500
   Turn off err/grad.   ShiftErr        ....    0.0010
 Zerner damping         CNVZerner       .... off
 Static damping         CNVDamp         .... on
   Fraction old density DampFac         ....    0.7000
   Max. Damping (<1)    DampMax         ....    0.9800
   Min. Damping (>=0)   DampMin         ....    0.0000
   Turn off err/grad.   DampErr         ....    0.1000
 Fernandez-Rico         CNVRico         .... off

SCF Procedure:
 Maximum # iterations   MaxIter         ....   125
 SCF integral mode      SCFMode         .... Direct
   Integral package                     .... LIBINT
 Reset frequency        DirectResetFreq ....    20
 Integral Threshold     Thresh          ....  1.000e-12 Eh
 Primitive CutOff       TCut            ....  1.000e-14 Eh

Convergence Tolerance:
 Convergence Check Mode ConvCheckMode   .... Total+1el-Energy
 Convergence forced     ConvForced      .... 1
 Energy Change          TolE            ....  1.000e-09 Eh
 1-El. energy change                    ....  1.000e-06 Eh
 DIIS Error             TolErr          ....  1.000e-08


Diagonalization of the overlap matrix:
Smallest eigenvalue                        ... 3.195e-03
Time for diagonalization                   ...    0.007 sec
Threshold for overlap eigenvalues          ... 1.000e-08
Number of eigenvalues below threshold      ... 0
Time for construction of square roots      ...    0.002 sec
Total time needed                          ...    0.010 sec

-------------------
DFT GRID GENERATION
-------------------

General Integration Accuracy     IntAcc      ...  4.340
Radial Grid Type                 RadialGrid  ... Gauss-Chebyshev
Angular Grid (max. acc.)         AngularGrid ... Lebedev-110
Angular grid pruning method      GridPruning ... 3 (G Style)
Weight generation scheme         WeightScheme... Becke
Basis function cutoff            BFCut       ...    1.0000e-12
Integration weight cutoff        WCut        ...    1.0000e-14
Grids for H and He will be reduced by one unit

# of grid points (after initial pruning)     ...   4816 (   0.0 sec)
# of grid points (after weights+screening)   ...   4791 (   0.0 sec)
nearest neighbour list constructed           ...    0.0 sec
Grid point re-assignment to atoms done       ...    0.0 sec
Grid point division into batches done        ...    0.0 sec
Reduced shell lists constructed in    0.0 sec

Total number of grid points                  ...     4791
Total number of batches                      ...       76
Average number of points per batch           ...       63
Average number of grid points per atom       ...     2396
Average number of shells per batch           ...    11.20 (35.00%)
Average number of basis functions per batch  ...    46.40 (43.77%)
Average number of large shells per batch     ...     8.00 (71.43%)
Average number of large basis fcns per batch ...    30.40 (65.52%)
Maximum spatial batch extension              ...  20.56, 31.13, 17.50 au
Average spatial batch extension              ...   0.99,  1.36,  0.92 au

Time for grid setup =    0.023 sec

------------------------------
INITIAL GUESS: MODEL POTENTIAL
------------------------------
Loading Hartree-Fock densities                     ... done
Calculating cut-offs                               ... done
Setting up the integral package                    ... done
Initializing the effective Hamiltonian             ... done
Starting the Coulomb interaction                   ... done (   0.0 sec)
Reading the grid                                   ... done
Mapping shells                                     ... done
Starting the XC term evaluation                    ... done (   0.0 sec)
Transforming the Hamiltonian                       ... done (   0.0 sec)
Diagonalizing the Hamiltonian                      ... done (   0.0 sec)
Back transforming the eigenvectors                 ... done (   0.0 sec)
Now organizing SCF variables                       ... done
                      ------------------
                      INITIAL GUESS DONE (   0.1 sec)
                      ------------------
--------------
SCF ITERATIONS
--------------
ITER       Energy         Delta-E        Max-DP      RMS-DP      [F,P]     Damp
               ***  Starting incremental Fock matrix formation  ***
  0  -1219.2335263727   0.000000000000 0.05731743  0.00105680  0.1458325 0.7000
  1  -1219.2534693928  -0.019943020146 0.04269200  0.00087334  0.1018724 0.7000
                               ***Turning on DIIS***
  2  -1219.2674802115  -0.014010818636 0.09195464  0.00211097  0.0727878 0.0000
  3  -1219.1853151505   0.082165060967 0.04219316  0.00075956  0.0191786 0.0000
  4  -1219.3073471706  -0.122032020142 0.04579784  0.00062284  0.0116554 0.0000
  5  -1219.3427451806  -0.035398009946 0.05752959  0.00075056  0.0107848 0.0000
  6  -1219.3859161688  -0.043170988187 0.05717634  0.00073483  0.0097457 0.0000
  7  -1219.4379998535  -0.052083684736 0.05792276  0.00074813  0.0078692 0.0000
  8  -1219.3774629975   0.060536856002 0.03036393  0.00041691  0.0057244 0.0000
  9  -1219.4175075898  -0.040044592310 0.03040056  0.00042339  0.0038072 0.0000
 10  -1219.3728967300   0.044610859862 0.01031384  0.00017578  0.0022693 0.0000
 11  -1219.3502769305   0.022619799470 0.00328950  0.00009220  0.0011464 0.0000
 12  -1219.3304437449   0.019833185579 0.00347575  0.00008542  0.0005699 0.0000
 13  -1219.3061592745   0.024284470421 0.00260846  0.00002993  0.0001557 0.0000
 14  -1219.3080891851  -0.001929910582 0.00146447  0.00001680  0.0000563 0.0000
 15  -1219.3082571168  -0.000167931726 0.00029588  0.00000349  0.0000143 0.0000
 16  -1219.3084520359  -0.000194919072 0.00000685  0.00000020  0.0000016 0.0000
 17  -1219.3084798695  -0.000027833640 0.00001512  0.00000018  0.0000009 0.0000
 18  -1219.3084811635  -0.000001293958 0.00000770  0.00000009  0.0000006 0.0000
 19  -1219.3084863385  -0.000005175078 0.00000316  0.00000005  0.0000003 0.0000
               *** Restarting incremental Fock matrix formation ***
                                   *** Resetting DIIS ***
 20  -1219.3084815279   0.000004810650 0.00000063  0.00000001  0.0000001 0.0000
 21  -1219.3084829943  -0.000001466454 0.00000032  0.00000001  0.0000001 0.0000
 22  -1219.3084822758   0.000000718534 0.00000023  0.00000000  0.0000001 0.0000
 23  -1219.3084819877   0.000000288118 0.00000034  0.00000000  0.0000000 0.0000
                            ***DIIS convergence achieved***

               *****************************************************
               *                     SUCCESS                       *
               *           SCF CONVERGED AFTER  24 CYCLES          *
               *****************************************************


----------------
TOTAL SCF ENERGY
----------------

Total Energy       :        -1219.30848165 Eh          -33179.07058 eV

Components:
Nuclear Repulsion  :           84.49838868 Eh            2299.31805 eV
Electronic Energy  :        -1303.80687033 Eh          -35478.38863 eV
One Electron Energy:        -1842.64312958 Eh          -50140.86867 eV
Two Electron Energy:          538.83625925 Eh           14662.48004 eV

Virial components:
Potential Energy   :        -2438.67645552 Eh          -66359.76002 eV
Kinetic Energy     :         1219.36797387 Eh           33180.68944 eV
Virial Ratio       :            1.99995121


---------------
SCF CONVERGENCE
---------------

  Last Energy change         ...    3.3888e-07  Tolerance :   1.0000e-09
  Last MAX-Density change    ...    2.1981e-07  Tolerance :   1.0000e-08
  Last RMS-Density change    ...    2.5254e-09  Tolerance :   1.0000e-09
  Last DIIS Error            ...    1.0551e-08  Tolerance :   1.0000e-08

             **** THE GBW FILE WAS UPDATED (03_ScCl.gbw) ****
             **** DENSITY FILE WAS UPDATED (03_ScCl.scfp) ****
             **** ENERGY FILE WAS UPDATED (03_ScCl.en.tmp) ****
             **** THE GBW FILE WAS UPDATED (03_ScCl.gbw) ****
             **** DENSITY FILE WAS UPDATED (03_ScCl.scfp) ****
----------------
ORBITAL ENERGIES
----------------

  NO   OCC          E(Eh)            E(eV) 
   0   2.0000    -166.023228     -4517.7217 
   1   2.0000    -104.803615     -2851.8513 
   2   2.0000     -19.225204      -523.1444 
   3   2.0000     -15.813297      -430.3017 
   4   2.0000     -15.813297      -430.3017 
   5   2.0000     -15.804503      -430.0624 
   6   2.0000     -10.534218      -286.6506 
   7   2.0000      -8.000365      -217.7010 
   8   2.0000      -7.999961      -217.6900 
   9   2.0000      -7.999961      -217.6900 
  10   2.0000      -2.689424       -73.1830 
  11   2.0000      -1.694174       -46.1008 
  12   2.0000      -1.686267       -45.8857 
  13   2.0000      -1.686267       -45.8857 
  14   2.0000      -1.053324       -28.6624 
  15   2.0000      -0.495445       -13.4817 
  16   2.0000      -0.458542       -12.4776 
  17   2.0000      -0.458542       -12.4776 
  18   2.0000      -0.245672        -6.6851 
  19   0.0000       0.027932         0.7601 
  20   0.0000       0.031429         0.8552 
  21   0.0000       0.031429         0.8552 
  22   0.0000       0.062543         1.7019 
  23   0.0000       0.062543         1.7019 
  24   0.0000       0.101428         2.7600 
  25   0.0000       0.101428         2.7600 
  26   0.0000       0.108561         2.9541 
  27   0.0000       0.146251         3.9797 
  28   0.0000       0.146251         3.9797 
  29   0.0000       0.148212         4.0330 
  30   0.0000       0.148212         4.0330 
  31   0.0000       0.156730         4.2648 
  32   0.0000       0.179772         4.8918 
  33   0.0000       0.289610         7.8807 
  34   0.0000       0.289610         7.8807 
  35   0.0000       0.375043        10.2054 
  36   0.0000       0.381174        10.3723 
  37   0.0000       0.382618        10.4116 
  38   0.0000       0.382618        10.4116 
  39   0.0000       0.410023        11.1573 
  40   0.0000       0.410023        11.1573 
  41   0.0000       0.444576        12.0975 
  42   0.0000       0.444576        12.0975 
  43   0.0000       0.498969        13.5776 
  44   0.0000       0.498969        13.5776 
  45   0.0000       0.506762        13.7897 
  46   0.0000       0.506762        13.7897 
  47   0.0000       0.511952        13.9309 
  48   0.0000       0.605990        16.4898 
  49   0.0000       0.605990        16.4898 
  50   0.0000       0.709124        19.2962 
  51   0.0000       0.709124        19.2962 
  52   0.0000       0.723938        19.6994 
  53   0.0000       0.806221        21.9384 
  54   0.0000       0.882584        24.0163 
  55   0.0000       0.882584        24.0163 
  56   0.0000       1.160970        31.5916 
  57   0.0000       1.160970        31.5916 
  58   0.0000       1.165937        31.7268 
  59   0.0000       1.166484        31.7416 
  60   0.0000       1.166484        31.7416 
  61   0.0000       1.229536        33.4574 
  62   0.0000       1.229536        33.4574 
  63   0.0000       1.351800        36.7844 
  64   0.0000       1.351800        36.7844 
  65   0.0000       1.407775        38.3075 
  66   0.0000       1.417241        38.5651 
  67   0.0000       1.417241        38.5651 
  68   0.0000       1.469529        39.9879 
  69   0.0000       1.469529        39.9879 
  70   0.0000       1.474541        40.1243 
  71   0.0000       1.474541        40.1243 
  72   0.0000       1.479063        40.2474 
  73   0.0000       1.563036        42.5324 
  74   0.0000       1.563036        42.5324 
  75   0.0000       1.637055        44.5465 
  76   0.0000       1.790185        48.7134 
  77   0.0000       1.790185        48.7134 
  78   0.0000       1.799783        48.9746 
  79   0.0000       1.799783        48.9746 
  80   0.0000       1.856654        50.5221 
  81   0.0000       1.939818        52.7851 
  82   0.0000       2.147441        58.4348 
  83   0.0000       2.147441        58.4348 
  84   0.0000       2.277264        61.9675 
  85   0.0000       2.277264        61.9675 
  86   0.0000       2.345223        63.8168 
  87   0.0000       2.437634        66.3314 
  88   0.0000       2.437634        66.3314 
  89   0.0000       2.554732        69.5178 
  90   0.0000       2.554732        69.5178 
  91   0.0000       2.624465        71.4153 
  92   0.0000       2.624465        71.4153 
  93   0.0000       2.771219        75.4087 
  94   0.0000       2.868058        78.0438 
  95   0.0000       2.868058        78.0438 
  96   0.0000       3.467016        94.3423 
  97   0.0000       8.703145       236.8246 
  98   0.0000       8.703145       236.8246 
  99   0.0000       8.833023       240.3588 
 100   0.0000       8.833023       240.3588 
 101   0.0000       8.841675       240.5942 
 102   0.0000      11.564063       314.6742 
 103   0.0000      11.564063       314.6742 
 104   0.0000      11.864957       322.8619 
 105   0.0000      25.946247       706.0333 

                    ********************************
                    * MULLIKEN POPULATION ANALYSIS *
                    ********************************

-----------------------
MULLIKEN ATOMIC CHARGES
-----------------------
   0 Sc:    0.326937
   1 Cl:   -0.326937
Sum of atomic charges:   -0.0000000

--------------------------------
MULLIKEN REDUCED ORBITAL CHARGES
--------------------------------
  0 Scs       :     7.619660  s :     7.619660
      pz      :     4.180340  p :    12.260250
      px      :     4.039955
      py      :     4.039955
      dz2     :     0.538680  d :     0.722030
      dxz     :     0.091675
      dyz     :     0.091675
      dx2y2   :     0.000000
      dxy     :     0.000000
      f0      :     0.010689  f :     0.057387
      f+1     :     0.023349
      f-1     :     0.023349
      f+2     :     0.000000
      f-2     :     0.000000
      f+3     :     0.000000
      f-3     :     0.000000
      g0      :     0.002593  g :     0.013735
      g+1     :     0.005571
      g-1     :     0.005571
      g+2     :     0.000000
      g-2     :     0.000000
      g+3     :     0.000000
      g-3     :     0.000000
      g+4     :     0.000000
      g-4     :     0.000000
  1 Cls       :     5.918832  s :     5.918832
      pz      :     3.717781  p :    11.386341
      px      :     3.834280
      py      :     3.834280
      dz2     :     0.010651  d :     0.020450
      dxz     :     0.004899
      dyz     :     0.004899
      dx2y2   :     0.000000
      dxy     :     0.000000
      f0      :     0.000773  f :     0.001314
      f+1     :     0.000270
      f-1     :     0.000270
      f+2     :     0.000000
      f-2     :     0.000000
      f+3     :     0.000000
      f-3     :     0.000000


                     *******************************
                     * LOEWDIN POPULATION ANALYSIS *
                     *******************************

----------------------
LOEWDIN ATOMIC CHARGES
----------------------
   0 Sc:   -0.555987
   1 Cl:    0.555987

-------------------------------
LOEWDIN REDUCED ORBITAL CHARGES
-------------------------------
  0 Scs       :     7.551624  s :     7.551624
      pz      :     4.366314  p :    12.497843
      px      :     4.065764
      py      :     4.065764
      dz2     :     0.743898  d :     1.077627
      dxz     :     0.166865
      dyz     :     0.166865
      dx2y2   :     0.000000
      dxy     :     0.000000
      f0      :     0.116564  f :     0.314992
      f+1     :     0.099214
      f-1     :     0.099214
      f+2     :     0.000000
      f-2     :     0.000000
      f+3     :     0.000000
      f-3     :     0.000000
      g0      :     0.033797  g :     0.113901
      g+1     :     0.040052
      g-1     :     0.040052
      g+2     :     0.000000
      g-2     :     0.000000
      g+3     :     0.000000
      g-3     :     0.000000
      g+4     :     0.000000
      g-4     :     0.000000
  1 Cls       :     5.450963  s :     5.450963
      pz      :     3.716392  p :    10.969925
      px      :     3.626766
      py      :     3.626766
      dz2     :     0.018718  d :     0.021286
      dxz     :     0.001284
      dyz     :     0.001284
      dx2y2   :     0.000000
      dxy     :     0.000000
      f0      :     0.001732  f :     0.001841
      f+1     :     0.000054
      f-1     :     0.000054
      f+2     :     0.000000
      f-2     :     0.000000
      f+3     :     0.000000
      f-3     :     0.000000


                      *****************************
                      * MAYER POPULATION ANALYSIS *
                      *****************************

  NA   - Mulliken gross atomic population
  ZA   - Total nuclear charge
  QA   - Mulliken gross atomic charge
  VA   - Mayer's total valence
  BVA  - Mayer's bonded valence
  FA   - Mayer's free valence

  ATOM       NA         ZA         QA         VA         BVA        FA
  0 Sc    20.6731    21.0000     0.3269     1.2016     1.2016    -0.0000
  1 Cl    17.3269    17.0000    -0.3269     1.2016     1.2016    -0.0000

  Mayer bond orders larger than 0.100000
B(  0-Sc,  1-Cl) :   1.2016 

-------
TIMINGS
-------

Total SCF time: 0 days 0 hours 0 min 4 sec 

Total time                  ....       4.404 sec
Sum of individual times     ....       4.149 sec  ( 94.2%)

Fock matrix formation       ....       3.940 sec  ( 89.4%)
Diagonalization             ....       0.040 sec  (  0.9%)
Density matrix formation    ....       0.008 sec  (  0.2%)
Population analysis         ....       0.003 sec  (  0.1%)
Initial guess               ....       0.111 sec  (  2.5%)
Orbital Transformation      ....       0.000 sec  (  0.0%)
Orbital Orthonormalization  ....       0.000 sec  (  0.0%)
DIIS solution               ....       0.025 sec  (  0.6%)


           ************************************************************
           *        Program running with 24 parallel MPI-processes    *
           *              working on a common directory               *
           ************************************************************


------------------------------------------------------------------------------- 
                              ORCA-MATRIX DRIVEN CI                            
------------------------------------------------------------------------------- 

--------------------------------
AUTOMATIC CHOICE OF INCORE LEVEL
--------------------------------

Memory available                           ...   2500.00 MB
Memory needed for S+T                      ...      7.80 MB
Memory needed for J+K                      ...     15.65 MB
Memory needed for DIIS                     ...    109.14 MB
Memory needed for 3-ext                    ...     45.22 MB
Memory needed for 4-ext                    ...    221.06 MB
Memory needed for triples                  ...     25.12 MB
 -> Final InCoreLevel    ... 5
 -> check shows that triples correction can be computed


Wavefunction type
-----------------
Correlation treatment                      ...      CCSD     
Single excitations                         ... ON
Orbital optimization                       ... OFF
Calculation of Z vector                    ... OFF
Calculation of Brueckner orbitals          ... OFF
Perturbative triple excitations            ... ON
Calculation of F12 correction              ... OFF
Frozen core treatment                      ... chemical core (20 el)
Reference Wavefunction                     ... RHF
  Internal Orbitals:    10 ...   18 (  9 MO's/ 18 electrons)
  Virtual  Orbitals:    19 ...  105 ( 87 MO's              )
Number of AO's                             ...    106
Number of electrons                        ...     38
Number of correlated electrons             ...     18

Algorithmic settings
--------------------
Integral transformation                    ... AO direct full transformation
K(C) Formation                             ... FULL-MO TRAFO
Maximum number of iterations               ...        50
Convergence tolerance (max. residuum)      ... 1.000e-06
Level shift for amplitude update           ... 2.000e-01
Maximum number of DIIS vectors             ...         7
DIIS turned on at iteration                ...         0
Damping before turning on DIIS             ...     0.500
Damping after turning on DIIS              ...     0.000
Pair specific amplitude update             ... OFF
Natural orbital iterations                 ... OFF
Perturbative natural orbital generation    ... OFF
Printlevel                                 ... 2

Memory handling:
----------------
Maximum memory for working arrays          ...   2500 MB
Data storage in matrix containers          ... UNCOMPRESSED
Data type for integral storage             ... DOUBLE
In-Core Storage of quantities:
   Amplitudes+Sigma Vector      ... YES
   J+K operators                ... YES
   DIIS vectors                 ... YES
   3-external integrals         ... YES
   4-external integrals         ... YES


Initializing the integral package          ... done
Warning: reference  - re-canonicalizations have been set to INT 1 VIRT 1

--------------------------
CLOSED-SHELL FOCK OPERATOR
--------------------------

<ss|ss>:         1891 b           28 skpd (  1.5%)    0.001 s ( 0.000 ms/b)
<ss|sp>:         6344 b           90 skpd (  1.4%)    0.001 s ( 0.000 ms/b)
<ss|sd>:         4575 b           62 skpd (  1.4%)    0.001 s ( 0.000 ms/b)
<ss|sf>:         2013 b           26 skpd (  1.3%)    0.000 s ( 0.000 ms/b)
<ss|sg>:          671 b           10 skpd (  1.5%)    0.000 s ( 0.001 ms/b)
<ss|pp>:         3294 b          100 skpd (  3.0%)    0.001 s ( 0.000 ms/b)
<ss|pd>:         4209 b           80 skpd (  1.9%)    0.001 s ( 0.000 ms/b)
<ss|pf>:         1830 b           35 skpd (  1.9%)    0.001 s ( 0.000 ms/b)
<ss|pg>:          610 b           12 skpd (  2.0%)    0.001 s ( 0.001 ms/b)
<ss|dd>:         1708 b           27 skpd (  1.6%)    0.001 s ( 0.001 ms/b)
<ss|df>:         1281 b           21 skpd (  1.6%)    0.000 s ( 0.000 ms/b)
<ss|dg>:          427 b            7 skpd (  1.6%)    0.001 s ( 0.002 ms/b)
<ss|ff>:          366 b            6 skpd (  1.6%)    0.000 s ( 0.001 ms/b)
<ss|fg>:          183 b            3 skpd (  1.6%)    0.000 s ( 0.002 ms/b)
<ss|gg>:           61 b            1 skpd (  1.6%)    0.001 s ( 0.009 ms/b)
<sp|sp>:         5460 b           63 skpd (  1.2%)    0.001 s ( 0.000 ms/b)
<sp|sd>:         7800 b           76 skpd (  1.0%)    0.002 s ( 0.000 ms/b)
<sp|sf>:         3432 b           31 skpd (  0.9%)    0.001 s ( 0.000 ms/b)
<sp|sg>:         1144 b           12 skpd (  1.0%)    0.001 s ( 0.001 ms/b)
<sp|pp>:         5616 b          127 skpd (  2.3%)    0.003 s ( 0.001 ms/b)
<sp|pd>:         7176 b           62 skpd (  0.9%)    0.003 s ( 0.000 ms/b)
<sp|pf>:         3120 b           26 skpd (  0.8%)    0.001 s ( 0.000 ms/b)
<sp|pg>:         1040 b            9 skpd (  0.9%)    0.002 s ( 0.002 ms/b)
<sp|dd>:         2912 b           23 skpd (  0.8%)    0.003 s ( 0.001 ms/b)
<sp|df>:         2184 b           21 skpd (  1.0%)    0.001 s ( 0.001 ms/b)
<sp|dg>:          728 b            7 skpd (  1.0%)    0.002 s ( 0.003 ms/b)
<sp|ff>:          624 b            4 skpd (  0.6%)    0.001 s ( 0.001 ms/b)
<sp|fg>:          312 b            3 skpd (  1.0%)    0.001 s ( 0.004 ms/b)
<sp|gg>:          104 b            1 skpd (  1.0%)    0.002 s ( 0.016 ms/b)
<sd|sd>:         2850 b           18 skpd (  0.6%)    0.001 s ( 0.000 ms/b)
<sd|sf>:         2475 b           12 skpd (  0.5%)    0.001 s ( 0.000 ms/b)
<sd|sg>:          825 b            7 skpd (  0.8%)    0.001 s ( 0.001 ms/b)
<sd|pp>:         4050 b           86 skpd (  2.1%)    0.003 s ( 0.001 ms/b)
<sd|pd>:         5175 b           20 skpd (  0.4%)    0.004 s ( 0.001 ms/b)
<sd|pf>:         2250 b            3 skpd (  0.1%)    0.002 s ( 0.001 ms/b)
<sd|pg>:          750 b            2 skpd (  0.3%)    0.002 s ( 0.003 ms/b)
<sd|dd>:         2100 b            2 skpd (  0.1%)    0.004 s ( 0.002 ms/b)
<sd|df>:         1575 b            0 skpd (  0.0%)    0.002 s ( 0.001 ms/b)
<sd|dg>:          525 b            0 skpd (  0.0%)    0.003 s ( 0.006 ms/b)
<sd|ff>:          450 b            0 skpd (  0.0%)    0.001 s ( 0.003 ms/b)
<sd|fg>:          225 b            0 skpd (  0.0%)    0.002 s ( 0.008 ms/b)
<sd|gg>:           75 b            0 skpd (  0.0%)    0.003 s ( 0.034 ms/b)
<sf|sf>:          561 b            1 skpd (  0.2%)    0.000 s ( 0.001 ms/b)
<sf|sg>:          363 b            1 skpd (  0.3%)    0.001 s ( 0.003 ms/b)
<sf|pp>:         1782 b           35 skpd (  2.0%)    0.003 s ( 0.001 ms/b)
<sf|pd>:         2277 b            4 skpd (  0.2%)    0.003 s ( 0.001 ms/b)
<sf|pf>:          990 b            0 skpd (  0.0%)    0.001 s ( 0.001 ms/b)
<sf|pg>:          330 b            0 skpd (  0.0%)    0.002 s ( 0.006 ms/b)
<sf|dd>:          924 b            1 skpd (  0.1%)    0.003 s ( 0.004 ms/b)
<sf|df>:          693 b            0 skpd (  0.0%)    0.002 s ( 0.002 ms/b)
<sf|dg>:          231 b            0 skpd (  0.0%)    0.003 s ( 0.011 ms/b)
<sf|ff>:          198 b            0 skpd (  0.0%)    0.001 s ( 0.006 ms/b)
<sf|fg>:           99 b            0 skpd (  0.0%)    0.001 s ( 0.015 ms/b)
<sf|gg>:           33 b            0 skpd (  0.0%)    0.002 s ( 0.064 ms/b)
<sg|sg>:           66 b            0 skpd (  0.0%)    0.000 s ( 0.007 ms/b)
<sg|pp>:          594 b           13 skpd (  2.2%)    0.002 s ( 0.003 ms/b)
<sg|pd>:          759 b            5 skpd (  0.7%)    0.002 s ( 0.003 ms/b)
<sg|pf>:          330 b            2 skpd (  0.6%)    0.001 s ( 0.003 ms/b)
<sg|pg>:          110 b            1 skpd (  0.9%)    0.001 s ( 0.011 ms/b)
<sg|dd>:          308 b            1 skpd (  0.3%)    0.002 s ( 0.007 ms/b)
<sg|df>:          231 b            0 skpd (  0.0%)    0.001 s ( 0.005 ms/b)
<sg|dg>:           77 b            0 skpd (  0.0%)    0.002 s ( 0.024 ms/b)
<sg|ff>:           66 b            0 skpd (  0.0%)    0.001 s ( 0.010 ms/b)
<sg|fg>:           33 b            0 skpd (  0.0%)    0.001 s ( 0.029 ms/b)
<sg|gg>:           11 b            0 skpd (  0.0%)    0.001 s ( 0.127 ms/b)
<pp|pp>:         1485 b           50 skpd (  3.4%)    0.002 s ( 0.002 ms/b)
<pp|pd>:         3726 b           70 skpd (  1.9%)    0.004 s ( 0.001 ms/b)
<pp|pf>:         1620 b           30 skpd (  1.9%)    0.002 s ( 0.001 ms/b)
<pp|pg>:          540 b           10 skpd (  1.9%)    0.002 s ( 0.004 ms/b)
<pp|dd>:         1512 b           28 skpd (  1.9%)    0.004 s ( 0.003 ms/b)
<pp|df>:         1134 b           21 skpd (  1.9%)    0.002 s ( 0.002 ms/b)
<pp|dg>:          378 b            7 skpd (  1.9%)    0.003 s ( 0.007 ms/b)
<pp|ff>:          324 b            6 skpd (  1.9%)    0.001 s ( 0.004 ms/b)
<pp|fg>:          162 b            3 skpd (  1.9%)    0.002 s ( 0.011 ms/b)
<pp|gg>:           54 b            1 skpd (  1.9%)    0.002 s ( 0.047 ms/b)
<pd|pd>:         2415 b            0 skpd (  0.0%)    0.005 s ( 0.002 ms/b)
<pd|pf>:         2070 b            0 skpd (  0.0%)    0.004 s ( 0.002 ms/b)
<pd|pg>:          690 b            0 skpd (  0.0%)    0.005 s ( 0.007 ms/b)
<pd|dd>:         1932 b            0 skpd (  0.0%)    0.008 s ( 0.004 ms/b)
<pd|df>:         1449 b            0 skpd (  0.0%)    0.004 s ( 0.003 ms/b)
<pd|dg>:          483 b            0 skpd (  0.0%)    0.006 s ( 0.013 ms/b)
<pd|ff>:          414 b            0 skpd (  0.0%)    0.003 s ( 0.007 ms/b)
<pd|fg>:          207 b            0 skpd (  0.0%)    0.004 s ( 0.020 ms/b)
<pd|gg>:           69 b            0 skpd (  0.0%)    0.006 s ( 0.084 ms/b)
<pf|pf>:          465 b            0 skpd (  0.0%)    0.001 s ( 0.003 ms/b)
<pf|pg>:          300 b            0 skpd (  0.0%)    0.003 s ( 0.011 ms/b)
<pf|dd>:          840 b            0 skpd (  0.0%)    0.005 s ( 0.006 ms/b)
<pf|df>:          630 b            0 skpd (  0.0%)    0.003 s ( 0.004 ms/b)
<pf|dg>:          210 b            0 skpd (  0.0%)    0.004 s ( 0.020 ms/b)
<pf|ff>:          180 b            0 skpd (  0.0%)    0.002 s ( 0.012 ms/b)
<pf|fg>:           90 b            0 skpd (  0.0%)    0.003 s ( 0.032 ms/b)
<pf|gg>:           30 b            0 skpd (  0.0%)    0.004 s ( 0.132 ms/b)
<pg|pg>:           55 b            0 skpd (  0.0%)    0.001 s ( 0.020 ms/b)
<pg|dd>:          280 b            0 skpd (  0.0%)    0.003 s ( 0.012 ms/b)
<pg|df>:          210 b            0 skpd (  0.0%)    0.002 s ( 0.008 ms/b)
<pg|dg>:           70 b            0 skpd (  0.0%)    0.003 s ( 0.039 ms/b)
<pg|ff>:           60 b            0 skpd (  0.0%)    0.001 s ( 0.017 ms/b)
<pg|fg>:           30 b            0 skpd (  0.0%)    0.002 s ( 0.058 ms/b)
<pg|gg>:           10 b            0 skpd (  0.0%)    0.002 s ( 0.230 ms/b)
<dd|dd>:          406 b            0 skpd (  0.0%)    0.004 s ( 0.011 ms/b)
<dd|df>:          588 b            0 skpd (  0.0%)    0.003 s ( 0.005 ms/b)
<dd|dg>:          196 b            0 skpd (  0.0%)    0.004 s ( 0.022 ms/b)
<dd|ff>:          168 b            0 skpd (  0.0%)    0.002 s ( 0.012 ms/b)
<dd|fg>:           84 b            0 skpd (  0.0%)    0.003 s ( 0.036 ms/b)
<dd|gg>:           28 b            0 skpd (  0.0%)    0.004 s ( 0.153 ms/b)
<df|df>:          231 b            0 skpd (  0.0%)    0.002 s ( 0.008 ms/b)
<df|dg>:          147 b            0 skpd (  0.0%)    0.005 s ( 0.031 ms/b)
<df|ff>:          126 b            0 skpd (  0.0%)    0.003 s ( 0.020 ms/b)
<df|fg>:           63 b            0 skpd (  0.0%)    0.003 s ( 0.054 ms/b)
<df|gg>:           21 b            0 skpd (  0.0%)    0.005 s ( 0.230 ms/b)
<dg|dg>:           28 b            0 skpd (  0.0%)    0.001 s ( 0.041 ms/b)
<dg|ff>:           42 b            0 skpd (  0.0%)    0.001 s ( 0.028 ms/b)
<dg|fg>:           21 b            0 skpd (  0.0%)    0.002 s ( 0.089 ms/b)
<dg|gg>:            7 b            0 skpd (  0.0%)    0.003 s ( 0.365 ms/b)
<ff|ff>:           21 b            0 skpd (  0.0%)    0.001 s ( 0.046 ms/b)
<ff|fg>:           18 b            0 skpd (  0.0%)    0.002 s ( 0.088 ms/b)
<ff|gg>:            6 b            0 skpd (  0.0%)    0.003 s ( 0.454 ms/b)
<fg|fg>:            6 b            0 skpd (  0.0%)    0.001 s ( 0.203 ms/b)
<fg|gg>:            3 b            0 skpd (  0.0%)    0.002 s ( 0.614 ms/b)
<gg|gg>:            1 b            0 skpd (  0.0%)    0.001 s ( 1.150 ms/b)
Recanonicalizing the internal orbitals
Recanonicalizing the virtual orbitals
Time needed for Fock operator              ...            0.326 sec
Reference energy                           ...  -1219.308481528
<ss|**>: 
------------------------------
PARTIAL COULOMB TRANSFORMATION
------------------------------

Transformation type                        ... one-operator
Dimension of the basis                     ...  106
Number of internal MOs                     ...   96 (10-105)
Pair cutoff                                ... 0.000e+00 Eh
Number of AO pairs included in the trafo   ... 5671
Total Number of distinct AO pairs          ... 5671
Memory devoted for trafo                   ... 2500.0 MB 
Max. Number of MO pairs treated together   ... 57781      
Max. Number of MOs treated per batch       ...  545      
Number Format for Storage                  ... Double (8 Byte)
AO-integral source                         ... DIRECT
Integral package used                      ... LIBINT

Starting integral evaluation:
       31293 b        0 skpd     0.009 s (  0.000 ms/b)
<sp|**>:        53352 b        0 skpd     0.019 s (  0.000 ms/b)
<sd|**>:        38475 b        0 skpd     0.027 s (  0.001 ms/b)
<sf|**>:        16929 b        0 skpd     0.015 s (  0.001 ms/b)
<sg|**>:         5643 b        0 skpd     0.021 s (  0.004 ms/b)
<pp|**>:        27702 b        0 skpd     0.034 s (  0.001 ms/b)
<pd|**>:        35397 b        0 skpd     0.051 s (  0.001 ms/b)
<pf|**>:        15390 b        0 skpd     0.026 s (  0.002 ms/b)
<pg|**>:         5130 b        0 skpd     0.034 s (  0.007 ms/b)
<dd|**>:        14364 b        0 skpd     0.055 s (  0.004 ms/b)
<df|**>:        10773 b        0 skpd     0.029 s (  0.003 ms/b)
<dg|**>:         3591 b        0 skpd     0.043 s (  0.012 ms/b)
<ff|**>:         3078 b        0 skpd     0.022 s (  0.007 ms/b)
<fg|**>:         1539 b        0 skpd     0.031 s (  0.020 ms/b)
<gg|**>:          513 b        0 skpd     0.041 s (  0.080 ms/b)
Closing buffer AOJ ( 0.01 GB; CompressionRatio= 1.00)
Collecting buffer AOJ 
    ... done with AO integral generation
Number of MO pairs included in the trafo   ... 4656
    ... Now sorting integrals
IBATCH = 1 of  1
Closing buffer JAO ( 0.01 GB; CompressionRatio= 1.00)
Collecting buffer JAO 
TOTAL TIME for half transformation         ...     0.607 sec
AO-integral generation                     ...     0.435 sec
Half transformation                        ...     0.035 sec
J-integral sorting                         ...     0.095 sec

-------------------------- SECOND HALF TRANSFORMATION -------------------------
Formation of (pq|rs)                       ... ok (     0.056 sec)
Integral sorting                           ... ok (     0.623 sec)

------------------
CLOSED SHELL GUESS
------------------

Initial guess performed in     0.013 sec
E(0)                                       ...  -1219.308481528
E(MP2)                                     ...     -0.460674123
Initial E(tot)                             ...  -1219.769155651
<T|T>                                      ...      0.173902716
Number of pairs included                   ... 45
Total number of pairs                      ... 45

------------------------------------------------
                  RHF COUPLED CLUSTER ITERATIONS
------------------------------------------------

Number of amplitudes to be optimized       ... 341388

Iter       E(tot)           E(Corr)          Delta-E          Residual     Time
  0  -1219.769155651     -0.460674123      0.000000000      0.009609845    0.14
                           *** Turning on DIIS ***
  1  -1219.786714018     -0.478232490     -0.017558367      0.007223363    0.28
  2  -1219.797209687     -0.488728159     -0.010495669      0.004514161    0.28
  3  -1219.799510620     -0.491029092     -0.002300932      0.002814165    0.29
  4  -1219.800747152     -0.492265624     -0.001236532      0.001403429    0.30
  5  -1219.801270185     -0.492788657     -0.000523033      0.000688870    0.29
  6  -1219.801413139     -0.492931611     -0.000142954      0.000468520    0.29
  7  -1219.801450977     -0.492969449     -0.000037838      0.000347427    0.30
  8  -1219.801449652     -0.492968124      0.000001325      0.000257116    0.30
  9  -1219.801444391     -0.492962863      0.000005261      0.000176332    0.29
 10  -1219.801440960     -0.492959433      0.000003430      0.000105029    0.29
 11  -1219.801438157     -0.492956629      0.000002803      0.000053829    0.30
 12  -1219.801436637     -0.492955109      0.000001520      0.000019411    0.31
 13  -1219.801435006     -0.492953478      0.000001631      0.000009589    0.32
 14  -1219.801433957     -0.492952429      0.000001048      0.000004878    0.30
 15  -1219.801433249     -0.492951721      0.000000708      0.000002061    0.29
 16  -1219.801433045     -0.492951517      0.000000204      0.000000991    0.29
               --- The Coupled-Cluster iterations have converged ---

----------------------
COUPLED CLUSTER ENERGY
----------------------

E(0)                                       ...  -1219.308481528
E(CORR)                                    ...     -0.492951517
E(TOT)                                     ...  -1219.801433045
Singles Norm <S|S>**1/2                    ...      0.079659040  
T1 diagnostic                              ...      0.018775816  

------------------
LARGEST AMPLITUDES
------------------
  18-> 20  18-> 20       0.111505
  18-> 21  18-> 21       0.111505
  18-> 19  18-> 19       0.104946
  18-> 22  18-> 22       0.060687
  18-> 23  18-> 23       0.060687
  18-> 19  -1-> -1       0.050476
  18-> 21  18-> 34       0.033667
  18-> 34  18-> 21       0.033667
  18-> 33  18-> 20       0.033667
  18-> 20  18-> 33       0.033667
  18-> 26  18-> 26       0.031902
  18-> 19  18-> 26       0.027774
  18-> 26  18-> 19       0.027774
  16-> 50  16-> 50       0.027184
  17-> 51  17-> 51       0.027184
  16-> 51  16-> 51       0.027184


        !!!!!!!!!!!!!!!!!!!!!!!!!!!!!!!!!!!!!!!!!!!!!!!!!!!!!!!!!!!!!!!!!!!!!!!!!! 
        !  Warning: Densities are linearized densities !                         !
        !!!!!!!!!!!!!!!!!!!!!!!!!!!!!!!!!!!!!!!!!!!!!!!!!!!!!!!!!!!!!!!!!!!!!!!!!! 

Trace of internal density part =     -0.459954914
Trace of external density part =      0.459954914
----------------------
RHF TRIPLES CORRECTION (Algorithm 1)
----------------------

Multiplier for the singles contribution    ...      1.000000000

10% done
20% done
30% done
40% done
50% done
60% done
70% done
80% done

Triples Correction (T)                     ...     -0.021528648
Scaling of triples based on CCSD energies (Peterson et al. Molecular Physics 113, 1551 (2015))
E(T*) = f*E(T) where f = E(F12-CCSD)/E(CCSD) 
f = CCSD (with F12)/ CCSD (without F12)    ...      1.000000000
Scaled triples correction (T)              ...     -0.021528648

Final correlation energy                   ...     -0.514480165
E(CCSD)                                    ...  -1219.801433045
E(CCSD(T))                                 ...  -1219.822961693

NORM  =      1.236323020 sqrt=     1.111900634
W(HF) =      0.808850102
------------------------------------------------------------------------------
                           ORCA POPULATION ANALYSIS
------------------------------------------------------------------------------
Input electron density              ... 03_ScCl.mdcip
BaseName (.gbw .S,...)              ... 03_ScCl

                    ********************************
                    * MULLIKEN POPULATION ANALYSIS *
                    ********************************

-----------------------
MULLIKEN ATOMIC CHARGES
-----------------------
   0 Sc:    0.213512
   1 Cl:   -0.213512
Sum of atomic charges:   -0.0000000

--------------------------------
MULLIKEN REDUCED ORBITAL CHARGES
--------------------------------
  0 Scs       :     7.513094  s :     7.513094
      pz      :     4.126308  p :    12.228281
      px      :     4.050986
      py      :     4.050986
      dz2     :     0.614978  d :     0.966543
      dxz     :     0.146830
      dyz     :     0.146830
      dx2y2   :     0.028952
      dxy     :     0.028952
      f0      :     0.011794  f :     0.064875
      f+1     :     0.024511
      f-1     :     0.024511
      f+2     :     0.001395
      f-2     :     0.001395
      f+3     :     0.000635
      f-3     :     0.000635
      g0      :     0.002393  g :     0.013694
      g+1     :     0.005141
      g-1     :     0.005141
      g+2     :     0.000401
      g-2     :     0.000401
      g+3     :     0.000080
      g-3     :     0.000080
      g+4     :     0.000028
      g-4     :     0.000028
  1 Cls       :     5.898159  s :     5.898159
      pz      :     3.653422  p :    11.180903
      px      :     3.763741
      py      :     3.763741
      dz2     :     0.030624  d :     0.122781
      dxz     :     0.025599
      dyz     :     0.025599
      dx2y2   :     0.020480
      dxy     :     0.020480
      f0      :     0.002365  f :     0.011669
      f+1     :     0.001845
      f-1     :     0.001845
      f+2     :     0.001457
      f-2     :     0.001457
      f+3     :     0.001350
      f-3     :     0.001350


                     *******************************
                     * LOEWDIN POPULATION ANALYSIS *
                     *******************************

----------------------
LOEWDIN ATOMIC CHARGES
----------------------
   0 Sc:   -0.606569
   1 Cl:    0.606569

-------------------------------
LOEWDIN REDUCED ORBITAL CHARGES
-------------------------------
  0 Scs       :     7.428285  s :     7.428285
      pz      :     4.300493  p :    12.446967
      px      :     4.073237
      py      :     4.073237
      dz2     :     0.818361  d :     1.310544
      dxz     :     0.217091
      dyz     :     0.217091
      dx2y2   :     0.029001
      dxy     :     0.029001
      f0      :     0.116489  f :     0.309531
      f+1     :     0.094284
      f-1     :     0.094284
      f+2     :     0.001601
      f-2     :     0.001601
      f+3     :     0.000635
      f-3     :     0.000635
      g0      :     0.034725  g :     0.111243
      g+1     :     0.037510
      g-1     :     0.037510
      g+2     :     0.000640
      g-2     :     0.000640
      g+3     :     0.000082
      g-3     :     0.000082
      g+4     :     0.000028
      g-4     :     0.000028
  1 Cls       :     5.445183  s :     5.445183
      pz      :     3.665966  p :    10.811436
      px      :     3.572735
      py      :     3.572735
      dz2     :     0.040121  d :     0.124417
      dxz     :     0.022144
      dyz     :     0.022144
      dx2y2   :     0.020004
      dxy     :     0.020004
      f0      :     0.003514  f :     0.012394
      f+1     :     0.001652
      f-1     :     0.001652
      f+2     :     0.001439
      f-2     :     0.001439
      f+3     :     0.001349
      f-3     :     0.001349


                      *****************************
                      * MAYER POPULATION ANALYSIS *
                      *****************************

  NA   - Mulliken gross atomic population
  ZA   - Total nuclear charge
  QA   - Mulliken gross atomic charge
  VA   - Mayer's total valence
  BVA  - Mayer's bonded valence
  FA   - Mayer's free valence

  ATOM       NA         ZA         QA         VA         BVA        FA
  0 Sc    20.7865    21.0000     0.2135     2.3400     1.2537     1.0863
  1 Cl    17.2135    17.0000    -0.2135     1.9156     1.2537     0.6619

  Mayer bond orders larger than 0.100000
B(  0-Sc,  1-Cl) :   1.2537 



------------------------------------------------------------------------------- 
                                     TIMINGS                                   
------------------------------------------------------------------------------- 


Total execution time                   ...        7.379 sec

Fock Matrix Formation                  ...        0.326 sec (  4.4%)
Initial Guess                          ...        0.013 sec (  0.2%)
DIIS Solver                            ...        0.416 sec (  5.6%)
State Vector Update                    ...        0.017 sec (  0.2%)
Sigma-vector construction              ...        4.446 sec ( 60.3%)
  <0|H|D>                              ...        0.001 sec (  0.0% of sigma)
  <D|H|D>(0-ext)                       ...        0.026 sec (  0.6% of sigma)
  <D|H|D>(2-ext Fock)                  ...        0.002 sec (  0.0% of sigma)
  <D|H|D>(2-ext)                       ...        0.066 sec (  1.5% of sigma)
  <D|H|D>(4-ext)                       ...        0.367 sec (  8.2% of sigma)
  <D|H|D>(4-ext-corr)                  ...        0.361 sec (  8.1% of sigma)
  <S|H|0>                              ...        0.005 sec (  0.1% of sigma)
  <S|H|S>                              ...        0.006 sec (  0.1% of sigma)
  <S|H|D>(1-ext)                       ...        0.020 sec (  0.5% of sigma)
  <D|H|S>(1-ext)                       ...        0.015 sec (  0.3% of sigma)
  <S|H|D>(3-ext)                       ...        0.264 sec (  5.9% of sigma)
  Fock-dressing                        ...        2.370 sec ( 53.3% of sigma)
  (ik|jl)-dressing                     ...        0.031 sec (  0.7% of sigma)
  (ij|ab),(ia|jb)-dressing             ...        0.720 sec ( 16.2% of sigma)
  Pair energies                        ...        0.003 sec (  0.1% of sigma)
Total Time for computing (T)           ...        0.345 sec (  4.7% of ALL)
  I/O of integral and amplitudes       ...        0.117 sec ( 33.8% of (T))
  N**6 sorting step                    ...        0.091 sec ( 26.4% of (T))
  External N**7 contributions          ...        0.076 sec ( 22.0% of (T))
  Internal N**7 contributions          ...        0.029 sec (  8.5% of (T))
  N**6 triples energy contributions    ...        0.032 sec (  9.3% of (T))
One-particle density matrix            ...        0.001 sec (  0.0%)

----- Orbital basis set information -----
Your calculation utilizes the basis: def2-QZVPP
   F. Weigend and R. Ahlrichs, Phys. Chem. Chem. Phys. 7, 3297 (2005).

----- AuxJ basis set information -----
Your calculation utilizes the auxiliary basis: def2/J
   F. Weigend, Phys. Chem. Chem. Phys. 8, 1057 (2006).

----- AuxC basis set information -----
Your calculation utilizes the auxiliary basis: def2-QZVPP/C
  H-La, Hf-Rn : A. Hellweg, C. Hattig, S. Hofener and W. Klopper, Theor. Chem. Acc. 117, 587 (2007).
        Ce-Lu : J. Chmela and M. E. Harding, Mol. Phys. (2018).

----- AuxJK basis set information -----
Your calculation utilizes the auxiliary basis: def2/JK
   H-Ba, Hf-Rn: F. Weigend, J. Comput. Chem. 29, 167 (2008).

All done

                     -----------------------------------------
                     Extrapolated Energy 2 Basis=  def2-QZVPP
                     -----------------------------------------

---------------------------------
CARTESIAN COORDINATES (ANGSTROEM)
---------------------------------
  Sc     0.000000    0.000000   -0.117869
  Cl     0.000000    0.000000    2.117869

----------------------------
CARTESIAN COORDINATES (A.U.)
----------------------------
  NO LB      ZA    FRAG     MASS         X           Y           Z
   0 Sc   21.0000    0    44.960    0.000000    0.000000   -0.222740
   1 Cl   17.0000    0    35.453    0.000000    0.000000    4.002192

--------------------------------
INTERNAL COORDINATES (ANGSTROEM)
--------------------------------
 Sc     0   0   0     0.000000000000     0.00000000     0.00000000
 Cl     1   0   0     2.235738057329     0.00000000     0.00000000

---------------------------
INTERNAL COORDINATES (A.U.)
---------------------------
 Sc     0   0   0     0.000000000000     0.00000000     0.00000000
 Cl     1   0   0     4.224932635537     0.00000000     0.00000000

---------------------
BASIS SET INFORMATION
---------------------
There are 2 groups of distinct atoms

 Group   1 Type Sc  : 24s18p9d3f2g contracted to 11s6p5d3f2g pattern {114111111111/951111/51111/111/11}
 Group   2 Type Cl  : 20s14p4d2f1g contracted to 9s6p4d2f1g pattern {1031111111/821111/1111/11/1}

Atom   0Sc   basis set group =>   1
Atom   1Cl   basis set group =>   2
---------------------------------
AUXILIARY/J BASIS SET INFORMATION
---------------------------------
There are 2 groups of distinct atoms

 Group   1 Type Sc  : 19s5p5d3f3g contracted to 8s5p5d2f3g pattern {121111111/11111/11111/21/111}
 Group   2 Type Cl  : 14s5p5d2f1g contracted to 8s4p3d1f1g pattern {71111111/2111/311/2/1}

Atom   0Sc   basis set group =>   1
Atom   1Cl   basis set group =>   2
---------------------------------
AUXILIARY/C BASIS SET INFORMATION
---------------------------------
There are 2 groups of distinct atoms

 Group   1 Type Sc  : 15s13p11d8f7g5h2i contracted to 15s13p11d8f7g5h2i pattern {111111111111111/1111111111111/11111111111/11111111/1111111/11111/11}
 Group   2 Type Cl  : 12s10p9d6f3g1h contracted to 12s10p9d6f3g1h pattern {111111111111/1111111111/111111111/111111/111/1}

Atom   0Sc   basis set group =>   1
Atom   1Cl   basis set group =>   2
----------------------------------
AUXILIARY/JK BASIS SET INFORMATION
----------------------------------
There are 2 groups of distinct atoms

 Group   1 Type Sc  : 19s14p12d10f7g3h1i contracted to 16s13p11d9f5g3h1i pattern {4111111111111111/2111111111111/21111111111/211111111/31111/111/1}
 Group   2 Type Cl  : 16s12p10d4f1g contracted to 13s11p9d4f1g pattern {4111111111111/21111111111/211111111/1111/1}

Atom   0Sc   basis set group =>   1
Atom   1Cl   basis set group =>   2

Checking for AutoStart:
The File: 03_ScCl.gbw exists
Trying to determine its content:
     ... Fine, the file contains calculation information
     ... Fine, the calculation information was read
     ... Fine, the file contains a basis set
     ... Fine, the basis set was read
     ... Fine, the file contains a geometry
     ... Fine, the geometry was read
     ... Fine, the file contains a set of orbitals
     ... Fine, the orbitals can be read
     => possible old guess file was deleted
     => GBW file was renamed to GES file
     => GES file is set as startup file
     => Guess is set to MORead
     ... now leaving AutoStart



           ************************************************************
           *        Program running with 24 parallel MPI-processes    *
           *              working on a common directory               *
           ************************************************************
------------------------------------------------------------------------------
                           ORCA GTO INTEGRAL CALCULATION
------------------------------------------------------------------------------

                         BASIS SET STATISTICS AND STARTUP INFO

 # of primitive gaussian shells          ...   97
 # of primitive gaussian functions       ...  267
 # of contracted shells                  ...   49
 # of contracted basis functions         ...  163
 Highest angular momentum                ...    4
 Maximum contraction depth               ...   11
 Integral package used                   ... LIBINT
 Integral threshhold            Thresh   ...  1.000e-12
 Primitive cut-off              TCut     ...  1.000e-14


------------------------------ INTEGRAL EVALUATION ----------------------------


 * One electron integrals 
 Pre-screening matrix                    ... done
 Shell pair data                         ... done (   0.000 sec)



           ************************************************************
           *        Program running with 24 parallel MPI-processes    *
           *              working on a common directory               *
           ************************************************************
-------------------------------------------------------------------------------
                                 ORCA SCF
-------------------------------------------------------------------------------

------------
SCF SETTINGS
------------
Hamiltonian:
 Ab initio Hamiltonian  Method          .... Hartree-Fock(GTOs)


General Settings:
 Integral files         IntName         .... 03_ScCl
 Hartree-Fock type      HFTyp           .... RHF
 Total Charge           Charge          ....    0
 Multiplicity           Mult            ....    1
 Number of Electrons    NEL             ....   38
 Basis Dimension        Dim             ....  163
 Nuclear Repulsion      ENuc            ....     84.4983886837 Eh

Convergence Acceleration:
 DIIS                   CNVDIIS         .... on
   Start iteration      DIISMaxIt       ....    12
   Startup error        DIISStart       ....  0.200000
   # of expansion vecs  DIISMaxEq       ....     5
   Bias factor          DIISBfac        ....   1.050
   Max. coefficient     DIISMaxC        ....  10.000
 Newton-Raphson         CNVNR           .... off
 SOSCF                  CNVSOSCF        .... off
 Level Shifting         CNVShift        .... on
   Level shift para.    LevelShift      ....    0.2500
   Turn off err/grad.   ShiftErr        ....    0.0010
 Zerner damping         CNVZerner       .... off
 Static damping         CNVDamp         .... on
   Fraction old density DampFac         ....    0.7000
   Max. Damping (<1)    DampMax         ....    0.9800
   Min. Damping (>=0)   DampMin         ....    0.0000
   Turn off err/grad.   DampErr         ....    0.1000
 Fernandez-Rico         CNVRico         .... off

SCF Procedure:
 Maximum # iterations   MaxIter         ....   125
 SCF integral mode      SCFMode         .... Direct
   Integral package                     .... LIBINT
 Reset frequency        DirectResetFreq ....    20
 Integral Threshold     Thresh          ....  1.000e-12 Eh
 Primitive CutOff       TCut            ....  1.000e-14 Eh

Convergence Tolerance:
 Convergence Check Mode ConvCheckMode   .... Total+1el-Energy
 Convergence forced     ConvForced      .... 1
 Energy Change          TolE            ....  1.000e-09 Eh
 1-El. energy change                    ....  1.000e-06 Eh
 DIIS Error             TolErr          ....  1.000e-08


Diagonalization of the overlap matrix:
Smallest eigenvalue                        ... 3.050e-04
Time for diagonalization                   ...    0.005 sec
Threshold for overlap eigenvalues          ... 1.000e-08
Number of eigenvalues below threshold      ... 0
Time for construction of square roots      ...    0.003 sec
Total time needed                          ...    0.008 sec

---------------------
INITIAL GUESS: MOREAD
---------------------
Guess MOs are being read from file: 03_ScCl.ges
Input Geometry matches current geometry (good)
Atom 0: N(Shells)= 27 and 18 - projection required
Input basis set needs projection
NBasis(read)= 106
NBasis(calc)= 163
Basis set overlap was calculated
Using GuessMode=FMatrix for the initial guess
C*T matrix was formed
Effective Fockian was calculated
Effective Fockian was diagonalized
Initial density was built
                      ------------------
                      INITIAL GUESS DONE (   0.0 sec)
                      ------------------
--------------
SCF ITERATIONS
--------------
ITER       Energy         Delta-E        Max-DP      RMS-DP      [F,P]     Damp
               ***  Starting incremental Fock matrix formation  ***
  0  -1219.3314193830   0.000000000000 0.02470659  0.00061799  0.0555775 0.7000
  1  -1219.3324219922  -0.001002609179 0.01915274  0.00047583  0.0388742 0.7000
                               ***Turning on DIIS***
  2  -1219.3331395774  -0.000717585250 0.04709022  0.00117209  0.0271905 0.0000
  3  -1219.3345121093  -0.001372531834 0.01049543  0.00017575  0.0008687 0.0000
  4  -1219.3341681463   0.000343962939 0.00486704  0.00004786  0.0004098 0.0000
  5  -1219.3360019538  -0.001833807455 0.00219090  0.00002014  0.0000990 0.0000
  6  -1219.3349019254   0.001100028382 0.00096931  0.00000856  0.0000625 0.0000
  7  -1219.3350873413  -0.000185415943 0.00006939  0.00000135  0.0000267 0.0000
  8  -1219.3349488959   0.000138445398 0.00011788  0.00000111  0.0000169 0.0000
  9  -1219.3350220335  -0.000073137585 0.00007305  0.00000090  0.0000097 0.0000
 10  -1219.3349485054   0.000073528159 0.00003285  0.00000039  0.0000032 0.0000
 11  -1219.3348981732   0.000050332172 0.00001796  0.00000019  0.0000008 0.0000
 12  -1219.3348802342   0.000017939012 0.00000682  0.00000006  0.0000002 0.0000
 13  -1219.3348784423   0.000001791922 0.00000115  0.00000001  0.0000001 0.0000
                            ***DIIS convergence achieved***

               *****************************************************
               *                     SUCCESS                       *
               *           SCF CONVERGED AFTER  14 CYCLES          *
               *****************************************************


----------------
TOTAL SCF ENERGY
----------------

Total Energy       :        -1219.33487862 Eh          -33179.78887 eV

Components:
Nuclear Repulsion  :           84.49838868 Eh            2299.31805 eV
Electronic Energy  :        -1303.83326730 Eh          -35479.10693 eV
One Electron Energy:        -1842.67404010 Eh          -50141.70979 eV
Two Electron Energy:          538.84077280 Eh           14662.60286 eV

Virial components:
Potential Energy   :        -2438.67151505 Eh          -66359.62558 eV
Kinetic Energy     :         1219.33663643 Eh           33179.83671 eV
Virial Ratio       :            1.99999856


---------------
SCF CONVERGENCE
---------------

  Last Energy change         ...   -1.7299e-07  Tolerance :   1.0000e-09
  Last MAX-Density change    ...    3.2697e-08  Tolerance :   1.0000e-08
  Last RMS-Density change    ...    7.7697e-10  Tolerance :   1.0000e-09
  Last DIIS Error            ...    1.8668e-08  Tolerance :   1.0000e-08

             **** THE GBW FILE WAS UPDATED (03_ScCl.gbw) ****
             **** DENSITY FILE WAS UPDATED (03_ScCl.scfp) ****
             **** ENERGY FILE WAS UPDATED (03_ScCl.en.tmp) ****
             **** THE GBW FILE WAS UPDATED (03_ScCl.gbw) ****
             **** DENSITY FILE WAS UPDATED (03_ScCl.scfp) ****
----------------
ORBITAL ENERGIES
----------------

  NO   OCC          E(Eh)            E(eV) 
   0   2.0000    -166.027472     -4517.8372 
   1   2.0000    -104.805555     -2851.9041 
   2   2.0000     -19.227951      -523.2191 
   3   2.0000     -15.816112      -430.3783 
   4   2.0000     -15.816112      -430.3783 
   5   2.0000     -15.807650      -430.1480 
   6   2.0000     -10.533160      -286.6219 
   7   2.0000      -7.999422      -217.6753 
   8   2.0000      -7.999005      -217.6640 
   9   2.0000      -7.999005      -217.6640 
  10   2.0000      -2.689138       -73.1752 
  11   2.0000      -1.693826       -46.0913 
  12   2.0000      -1.685280       -45.8588 
  13   2.0000      -1.685280       -45.8588 
  14   2.0000      -1.052997       -28.6535 
  15   2.0000      -0.495339       -13.4788 
  16   2.0000      -0.458690       -12.4816 
  17   2.0000      -0.458690       -12.4816 
  18   2.0000      -0.245565        -6.6822 
  19   0.0000       0.017464         0.4752 
  20   0.0000       0.017464         0.4752 
  21   0.0000       0.019115         0.5201 
  22   0.0000       0.061067         1.6617 
  23   0.0000       0.061067         1.6617 
  24   0.0000       0.062962         1.7133 
  25   0.0000       0.077342         2.1046 
  26   0.0000       0.082419         2.2427 
  27   0.0000       0.082419         2.2427 
  28   0.0000       0.111086         3.0228 
  29   0.0000       0.111086         3.0228 
  30   0.0000       0.118584         3.2268 
  31   0.0000       0.118584         3.2268 
  32   0.0000       0.119046         3.2394 
  33   0.0000       0.122979         3.3464 
  34   0.0000       0.122979         3.3464 
  35   0.0000       0.204766         5.5720 
  36   0.0000       0.294602         8.0165 
  37   0.0000       0.320843         8.7306 
  38   0.0000       0.320843         8.7306 
  39   0.0000       0.327061         8.8998 
  40   0.0000       0.343368         9.3435 
  41   0.0000       0.343368         9.3435 
  42   0.0000       0.347276         9.4499 
  43   0.0000       0.359510         9.7828 
  44   0.0000       0.359510         9.7828 
  45   0.0000       0.376801        10.2533 
  46   0.0000       0.376801        10.2533 
  47   0.0000       0.386632        10.5208 
  48   0.0000       0.386632        10.5208 
  49   0.0000       0.407008        11.0753 
  50   0.0000       0.407008        11.0753 
  51   0.0000       0.419642        11.4191 
  52   0.0000       0.469094        12.7647 
  53   0.0000       0.469094        12.7647 
  54   0.0000       0.556769        15.1505 
  55   0.0000       0.556769        15.1505 
  56   0.0000       0.575865        15.6701 
  57   0.0000       0.658575        17.9207 
  58   0.0000       0.658575        17.9207 
  59   0.0000       0.660910        17.9843 
  60   0.0000       0.660910        17.9843 
  61   0.0000       0.668229        18.1834 
  62   0.0000       0.693987        18.8843 
  63   0.0000       0.693987        18.8843 
  64   0.0000       0.765322        20.8255 
  65   0.0000       0.794042        21.6070 
  66   0.0000       0.794042        21.6070 
  67   0.0000       0.825641        22.4668 
  68   0.0000       0.825641        22.4668 
  69   0.0000       0.897684        24.4272 
  70   0.0000       1.020782        27.7769 
  71   0.0000       1.020782        27.7769 
  72   0.0000       1.033004        28.1095 
  73   0.0000       1.033004        28.1095 
  74   0.0000       1.086692        29.5704 
  75   0.0000       1.086692        29.5704 
  76   0.0000       1.117090        30.3976 
  77   0.0000       1.142531        31.0898 
  78   0.0000       1.230236        33.4764 
  79   0.0000       1.230236        33.4764 
  80   0.0000       1.258349        34.2414 
  81   0.0000       1.258349        34.2414 
  82   0.0000       1.263675        34.3863 
  83   0.0000       1.263675        34.3863 
  84   0.0000       1.427017        38.8311 
  85   0.0000       1.495173        40.6857 
  86   0.0000       1.495173        40.6857 
  87   0.0000       1.503797        40.9204 
  88   0.0000       1.503797        40.9204 
  89   0.0000       1.546260        42.0759 
  90   0.0000       1.615084        43.9487 
  91   0.0000       1.615084        43.9487 
  92   0.0000       1.646972        44.8164 
  93   0.0000       1.657883        45.1133 
  94   0.0000       1.657883        45.1133 
  95   0.0000       1.775404        48.3112 
  96   0.0000       1.775404        48.3112 
  97   0.0000       2.046234        55.6809 
  98   0.0000       2.090940        56.8974 
  99   0.0000       2.090940        56.8974 
 100   0.0000       2.477197        67.4080 
 101   0.0000       2.477197        67.4080 
 102   0.0000       2.479704        67.4762 
 103   0.0000       2.479704        67.4762 
 104   0.0000       2.508126        68.2496 
 105   0.0000       2.508126        68.2496 
 106   0.0000       2.526059        68.7375 
 107   0.0000       2.572370        69.9977 
 108   0.0000       2.714870        73.8754 
 109   0.0000       2.714870        73.8754 
 110   0.0000       2.874081        78.2077 
 111   0.0000       2.989365        81.3447 
 112   0.0000       2.989365        81.3447 
 113   0.0000       3.059193        83.2449 
 114   0.0000       3.059193        83.2449 
 115   0.0000       3.148848        85.6845 
 116   0.0000       3.690052       100.4114 
 117   0.0000       3.690052       100.4114 
 118   0.0000       3.851405       104.8021 
 119   0.0000       3.851405       104.8021 
 120   0.0000       3.903939       106.2316 
 121   0.0000       3.951766       107.5330 
 122   0.0000       3.951766       107.5330 
 123   0.0000       3.952212       107.5451 
 124   0.0000       3.952212       107.5451 
 125   0.0000       4.003887       108.9513 
 126   0.0000       4.003887       108.9513 
 127   0.0000       4.111089       111.8684 
 128   0.0000       4.111089       111.8684 
 129   0.0000       4.252262       115.7099 
 130   0.0000       4.342924       118.1770 
 131   0.0000       4.342924       118.1770 
 132   0.0000       4.352868       118.4476 
 133   0.0000       4.352868       118.4476 
 134   0.0000       4.355097       118.5082 
 135   0.0000       4.355097       118.5082 
 136   0.0000       4.411330       120.0384 
 137   0.0000       4.411330       120.0384 
 138   0.0000       4.498812       122.4189 
 139   0.0000       4.498812       122.4189 
 140   0.0000       4.501141       122.4823 
 141   0.0000       4.501141       122.4823 
 142   0.0000       4.565754       124.2405 
 143   0.0000       4.833913       131.5375 
 144   0.0000       4.971442       135.2798 
 145   0.0000       4.971442       135.2798 
 146   0.0000       5.280905       143.7007 
 147   0.0000       7.007347       190.6796 
 148   0.0000       9.026949       245.6358 
 149   0.0000      11.352281       308.9113 
 150   0.0000      11.352281       308.9113 
 151   0.0000      11.481758       312.4345 
 152   0.0000      11.481758       312.4345 
 153   0.0000      11.574848       314.9676 
 154   0.0000      23.111713       628.9017 
 155   0.0000      29.740542       809.2813 
 156   0.0000      43.321826      1178.8468 
 157   0.0000      43.321826      1178.8468 
 158   0.0000      43.368965      1180.1295 
 159   0.0000      77.221676      2101.3086 
 160   0.0000     100.167961      2725.7088 
 161   0.0000     480.792374     13083.0256 
 162   0.0000     530.338647     14431.2483 

                    ********************************
                    * MULLIKEN POPULATION ANALYSIS *
                    ********************************

-----------------------
MULLIKEN ATOMIC CHARGES
-----------------------
   0 Sc:    0.421351
   1 Cl:   -0.421351
Sum of atomic charges:    0.0000000

--------------------------------
MULLIKEN REDUCED ORBITAL CHARGES
--------------------------------
  0 Scs       :     7.658437  s :     7.658437
      pz      :     4.139413  p :    12.201358
      px      :     4.030973
      py      :     4.030973
      dz2     :     0.515685  d :     0.671666
      dxz     :     0.077990
      dyz     :     0.077990
      dx2y2   :     0.000000
      dxy     :     0.000000
      f0      :     0.010201  f :     0.040285
      f+1     :     0.015042
      f-1     :     0.015042
      f+2     :     0.000000
      f-2     :     0.000000
      f+3     :     0.000000
      f-3     :     0.000000
      g0      :     0.001121  g :     0.006903
      g+1     :     0.002891
      g-1     :     0.002891
      g+2     :     0.000000
      g-2     :     0.000000
      g+3     :     0.000000
      g-3     :     0.000000
      g+4     :     0.000000
      g-4     :     0.000000
  1 Cls       :     5.936807  s :     5.936807
      pz      :     3.719642  p :    11.450472
      px      :     3.865415
      py      :     3.865415
      dz2     :     0.015566  d :     0.029141
      dxz     :     0.006788
      dyz     :     0.006788
      dx2y2   :     0.000000
      dxy     :     0.000000
      f0      :     0.002937  f :     0.004651
      f+1     :     0.000857
      f-1     :     0.000857
      f+2     :     0.000000
      f-2     :     0.000000
      f+3     :     0.000000
      f-3     :     0.000000
      g0      :     0.000191  g :     0.000280
      g+1     :     0.000044
      g-1     :     0.000044
      g+2     :     0.000000
      g-2     :     0.000000
      g+3     :     0.000000
      g-3     :     0.000000
      g+4     :     0.000000
      g-4     :     0.000000


                     *******************************
                     * LOEWDIN POPULATION ANALYSIS *
                     *******************************

----------------------
LOEWDIN ATOMIC CHARGES
----------------------
   0 Sc:   -0.583608
   1 Cl:    0.583608

-------------------------------
LOEWDIN REDUCED ORBITAL CHARGES
-------------------------------
  0 Scs       :     7.517830  s :     7.517830
      pz      :     4.353545  p :    12.481592
      px      :     4.064023
      py      :     4.064023
      dz2     :     0.743262  d :     1.072149
      dxz     :     0.164444
      dyz     :     0.164444
      dx2y2   :     0.000000
      dxy     :     0.000000
      f0      :     0.119295  f :     0.312161
      f+1     :     0.096433
      f-1     :     0.096433
      f+2     :     0.000000
      f-2     :     0.000000
      f+3     :     0.000000
      f-3     :     0.000000
      g0      :     0.059821  g :     0.199875
[...]
Recanonicalizing the internal orbitals
Recanonicalizing the virtual orbitals
Time needed for Fock operator              ...            0.985 sec
Reference energy                           ...  -1219.334878625

------------------------------
PARTIAL COULOMB TRANSFORMATION
------------------------------

Transformation type                        ... one-operator
Dimension of the basis                     ...  163
Number of internal MOs                     ...  153 (10-162)
Pair cutoff                                ... 0.000e+00 Eh
Number of AO pairs included in the trafo   ... 13362
Total Number of distinct AO pairs          ... 13366
Memory devoted for trafo                   ... 2500.0 MB 
Max. Number of MO pairs treated together   ... 24515      
Max. Number of MOs treated per batch       ...  150      
Number Format for Storage                  ... Double (8 Byte)
AO-integral source                         ... DIRECT
Integral package used                      ... LIBINT

Starting integral evaluation:
<ss|**>:       207090 b        0 skpd     0.057 s (  0.000 ms/b)
<sp|**>:       263250 b        0 skpd     0.095 s (  0.000 ms/b)
<sd|**>:       204750 b        0 skpd     0.133 s (  0.001 ms/b)
<sf|**>:       117000 b        0 skpd     0.125 s (  0.001 ms/b)
<sg|**>:        70200 b        0 skpd     0.098 s (  0.001 ms/b)
<pp|**>:        90090 b        0 skpd     0.188 s (  0.002 ms/b)
<pd|**>:       125190 b        0 skpd     0.235 s (  0.002 ms/b)
<pf|**>:        70200 b        0 skpd     0.158 s (  0.002 ms/b)
<pg|**>:        42120 b        0 skpd     0.161 s (  0.004 ms/b)
<dd|**>:        52650 b        0 skpd     0.217 s (  0.004 ms/b)
<df|**>:        52650 b        0 skpd     0.134 s (  0.003 ms/b)
<dg|**>:        31590 b        0 skpd     0.204 s (  0.006 ms/b)
<ff|**>:        17550 b        0 skpd     0.067 s (  0.004 ms/b)
<fg|**>:        17550 b        0 skpd     0.094 s (  0.005 ms/b)
<gg|**>:         7020 b        0 skpd     0.138 s (  0.020 ms/b)
Closing buffer AOJ ( 0.05 GB; CompressionRatio= 1.00)
Collecting buffer AOJ 
    ... done with AO integral generation
Number of MO pairs included in the trafo   ... 11781
    ... Now sorting integrals
IBATCH = 1 of  1
Closing buffer JAO ( 0.05 GB; CompressionRatio= 1.00)
Collecting buffer JAO 
TOTAL TIME for half transformation         ...     2.832 sec
AO-integral generation                     ...     1.865 sec
Half transformation                        ...     0.250 sec
J-integral sorting                         ...     0.522 sec

-------------------------- SECOND HALF TRANSFORMATION -------------------------
Formation of (pq|rs)                       ... ok (     0.429 sec)
Integral sorting                           ... ok (     6.236 sec)

------------------
CLOSED SHELL GUESS
------------------

Initial guess performed in     0.021 sec
E(0)                                       ...  -1219.334878625
E(MP2)                                     ...     -0.519979205
Initial E(tot)                             ...  -1219.854857830
<T|T>                                      ...      0.182451399
Number of pairs included                   ... 45
Total number of pairs                      ... 45

------------------------------------------------
                  RHF COUPLED CLUSTER ITERATIONS
------------------------------------------------

Number of amplitudes to be optimized       ... 934416

Iter       E(tot)           E(Corr)          Delta-E          Residual     Time
  0  -1219.854857830     -0.519979205      0.000000000      0.009017633    0.54
                           *** Turning on DIIS ***
  1  -1219.872669167     -0.537790542     -0.017811337      0.005421495    1.14
  2  -1219.884753061     -0.549874436     -0.012083894      0.003891740    1.16
  3  -1219.887202000     -0.552323376     -0.002448940      0.002878596    1.17
  4  -1219.888624003     -0.553745378     -0.001422002      0.002120868    1.18
  5  -1219.889305096     -0.554426471     -0.000681094      0.001443421    1.19
  6  -1219.889516830     -0.554638205     -0.000211734      0.001018073    1.20
  7  -1219.889603405     -0.554724780     -0.000086575      0.000696691    1.21
  8  -1219.889619082     -0.554740457     -0.000015677      0.000415802    1.24
  9  -1219.889618534     -0.554739909      0.000000548      0.000192388    1.20
 10  -1219.889610016     -0.554731392      0.000008517      0.000085412    1.21
 11  -1219.889612712     -0.554734087     -0.000002695      0.000038313    1.20
 12  -1219.889611517     -0.554732892      0.000001195      0.000018579    1.21
 13  -1219.889610781     -0.554732156      0.000000736      0.000009394    1.20
 14  -1219.889609113     -0.554730488      0.000001668      0.000004432    1.20
 15  -1219.889608511     -0.554729886      0.000000602      0.000001934    1.20
 16  -1219.889608092     -0.554729468      0.000000418      0.000000919    1.21
               --- The Coupled-Cluster iterations have converged ---

----------------------
COUPLED CLUSTER ENERGY
----------------------

E(0)                                       ...  -1219.334878625
E(CORR)                                    ...     -0.554729468
E(TOT)                                     ...  -1219.889608092
Singles Norm <S|S>**1/2                    ...      0.119777391  
T1 diagnostic                              ...      0.028231802  

------------------
LARGEST AMPLITUDES
------------------
  18-> 21  -1-> -1       0.086275
  18-> 21  18-> 21       0.079370
  18-> 19  18-> 19       0.071715
  18-> 20  18-> 20       0.071715
  18-> 22  18-> 22       0.056124
  18-> 23  18-> 23       0.056124
  18-> 27  18-> 20       0.040278
  18-> 20  18-> 27       0.040278
  18-> 26  18-> 19       0.040278
  18-> 19  18-> 26       0.040278
  18-> 24  -1-> -1       0.037808
  18-> 32  -1-> -1       0.033035
  18-> 20  18-> 29       0.031838
  18-> 29  18-> 20       0.031838
  18-> 28  18-> 19       0.031838
  18-> 19  18-> 28       0.031838


        !!!!!!!!!!!!!!!!!!!!!!!!!!!!!!!!!!!!!!!!!!!!!!!!!!!!!!!!!!!!!!!!!!!!!!!!!! 
        !  Warning: Densities are linearized densities !                         !
        !!!!!!!!!!!!!!!!!!!!!!!!!!!!!!!!!!!!!!!!!!!!!!!!!!!!!!!!!!!!!!!!!!!!!!!!!! 

Trace of internal density part =     -0.486120544
Trace of external density part =      0.486120544
----------------------
RHF TRIPLES CORRECTION (Algorithm 1)
----------------------

Multiplier for the singles contribution    ...      1.000000000

10% done
20% done
30% done
40% done
50% done
60% done
70% done
80% done

Triples Correction (T)                     ...     -0.026765316
Scaling of triples based on CCSD energies (Peterson et al. Molecular Physics 113, 1551 (2015))
E(T*) = f*E(T) where f = E(F12-CCSD)/E(CCSD) 
f = CCSD (with F12)/ CCSD (without F12)    ...      1.000000000
Scaled triples correction (T)              ...     -0.026765316

Final correlation energy                   ...     -0.581494784
E(CCSD)                                    ...  -1219.889608092
E(CCSD(T))                                 ...  -1219.916373409

NORM  =      1.257406895 sqrt=     1.121341560
W(HF) =      0.795287511
------------------------------------------------------------------------------
                           ORCA POPULATION ANALYSIS
------------------------------------------------------------------------------
Input electron density              ... 03_ScCl.mdcip
BaseName (.gbw .S,...)              ... 03_ScCl

                    ********************************
                    * MULLIKEN POPULATION ANALYSIS *
                    ********************************

-----------------------
MULLIKEN ATOMIC CHARGES
-----------------------
   0 Sc:    0.309847
   1 Cl:   -0.309847
Sum of atomic charges:    0.0000000

--------------------------------
MULLIKEN REDUCED ORBITAL CHARGES
--------------------------------
  0 Scs       :     7.482645  s :     7.482645
      pz      :     4.083316  p :    12.153197
      px      :     4.034940
      py      :     4.034940
      dz2     :     0.672136  d :     0.990972
      dxz     :     0.129633
      dyz     :     0.129633
      dx2y2   :     0.029785
      dxy     :     0.029785
      f0      :     0.012903  f :     0.055148
      f+1     :     0.017618
      f-1     :     0.017618
      f+2     :     0.001997
      f-2     :     0.001997
      f+3     :     0.001507
      f-3     :     0.001507
      g0      :     0.001274  g :     0.008192
      g+1     :     0.002811
      g-1     :     0.002811
      g+2     :     0.000393
      g-2     :     0.000393
      g+3     :     0.000151
      g-3     :     0.000151
      g+4     :     0.000104
      g-4     :     0.000104
  1 Cls       :     5.912976  s :     5.912976
      pz      :     3.650513  p :    11.243781
      px      :     3.796634
      py      :     3.796634
      dz2     :     0.033137  d :     0.132732
      dxz     :     0.028534
      dyz     :     0.028534
      dx2y2   :     0.021264
      dxy     :     0.021264
      f0      :     0.004486  f :     0.017639
      f+1     :     0.002914
      f-1     :     0.002914
      f+2     :     0.001933
      f-2     :     0.001933
      f+3     :     0.001730
      f-3     :     0.001730
      g0      :     0.000474  g :     0.002718
      g+1     :     0.000336
      g-1     :     0.000336
      g+2     :     0.000281
      g-2     :     0.000281
      g+3     :     0.000261
      g-3     :     0.000261
      g+4     :     0.000244
      g-4     :     0.000244


                     *******************************
                     * LOEWDIN POPULATION ANALYSIS *
                     *******************************

----------------------
LOEWDIN ATOMIC CHARGES
----------------------
   0 Sc:   -0.612938
   1 Cl:    0.612938

-------------------------------
LOEWDIN REDUCED ORBITAL CHARGES
-------------------------------
  0 Scs       :     7.341642  s :     7.341642
      pz      :     4.261324  p :    12.388458
      px      :     4.063567
      py      :     4.063567
      dz2     :     0.893219  d :     1.375592
      dxz     :     0.211347
      dyz     :     0.211347
      dx2y2   :     0.029840
      dxy     :     0.029840
      f0      :     0.119712  f :     0.313149
      f+1     :     0.092951
      f-1     :     0.092951
      f+2     :     0.002259
      f-2     :     0.002259
      f+3     :     0.001509
      f-3     :     0.001509
      g0      :     0.060203  g :     0.194095
      g+1     :     0.065820
      g-1     :     0.065820
      g+2     :     0.000863
      g-2     :     0.000863
      g+3     :     0.000159
      g-3     :     0.000159
      g+4     :     0.000104
      g-4     :     0.000104
  1 Cls       :     5.427112  s :     5.427112
      pz      :     3.666994  p :    10.769907
      px      :     3.551456
      py      :     3.551456
      dz2     :     0.061821  d :     0.152086
      dxz     :     0.024611
      dyz     :     0.024611
      dx2y2   :     0.020521
      dxy     :     0.020521
      f0      :     0.020244  f :     0.034038
      f+1     :     0.003286
      f-1     :     0.003286
      f+2     :     0.001890
      f-2     :     0.001890
      f+3     :     0.001721
      f-3     :     0.001721
      g0      :     0.001587  g :     0.003920
      g+1     :     0.000381
      g-1     :     0.000381
      g+2     :     0.000281
      g-2     :     0.000281
      g+3     :     0.000260
      g-3     :     0.000260
      g+4     :     0.000244
      g-4     :     0.000244


                      *****************************
                      * MAYER POPULATION ANALYSIS *
                      *****************************

  NA   - Mulliken gross atomic population
  ZA   - Total nuclear charge
  QA   - Mulliken gross atomic charge
  VA   - Mayer's total valence
  BVA  - Mayer's bonded valence
  FA   - Mayer's free valence

  ATOM       NA         ZA         QA         VA         BVA        FA
  0 Sc    20.6902    21.0000     0.3098     2.2125     1.1044     1.1081
  1 Cl    17.3098    17.0000    -0.3098     1.7944     1.1044     0.6900

  Mayer bond orders larger than 0.100000
B(  0-Sc,  1-Cl) :   1.1044 



------------------------------------------------------------------------------- 
                                     TIMINGS                                   
------------------------------------------------------------------------------- 


Total execution time                   ...       33.039 sec

Fock Matrix Formation                  ...        0.985 sec (  3.0%)
Initial Guess                          ...        0.021 sec (  0.1%)
DIIS Solver                            ...        1.046 sec (  3.2%)
State Vector Update                    ...        0.049 sec (  0.1%)
Sigma-vector construction              ...       18.555 sec ( 56.2%)
  <0|H|D>                              ...        0.003 sec (  0.0% of sigma)
  <D|H|D>(0-ext)                       ...        0.077 sec (  0.4% of sigma)
  <D|H|D>(2-ext Fock)                  ...        0.008 sec (  0.0% of sigma)
  <D|H|D>(2-ext)                       ...        0.249 sec (  1.3% of sigma)
  <D|H|D>(4-ext)                       ...        1.913 sec ( 10.3% of sigma)
  <D|H|D>(4-ext-corr)                  ...        1.731 sec (  9.3% of sigma)
  <S|H|0>                              ...        0.009 sec (  0.0% of sigma)
  <S|H|S>                              ...        0.014 sec (  0.1% of sigma)
  <S|H|D>(1-ext)                       ...        0.055 sec (  0.3% of sigma)
  <D|H|S>(1-ext)                       ...        0.045 sec (  0.2% of sigma)
  <S|H|D>(3-ext)                       ...        0.830 sec (  4.5% of sigma)
  Fock-dressing                        ...       10.679 sec ( 57.6% of sigma)
  (ik|jl)-dressing                     ...        0.081 sec (  0.4% of sigma)
  (ij|ab),(ia|jb)-dressing             ...        2.403 sec ( 13.0% of sigma)
  Pair energies                        ...        0.006 sec (  0.0% of sigma)
Total Time for computing (T)           ...        1.630 sec (  4.9% of ALL)
  I/O of integral and amplitudes       ...        0.414 sec ( 25.4% of (T))
  N**6 sorting step                    ...        0.400 sec ( 24.6% of (T))
  External N**7 contributions          ...        0.417 sec ( 25.6% of (T))
  Internal N**7 contributions          ...        0.135 sec (  8.3% of (T))
  N**6 triples energy contributions    ...        0.264 sec ( 16.2% of (T))
One-particle density matrix            ...        0.003 sec (  0.0%)


-------------------
EXTRAPOLATED ENERGY
-------------------


-----------------------------------------------------------------
                      EP1 - MDCI extrapolation:
-----------------------------------------------------------------
NOTE: We use as reference SCF energy, for the extrapolation, the one from the MDCI module and not the one 
from the SCF calculation. In case the first step is a DFT calculation these two might be different.

NOTE: For the SCF part we extrapolate based on the scheme proposed in J. Chem. Phys. 2008, 129, 184116
using the exponents from J. Chem. Theory Comput., 7, 33-43 (2011)

NOTE: For the correlation part we extrapolate based on the scheme proposed in J. Chem. Phys. 1997, 106, 9639
using the exponents from J. Chem. Theory Comput., 7, 33-43 (2011)


Alpha(3/4)     :  7.880 (SCF Extrapolation)
Beta(3/4)      :  2.970 (correlation extrapolation)

SCF energy with basis def2-TZVPP:                     -1219.308481528
SCF energy with basis def2-QZVPP:                     -1219.334878625
Extrapolated CBS SCF energy (3/4) :                   -1219.338514526 (-0.003635902) 

MDCI energy with basis def2-TZVPP:                       -0.514480165
MDCI energy with basis def2-QZVPP:                       -0.581494784
Extrapolated CBS correlation energy (3/4) :              -0.631135206 (-0.049640422)

Estimated CBS total energy (3/4) :                    -1219.969649732



-------------------------   --------------------
FINAL SINGLE POINT ENERGY     -1219.969649731852
-------------------------   --------------------


                            ***************************************
                            *     ORCA property calculations      *
                            ***************************************

                                    ---------------------
                                    Active property flags
                                    ---------------------
   (+) Dipole Moment


------------------------------------------------------------------------------
                       ORCA ELECTRIC PROPERTIES CALCULATION
------------------------------------------------------------------------------

Dipole Moment Calculation                       ... on
Quadrupole Moment Calculation                   ... off
Polarizability Calculation                      ... off
GBWName                                         ... 03_ScCl.gbw
Electron density file                           ... 03_ScCl.scfp
The origin for moment calculation is the CENTER OF MASS  = ( 0.000000,  0.000000  1.639975)

-------------
DIPOLE MOMENT
-------------
                                X             Y             Z
Electronic contribution:     -0.00000       0.00000      -2.07070
Nuclear contribution   :      0.00000       0.00000       1.04067
                        -----------------------------------------
Total Dipole Moment    :     -0.00000       0.00000      -1.03003
                        -----------------------------------------
Magnitude (a.u.)       :      1.03003
Magnitude (Debye)      :      2.61814



--------------------
Rotational spectrum 
--------------------
 
Rotational constants in cm-1:     0.000000     0.170138     0.170138 
Rotational constants in MHz :     0.000000  5100.617263  5100.617263 

 Dipole components along the rotational axes: 
x,y,z [a.u.] :    -1.030034     0.000000    -0.000000 
x,y,z [Debye]:    -2.618139     0.000000    -0.000000 

 

                           *** MDCI DENSITY ***

------------------------------------------------------------------------------
                       ORCA ELECTRIC PROPERTIES CALCULATION
------------------------------------------------------------------------------

Dipole Moment Calculation                       ... on
Quadrupole Moment Calculation                   ... off
Polarizability Calculation                      ... off
GBWName                                         ... 03_ScCl.gbw
Electron density file                           ... 03_ScCl.mdcip
The origin for moment calculation is the CENTER OF MASS  = ( 0.000000,  0.000000  1.639975)

-------------
DIPOLE MOMENT
-------------
                                X             Y             Z
Electronic contribution:     -0.00000      -0.00000      -2.18925
Nuclear contribution   :      0.00000       0.00000       1.04067
                        -----------------------------------------
Total Dipole Moment    :     -0.00000      -0.00000      -1.14858
                        -----------------------------------------
Magnitude (a.u.)       :      1.14858
Magnitude (Debye)      :      2.91946



--------------------
Rotational spectrum 
--------------------
 
Rotational constants in cm-1:     0.000000     0.170138     0.170138 
Rotational constants in MHz :     0.000000  5100.617263  5100.617263 

 Dipole components along the rotational axes: 
x,y,z [a.u.] :    -1.148580    -0.000000    -0.000000 
x,y,z [Debye]:    -2.919459    -0.000000    -0.000000 

 

Timings for individual modules:

Sum of individual times         ...       56.514 sec (=   0.942 min)
GTO integral calculation        ...        1.817 sec (=   0.030 min)   3.2 %
SCF iterations                  ...       11.797 sec (=   0.197 min)  20.9 %
MDCI module                     ...       42.900 sec (=   0.715 min)  75.9 %
                             ****ORCA TERMINATED NORMALLY****
TOTAL RUN TIME: 0 days 0 hours 0 minutes 57 seconds 581 msec
