
                                 *****************
                                 * O   R   C   A *
                                 *****************

           --- An Ab Initio, DFT and Semiempirical electronic structure package ---

                  #######################################################
                  #                        -***-                        #
                  #          Department of theory and spectroscopy      #
                  #               Directorship: Frank Neese             #
                  #        Max Planck Institute fuer Kohlenforschung    #
                  #                Kaiser Wilhelm Platz 1               #
                  #                 D-45470 Muelheim/Ruhr               #
                  #                      Germany                        #
                  #                                                     #
                  #                  All rights reserved                #
                  #                        -***-                        #
                  #######################################################


                         Program Version 4.2.0 -  RELEASE  -


 With contributions from (in alphabetic order):
   Daniel Aravena         : Magnetic Suceptibility
   Michael Atanasov       : Ab Initio Ligand Field Theory (pilot matlab implementation)
   Alexander A. Auer      : GIAO ZORA, VPT2
   Ute Becker             : Parallelization
   Giovanni Bistoni       : ED, misc. LED, open-shell LED, HFLED
   Martin Brehm           : Molecular dynamics
   Dmytro Bykov           : SCF Hessian
   Vijay G. Chilkuri      : MRCI spin determinant printing, contributions to CSF-ICE
   Dipayan Datta          : RHF DLPNO-CCSD density
   Achintya Kumar Dutta   : EOM-CC, STEOM-CC
   Dmitry Ganyushin       : Spin-Orbit,Spin-Spin,Magnetic field MRCI
   Miquel Garcia          : C-PCM Hessian, Gaussian charge scheme
   Yang Guo               : DLPNO-NEVPT2, CIM, IAO-localization
   Andreas Hansen         : Spin unrestricted coupled pair/coupled cluster methods
   Benjamin Helmich-Paris : CASSCF linear response (MC-RPA)
   Lee Huntington         : MR-EOM, pCC
   Robert Izsak           : Overlap fitted RIJCOSX, COSX-SCS-MP3, EOM
   Christian Kollmar      : KDIIS, OOCD, Brueckner-CCSD(T), CCSD density
   Simone Kossmann        : Meta GGA functionals, TD-DFT gradient, OOMP2, MP2 Hessian
   Martin Krupicka        : AUTO-CI
   Lucas Lang             : DCDCAS
   Dagmar Lenk            : GEPOL surface, SMD
   Dimitrios Liakos       : Extrapolation schemes; Compound Job, initial MDCI parallelization
   Dimitrios Manganas     : Further ROCIS development; embedding schemes
   Dimitrios Pantazis     : SARC Basis sets
   Taras Petrenko         : DFT Hessian,TD-DFT gradient, ASA, ECA, R-Raman, ABS, FL, XAS/XES, NRVS
   Peter Pinski           : DLPNO-MP2, DLPNO-MP2 Gradient
   Christoph Reimann      : Effective Core Potentials
   Marius Retegan         : Local ZFS, SOC
   Christoph Riplinger    : Optimizer, TS searches, QM/MM, DLPNO-CCSD(T), (RO)-DLPNO pert. Triples
   Tobias Risthaus        : Range-separated hybrids, TD-DFT gradient, RPA, STAB
   Michael Roemelt        : Original ROCIS implementation
   Masaaki Saitow         : Open-shell DLPNO-CCSD energy and density
   Barbara Sandhoefer     : DKH picture change effects
   Avijit Sen             : IP-ROCIS
   Kantharuban Sivalingam : CASSCF convergence, NEVPT2, FIC-MRCI
   Bernardo de Souza      : ESD, SOC TD-DFT
   Georgi Stoychev        : AutoAux, RI-MP2 NMR
   Willem Van den Heuvel  : Paramagnetic NMR
   Boris Wezisla          : Elementary symmetry handling
   Frank Wennmohs         : Technical directorship


 We gratefully acknowledge several colleagues who have allowed us to
 interface, adapt or use parts of their codes:
   Stefan Grimme, W. Hujo, H. Kruse,             : VdW corrections, initial TS optimization,
                  C. Bannwarth                     DFT functionals, gCP, sTDA/sTD-DF
   Ed Valeev, F. Pavosevic, A. Kumar             : LibInt (2-el integral package), F12 methods
   Garnet Chan, S. Sharma, J. Yang, R. Olivares  : DMRG
   Ulf Ekstrom                                   : XCFun DFT Library
   Mihaly Kallay                                 : mrcc  (arbitrary order and MRCC methods)
   Andreas Klamt, Michael Diedenhofen            : otool_cosmo (COSMO solvation model)
   Jiri Pittner, Ondrej Demel                    : Mk-CCSD
   Frank Weinhold                                : gennbo (NPA and NBO analysis)
   Christopher J. Cramer and Donald G. Truhlar   : smd solvation model
   Lars Goerigk                                  : TD-DFT with DH, B97 family of functionals
   V. Asgeirsson, H. Jonsson                     : NEB implementation
   FAccTs GmbH                                   : IRC, NEB, NEB-TS, Multilevel, MM, QM/MM, CI optimization
   S Lehtola, MJT Oliveira, MAL Marques          : LibXC Library


 Your calculation uses the libint2 library for the computation of 2-el integrals
 For citations please refer to: http://libint.valeyev.net

 Your ORCA version has been built with support for libXC version: 4.2.3
 For citations please refer to: https://tddft.org/programs/libxc/

 This ORCA versions uses:
   CBLAS   interface :  Fast vector & matrix operations
   LAPACKE interface :  Fast linear algebra routines
   SCALAPACK package :  Parallel linear algebra routines


----- Orbital basis set information -----
Your calculation utilizes the basis: def2-TZVPP
   F. Weigend and R. Ahlrichs, Phys. Chem. Chem. Phys. 7, 3297 (2005).

================================================================================
                                        WARNINGS
                       Please study these warnings very carefully!
================================================================================


WARNING: your system is open-shell and RHF/RKS was chosen
  ===> : WILL SWITCH to UHF/UKS


WARNING: MDCI localization with Augmented Hessian Foster-Boys
  ===> : Switching off randomization!

WARNING: Post HF methods need fully converged wavefunctions
  ===> : Setting SCFConvForced true
         You can overwrite this default with %scf ConvForced false 


INFO   : the flag for use of LIBINT has been found!

================================================================================
                                       INPUT FILE
================================================================================
NAME = 05_ScO.in
|  1> #
|  2> # 05_ScO ccsd(t)/cbs
|  3> #
|  4> ! ccsd(t) extrapolate(3/4,def2) verytightscf
|  5> 
|  6> *xyz 0 2
|  7>   Sc  0.00000000000000      0.00000000000000      0.16492994527036
|  8>   O   0.00000000000000      0.00000000000000      1.83507005472964
|  9> *
| 10> 
| 11> %maxcore 5000
| 12> %pal
| 13> nprocs 24
| 14> end
| 15> 
| 16> 
| 17>                          ****END OF INPUT****
================================================================================

                   *****************************************
                   * Extrapolated Single Point Calculation *
                   *****************************************

----- Orbital basis set information -----
Your calculation utilizes the basis: def2-TZVPP
   F. Weigend and R. Ahlrichs, Phys. Chem. Chem. Phys. 7, 3297 (2005).

----- AuxJ basis set information -----
Your calculation utilizes the auxiliary basis: def2/J
   F. Weigend, Phys. Chem. Chem. Phys. 8, 1057 (2006).

----- AuxC basis set information -----
Your calculation utilizes the auxiliary basis: def2-TZVPP/C
  H-La, Hf-Rn : A. Hellweg, C. Hattig, S. Hofener and W. Klopper, Theor. Chem. Acc. 117, 587 (2007).
        Ce-Lu : J. Chmela and M. E. Harding, Mol. Phys. (2018).

----- AuxJK basis set information -----
Your calculation utilizes the auxiliary basis: def2/JK
   H-Ba, Hf-Rn: F. Weigend, J. Comput. Chem. 29, 167 (2008).

All done

                     -----------------------------------------
                     Extrapolated Energy 1 Basis=  def2-TZVPP
                     -----------------------------------------

---------------------------------
CARTESIAN COORDINATES (ANGSTROEM)
---------------------------------
  Sc     0.000000    0.000000    0.164930
  O      0.000000    0.000000    1.835070

----------------------------
CARTESIAN COORDINATES (A.U.)
----------------------------
  NO LB      ZA    FRAG     MASS         X           Y           Z
   0 Sc   21.0000    0    44.960    0.000000    0.000000    0.311672
   1 O     8.0000    0    15.999    0.000000    0.000000    3.467780

--------------------------------
INTERNAL COORDINATES (ANGSTROEM)
--------------------------------
 Sc     0   0   0     0.000000000000     0.00000000     0.00000000
 O      1   0   0     1.670140109459     0.00000000     0.00000000

---------------------------
INTERNAL COORDINATES (A.U.)
---------------------------
 Sc     0   0   0     0.000000000000     0.00000000     0.00000000
 O      1   0   0     3.156107412155     0.00000000     0.00000000

---------------------
BASIS SET INFORMATION
---------------------
There are 2 groups of distinct atoms

 Group   1 Type Sc  : 17s12p7d2f1g contracted to 6s5p4d2f1g pattern {842111/63111/4111/11/1}
 Group   2 Type O   : 11s6p2d1f contracted to 5s3p2d1f pattern {62111/411/11/1}

Atom   0Sc   basis set group =>   1
Atom   1O    basis set group =>   2
---------------------------------
AUXILIARY/J BASIS SET INFORMATION
---------------------------------
There are 2 groups of distinct atoms

 Group   1 Type Sc  : 19s5p5d3f3g contracted to 8s5p5d2f3g pattern {121111111/11111/11111/21/111}
 Group   2 Type O   : 12s5p4d2f1g contracted to 6s4p3d1f1g pattern {711111/2111/211/2/1}

Atom   0Sc   basis set group =>   1
Atom   1O    basis set group =>   2
---------------------------------
AUXILIARY/C BASIS SET INFORMATION
---------------------------------
There are 2 groups of distinct atoms

 Group   1 Type Sc  : 9s9p8d7f5g3h1i contracted to 9s9p8d7f5g3h1i pattern {111111111/111111111/11111111/1111111/11111/111/1}
 Group   2 Type O   : 8s6p5d3f1g contracted to 8s6p4d3f1g pattern {11111111/111111/2111/111/1}

Atom   0Sc   basis set group =>   1
Atom   1O    basis set group =>   2
----------------------------------
AUXILIARY/JK BASIS SET INFORMATION
----------------------------------
There are 2 groups of distinct atoms

 Group   1 Type Sc  : 19s14p12d10f7g3h1i contracted to 16s13p11d9f5g3h1i pattern {4111111111111111/2111111111111/21111111111/211111111/31111/111/1}
 Group   2 Type O   : 14s10p6d2f1g contracted to 10s8p4d2f1g pattern {5111111111/31111111/3111/11/1}

Atom   0Sc   basis set group =>   1
Atom   1O    basis set group =>   2


           ************************************************************
           *        Program running with 24 parallel MPI-processes    *
           *              working on a common directory               *
           ************************************************************
------------------------------------------------------------------------------
                           ORCA GTO INTEGRAL CALCULATION
------------------------------------------------------------------------------

                         BASIS SET STATISTICS AND STARTUP INFO

 # of primitive gaussian shells          ...   59
 # of primitive gaussian functions       ...  157
 # of contracted shells                  ...   29
 # of contracted basis functions         ...   95
 Highest angular momentum                ...    4
 Maximum contraction depth               ...    8
 Integral package used                   ... LIBINT
 Integral threshhold            Thresh   ...  1.000e-12
 Primitive cut-off              TCut     ...  1.000e-14


------------------------------ INTEGRAL EVALUATION ----------------------------


 * One electron integrals 
 Pre-screening matrix                    ... done
 Shell pair data                         ... done (   0.000 sec)



           ************************************************************
           *        Program running with 24 parallel MPI-processes    *
           *              working on a common directory               *
           ************************************************************
-------------------------------------------------------------------------------
                                 ORCA SCF
-------------------------------------------------------------------------------

------------
SCF SETTINGS
------------
Hamiltonian:
 Ab initio Hamiltonian  Method          .... Hartree-Fock(GTOs)


General Settings:
 Integral files         IntName         .... 05_ScO
 Hartree-Fock type      HFTyp           .... UHF
 Total Charge           Charge          ....    0
 Multiplicity           Mult            ....    2
 Number of Electrons    NEL             ....   29
 Basis Dimension        Dim             ....   95
 Nuclear Repulsion      ENuc            ....     53.2301275150 Eh

Convergence Acceleration:
 DIIS                   CNVDIIS         .... on
   Start iteration      DIISMaxIt       ....    12
   Startup error        DIISStart       ....  0.200000
   # of expansion vecs  DIISMaxEq       ....     5
   Bias factor          DIISBfac        ....   1.050
   Max. coefficient     DIISMaxC        ....  10.000
 Newton-Raphson         CNVNR           .... off
 SOSCF                  CNVSOSCF        .... off
 Level Shifting         CNVShift        .... on
   Level shift para.    LevelShift      ....    0.2500
   Turn off err/grad.   ShiftErr        ....    0.0010
 Zerner damping         CNVZerner       .... off
 Static damping         CNVDamp         .... on
   Fraction old density DampFac         ....    0.7000
   Max. Damping (<1)    DampMax         ....    0.9800
   Min. Damping (>=0)   DampMin         ....    0.0000
   Turn off err/grad.   DampErr         ....    0.1000
 Fernandez-Rico         CNVRico         .... off

SCF Procedure:
 Maximum # iterations   MaxIter         ....   125
 SCF integral mode      SCFMode         .... Direct
   Integral package                     .... LIBINT
 Reset frequency        DirectResetFreq ....    20
 Integral Threshold     Thresh          ....  1.000e-12 Eh
 Primitive CutOff       TCut            ....  1.000e-14 Eh

Convergence Tolerance:
 Convergence Check Mode ConvCheckMode   .... Total+1el-Energy
 Convergence forced     ConvForced      .... 1
 Energy Change          TolE            ....  1.000e-09 Eh
 1-El. energy change                    ....  1.000e-06 Eh
 DIIS Error             TolErr          ....  1.000e-08


Diagonalization of the overlap matrix:
Smallest eigenvalue                        ... 1.153e-03
Time for diagonalization                   ...    0.003 sec
Threshold for overlap eigenvalues          ... 1.000e-08
Number of eigenvalues below threshold      ... 0
Time for construction of square roots      ...    0.001 sec
Total time needed                          ...    0.005 sec

-------------------
DFT GRID GENERATION
-------------------

General Integration Accuracy     IntAcc      ...  4.340
Radial Grid Type                 RadialGrid  ... Gauss-Chebyshev
Angular Grid (max. acc.)         AngularGrid ... Lebedev-110
Angular grid pruning method      GridPruning ... 3 (G Style)
Weight generation scheme         WeightScheme... Becke
Basis function cutoff            BFCut       ...    1.0000e-12
Integration weight cutoff        WCut        ...    1.0000e-14
Grids for H and He will be reduced by one unit

# of grid points (after initial pruning)     ...   4688 (   0.0 sec)
# of grid points (after weights+screening)   ...   4661 (   0.0 sec)
nearest neighbour list constructed           ...    0.0 sec
Grid point re-assignment to atoms done       ...    0.0 sec
Grid point division into batches done        ...    0.0 sec
Reduced shell lists constructed in    0.0 sec

Total number of grid points                  ...     4661
Total number of batches                      ...       74
Average number of points per batch           ...       62
Average number of grid points per atom       ...     2330
Average number of shells per batch           ...    11.20 (38.62%)
Average number of basis functions per batch  ...    43.20 (45.47%)
Average number of large shells per batch     ...     8.00 (71.43%)
Average number of large basis fcns per batch ...    30.40 (70.37%)
Maximum spatial batch extension              ...  21.18, 31.13, 17.09 au
Average spatial batch extension              ...   1.09,  1.42,  0.92 au

Time for grid setup =    0.022 sec

------------------------------
INITIAL GUESS: MODEL POTENTIAL
------------------------------
Loading Hartree-Fock densities                     ... done
Calculating cut-offs                               ... done
Setting up the integral package                    ... done
Initializing the effective Hamiltonian             ... done
Starting the Coulomb interaction                   ... done (   0.0 sec)
Reading the grid                                   ... done
Mapping shells                                     ... done
Starting the XC term evaluation                    ... done (   0.0 sec)
Transforming the Hamiltonian                       ... done (   0.0 sec)
Diagonalizing the Hamiltonian                      ... done (   0.0 sec)
Back transforming the eigenvectors                 ... done (   0.0 sec)
Now organizing SCF variables                       ... done
                      ------------------
                      INITIAL GUESS DONE (   0.1 sec)
                      ------------------
--------------
SCF ITERATIONS
--------------
ITER       Energy         Delta-E        Max-DP      RMS-DP      [F,P]     Damp
               ***  Starting incremental Fock matrix formation  ***
  0   -834.3238856186   0.000000000000 0.03843532  0.00123636  0.5333526 0.7000
  1   -834.4651336943  -0.141248075612 0.02323192  0.00079288  0.2636457 0.7000
                               ***Turning on DIIS***
  2   -834.5209673929  -0.055833698688 0.01532242  0.00042076  0.1694706 0.7000
  3   -834.7291674400  -0.208200047046 0.01334112  0.00029107  0.1272060 0.7000
  4   -834.9026912012  -0.173523761215 0.04168961  0.00087286  0.0900671 0.0000
  5   -834.6766749954   0.226016205766 0.01211026  0.00027274  0.0111655 0.0000
  6   -834.6540939852   0.022581010249 0.01175033  0.00025019  0.0087618 0.0000
  7   -834.7020967357  -0.048002750527 0.01313365  0.00030626  0.0072073 0.0000
  8   -834.6892316824   0.012865053286 0.01027023  0.00023283  0.0056952 0.0000
  9   -834.7012824544  -0.012050772007 0.00959151  0.00021733  0.0042002 0.0000
 10   -834.6829843004   0.018298154015 0.00605425  0.00013768  0.0025711 0.0000
 11   -834.6764437510   0.006540549437 0.00564498  0.00009493  0.0015756 0.0000
 12   -834.6662892414   0.010154509618 0.00865306  0.00010898  0.0009725 0.0000
 13   -834.6551167993   0.011172442037 0.00227614  0.00002471  0.0004311 0.0000
 14   -834.6558670023  -0.000750202951 0.00129575  0.00001424  0.0001387 0.0000
 15   -834.6562103617  -0.000343359453 0.00094758  0.00001085  0.0001362 0.0000
 16   -834.6558136108   0.000396750918 0.00019689  0.00000429  0.0000295 0.0000
 17   -834.6557448844   0.000068726419 0.00008119  0.00000357  0.0000242 0.0000
 18   -834.6557331149   0.000011769474 0.00006715  0.00000278  0.0000131 0.0000
 19   -834.6557841305  -0.000051015575 0.00007148  0.00000291  0.0000078 0.0000
               *** Restarting incremental Fock matrix formation ***
                                   *** Resetting DIIS ***
 20   -834.6556949907   0.000089139787 0.00002450  0.00000096  0.0000050 0.0000
 21   -834.6556963942  -0.000001403467 0.00002137  0.00000087  0.0000052 0.0000
 22   -834.6557348549  -0.000038460725 0.00004640  0.00000182  0.0000054 0.0000
 23   -834.6558012025  -0.000066347621 0.00009502  0.00000371  0.0000029 0.0000
 24   -834.6557177502   0.000083452283 0.00001884  0.00000072  0.0000012 0.0000
 25   -834.6556936373   0.000024112965 0.00000576  0.00000014  0.0000006 0.0000
 26   -834.6556918149   0.000001822344 0.00000414  0.00000016  0.0000003 0.0000
 27   -834.6556927299  -0.000000914962 0.00000271  0.00000010  0.0000001 0.0000
 28   -834.6556952917  -0.000002561821 0.00000044  0.00000001  0.0000001 0.0000
 29   -834.6556944513   0.000000840472 0.00000098  0.00000003  0.0000000 0.0000
 30   -834.6556953747  -0.000000923424 0.00000032  0.00000001  0.0000000 0.0000
 31   -834.6556953979  -0.000000023247 0.00000032  0.00000001  0.0000000 0.0000
                            ***DIIS convergence achieved***

               *****************************************************
               *                     SUCCESS                       *
               *           SCF CONVERGED AFTER  32 CYCLES          *
               *****************************************************


----------------
TOTAL SCF ENERGY
----------------

Total Energy       :         -834.65569549 Eh          -22712.13614 eV

Components:
Nuclear Repulsion  :           53.23012751 Eh            1448.46541 eV
Electronic Energy  :         -887.88582301 Eh          -24160.60155 eV
One Electron Energy:        -1250.30751911 Eh          -34022.59727 eV
Two Electron Energy:          362.42169611 Eh            9861.99573 eV

Virial components:
Potential Energy   :        -1669.18811324 Eh          -45420.91772 eV
Kinetic Energy     :          834.53241775 Eh           22708.78158 eV
Virial Ratio       :            2.00014772


---------------
SCF CONVERGENCE
---------------

  Last Energy change         ...   -9.2295e-08  Tolerance :   1.0000e-09
  Last MAX-Density change    ...    3.9751e-07  Tolerance :   1.0000e-08
  Last RMS-Density change    ...    1.3667e-08  Tolerance :   1.0000e-09
  Last DIIS Error            ...    1.2912e-08  Tolerance :   1.0000e-08

             **** THE GBW FILE WAS UPDATED (05_ScO.gbw) ****
             **** DENSITY FILE WAS UPDATED (05_ScO.scfp) ****
             **** ENERGY FILE WAS UPDATED (05_ScO.en.tmp) ****
----------------------
UHF SPIN CONTAMINATION
----------------------

Expectation value of <S**2>     :     0.755443
Ideal value S*(S+1) for S=0.5   :     0.750000
Deviation                       :     0.005443

             **** THE GBW FILE WAS UPDATED (05_ScO.gbw) ****
             **** DENSITY FILE WAS UPDATED (05_ScO.scfp) ****
----------------
ORBITAL ENERGIES
----------------
                 SPIN UP ORBITALS
  NO   OCC          E(Eh)            E(eV) 
   0   1.0000    -165.945108     -4515.5960 
   1   1.0000     -20.470811      -557.0391 
   2   1.0000     -19.137787      -520.7657 
   3   1.0000     -15.724827      -427.8943 
   4   1.0000     -15.724827      -427.8943 
   5   1.0000     -15.723031      -427.8454 
   6   1.0000      -2.618077       -71.2415 
   7   1.0000      -1.660979       -45.1975 
   8   1.0000      -1.622307       -44.1452 
   9   1.0000      -1.622307       -44.1452 
  10   1.0000      -1.105567       -30.0840 
  11   1.0000      -0.423394       -11.5211 
  12   1.0000      -0.414919       -11.2905 
  13   1.0000      -0.414919       -11.2905 
  14   1.0000      -0.248127        -6.7519 
  15   0.0000       0.014571         0.3965 
  16   0.0000       0.014571         0.3965 
  17   0.0000       0.046901         1.2762 
  18   0.0000       0.074974         2.0401 
  19   0.0000       0.074974         2.0401 
  20   0.0000       0.111845         3.0434 
  21   0.0000       0.140503         3.8233 
  22   0.0000       0.140503         3.8233 
  23   0.0000       0.163934         4.4609 
  24   0.0000       0.163934         4.4609 
  25   0.0000       0.166856         4.5404 
  26   0.0000       0.191619         5.2142 
  27   0.0000       0.191619         5.2142 
  28   0.0000       0.224718         6.1149 
  29   0.0000       0.312754         8.5105 
  30   0.0000       0.312754         8.5105 
  31   0.0000       0.384664        10.4672 
  32   0.0000       0.396219        10.7817 
  33   0.0000       0.396219        10.7817 
  34   0.0000       0.405206        11.0262 
  35   0.0000       0.405206        11.0262 
  36   0.0000       0.442738        12.0475 
  37   0.0000       0.442738        12.0475 
  38   0.0000       0.489591        13.3224 
  39   0.0000       0.527879        14.3643 
  40   0.0000       0.527879        14.3643 
  41   0.0000       0.554172        15.0798 
  42   0.0000       0.599763        16.3204 
  43   0.0000       0.599763        16.3204 
  44   0.0000       0.844665        22.9845 
  45   0.0000       0.858788        23.3688 
  46   0.0000       0.858788        23.3688 
  47   0.0000       1.096738        29.8438 
  48   0.0000       1.149697        31.2848 
  49   0.0000       1.149697        31.2848 
  50   0.0000       1.153012        31.3751 
  51   0.0000       1.153012        31.3751 
  52   0.0000       1.171629        31.8816 
  53   0.0000       1.171629        31.8816 
  54   0.0000       1.260725        34.3061 
  55   0.0000       1.301630        35.4192 
  56   0.0000       1.301630        35.4192 
  57   0.0000       1.451130        39.4873 
  58   0.0000       1.451130        39.4873 
  59   0.0000       1.485428        40.4206 
  60   0.0000       1.485428        40.4206 
  61   0.0000       1.491649        40.5898 
  62   0.0000       1.491649        40.5898 
  63   0.0000       1.510240        41.0957 
  64   0.0000       1.559286        42.4303 
  65   0.0000       1.559286        42.4303 
  66   0.0000       1.665941        45.3326 
  67   0.0000       1.721674        46.8491 
  68   0.0000       1.828672        49.7607 
  69   0.0000       1.828672        49.7607 
  70   0.0000       1.839815        50.0639 
  71   0.0000       1.839815        50.0639 
  72   0.0000       2.145868        58.3920 
  73   0.0000       2.145868        58.3920 
  74   0.0000       2.325158        63.2708 
  75   0.0000       2.633182        71.6525 
  76   0.0000       2.633182        71.6525 
  77   0.0000       2.755341        74.9766 
  78   0.0000       3.365546        91.5812 
  79   0.0000       3.365546        91.5812 
  80   0.0000       3.565562        97.0239 
  81   0.0000       4.445512       120.9685 
  82   0.0000       5.681908       154.6126 
  83   0.0000       5.681908       154.6126 
  84   0.0000       5.731487       155.9617 
  85   0.0000       5.731487       155.9617 
  86   0.0000       5.855686       159.3413 
  87   0.0000       5.855686       159.3413 
  88   0.0000       6.091348       165.7540 
  89   0.0000       6.983539       190.0318 
  90   0.0000       6.983539       190.0318 
  91   0.0000       7.287537       198.3040 
  92   0.0000       7.287537       198.3040 
  93   0.0000       7.397700       201.3017 
  94   0.0000      45.372638      1234.6522 

                 SPIN DOWN ORBITALS
  NO   OCC          E(Eh)            E(eV) 
   0   1.0000    -165.943446     -4515.5507 
   1   1.0000     -20.474929      -557.1511 
   2   1.0000     -19.134168      -520.6672 
   3   1.0000     -15.723349      -427.8541 
   4   1.0000     -15.723349      -427.8541 
   5   1.0000     -15.719695      -427.7546 
   6   1.0000      -2.606232       -70.9192 
   7   1.0000      -1.644993       -44.7625 
   8   1.0000      -1.616836       -43.9964 
   9   1.0000      -1.616836       -43.9964 
  10   1.0000      -1.117075       -30.3971 
  11   1.0000      -0.435191       -11.8422 
  12   1.0000      -0.425520       -11.5790 
  13   1.0000      -0.425520       -11.5790 
  14   0.0000      -0.005209        -0.1417 
  15   0.0000       0.059874         1.6292 
  16   0.0000       0.059874         1.6292 
  17   0.0000       0.080885         2.2010 
  18   0.0000       0.090875         2.4728 
  19   0.0000       0.090875         2.4728 
  20   0.0000       0.141167         3.8414 
  21   0.0000       0.145445         3.9578 
  22   0.0000       0.145445         3.9578 
  23   0.0000       0.170875         4.6498 
  24   0.0000       0.170875         4.6498 
  25   0.0000       0.174183         4.7397 
  26   0.0000       0.203178         5.5288 
  27   0.0000       0.203178         5.5288 
  28   0.0000       0.246040         6.6951 
  29   0.0000       0.336012         9.1434 
  30   0.0000       0.336012         9.1434 
  31   0.0000       0.400177        10.8894 
  32   0.0000       0.408941        11.1279 
  33   0.0000       0.408941        11.1279 
  34   0.0000       0.420000        11.4288 
  35   0.0000       0.420000        11.4288 
  36   0.0000       0.461116        12.5476 
  37   0.0000       0.461116        12.5476 
  38   0.0000       0.507906        13.8208 
  39   0.0000       0.538019        14.6402 
  40   0.0000       0.538019        14.6402 
  41   0.0000       0.566341        15.4109 
  42   0.0000       0.607251        16.5242 
  43   0.0000       0.607251        16.5242 
  44   0.0000       0.846002        23.0209 
  45   0.0000       0.856884        23.3170 
  46   0.0000       0.856884        23.3170 
  47   0.0000       1.100779        29.9537 
  48   0.0000       1.159855        31.5613 
  49   0.0000       1.159855        31.5613 
  50   0.0000       1.163785        31.6682 
  51   0.0000       1.163785        31.6682 
  52   0.0000       1.182527        32.1782 
  53   0.0000       1.182527        32.1782 
  54   0.0000       1.274643        34.6848 
  55   0.0000       1.315258        35.7900 
  56   0.0000       1.315258        35.7900 
  57   0.0000       1.459741        39.7216 
  58   0.0000       1.459741        39.7216 
  59   0.0000       1.493147        40.6306 
  60   0.0000       1.493147        40.6306 
  61   0.0000       1.500285        40.8248 
  62   0.0000       1.500285        40.8248 
  63   0.0000       1.515968        41.2516 
  64   0.0000       1.564966        42.5849 
  65   0.0000       1.564966        42.5849 
  66   0.0000       1.684720        45.8436 
  67   0.0000       1.731848        47.1260 
  68   0.0000       1.835809        49.9549 
  69   0.0000       1.835809        49.9549 
  70   0.0000       1.846437        50.2441 
  71   0.0000       1.846437        50.2441 
  72   0.0000       2.143843        58.3369 
  73   0.0000       2.143843        58.3369 
  74   0.0000       2.326983        63.3204 
  75   0.0000       2.630625        71.5829 
  76   0.0000       2.630625        71.5829 
  77   0.0000       2.752793        74.9073 
  78   0.0000       3.361013        91.4578 
  79   0.0000       3.361013        91.4578 
  80   0.0000       3.561050        96.9011 
  81   0.0000       4.442688       120.8917 
  82   0.0000       5.678534       154.5208 
  83   0.0000       5.678534       154.5208 
  84   0.0000       5.727945       155.8653 
  85   0.0000       5.727945       155.8653 
  86   0.0000       5.852311       159.2495 
  87   0.0000       5.852311       159.2495 
  88   0.0000       6.088379       165.6732 
  89   0.0000       6.977070       189.8557 
  90   0.0000       6.977070       189.8557 
  91   0.0000       7.280905       198.1235 
  92   0.0000       7.280905       198.1235 
  93   0.0000       7.391222       201.1254 
  94   0.0000      45.370356      1234.5902 

                    ********************************
                    * MULLIKEN POPULATION ANALYSIS *
                    ********************************

--------------------------------------------
MULLIKEN ATOMIC CHARGES AND SPIN POPULATIONS
--------------------------------------------
   0 Sc:    0.657267    1.100818
   1 O :   -0.657267   -0.100818
Sum of atomic charges         :    0.0000000
Sum of atomic spin populations:    1.0000000

-----------------------------------------------------
MULLIKEN REDUCED ORBITAL CHARGES AND SPIN POPULATIONS
-----------------------------------------------------
CHARGE
  0 Scs       :     6.828243  s :     6.828243
      pz      :     4.200753  p :    12.321634
      px      :     4.060440
      py      :     4.060440
      dz2     :     0.468786  d :     1.087304
      dxz     :     0.309259
      dyz     :     0.309259
      dx2y2   :     0.000000
      dxy     :     0.000000
      f0      :     0.019100  f :     0.090171
      f+1     :     0.035535
      f-1     :     0.035535
      f+2     :     0.000000
      f-2     :     0.000000
      f+3     :     0.000000
      f-3     :     0.000000
      g0      :     0.001405  g :     0.015380
      g+1     :     0.006988
      g-1     :     0.006988
      g+2     :     0.000000
      g-2     :     0.000000
      g+3     :     0.000000
      g-3     :     0.000000
      g+4     :     0.000000
      g-4     :     0.000000
  1 O s       :     3.907143  s :     3.907143
      pz      :     1.566740  p :     4.729971
      px      :     1.581615
      py      :     1.581615
      dz2     :     0.007328  d :     0.019242
      dxz     :     0.005957
      dyz     :     0.005957
      dx2y2   :     0.000000
      dxy     :     0.000000
      f0      :     0.000501  f :     0.000911
      f+1     :     0.000205
      f-1     :     0.000205
      f+2     :     0.000000
      f-2     :     0.000000
      f+3     :     0.000000
      f-3     :     0.000000

SPIN
  0 Scs       :     0.803111  s :     0.803111
      pz      :     0.184647  p :     0.196590
      px      :     0.005971
      py      :     0.005971
      dz2     :     0.061951  d :     0.102840
      dxz     :     0.020444
      dyz     :     0.020444
      dx2y2   :    -0.000000
      dxy     :    -0.000000
      f0      :     0.000230  f :    -0.001407
      f+1     :    -0.000819
      f-1     :    -0.000819
      f+2     :    -0.000000
      f-2     :    -0.000000
      f+3     :    -0.000000
      f-3     :    -0.000000
      g0      :     0.000045  g :    -0.000315
      g+1     :    -0.000180
      g-1     :    -0.000180
      g+2     :    -0.000000
      g-2     :    -0.000000
      g+3     :    -0.000000
      g-3     :    -0.000000
      g+4     :     0.000000
      g-4     :     0.000000
  1 O s       :    -0.006226  s :    -0.006226
      pz      :    -0.044426  p :    -0.095606
      px      :    -0.025590
      py      :    -0.025590
      dz2     :     0.000630  d :     0.000972
      dxz     :     0.000171
      dyz     :     0.000171
      dx2y2   :     0.000000
      dxy     :     0.000000
      f0      :     0.000037  f :     0.000043
      f+1     :     0.000003
      f-1     :     0.000003
      f+2     :    -0.000000
      f-2     :     0.000000
      f+3     :    -0.000000
      f-3     :     0.000000


                     *******************************
                     * LOEWDIN POPULATION ANALYSIS *
                     *******************************

-------------------------------------------
LOEWDIN ATOMIC CHARGES AND SPIN POPULATIONS
-------------------------------------------
   0 Sc:    0.026864    1.062316
   1 O :   -0.026864   -0.062316

----------------------------------------------------
LOEWDIN REDUCED ORBITAL CHARGES AND SPIN POPULATIONS
----------------------------------------------------
CHARGE
  0 Scs       :     6.757509  s :     6.757509
      pz      :     4.326471  p :    12.470342
      px      :     4.071936
      py      :     4.071936
      dz2     :     0.627588  d :     1.342267
      dxz     :     0.357340
      dyz     :     0.357340
      dx2y2   :     0.000000
      dxy     :     0.000000
      f0      :     0.112859  f :     0.266025
      f+1     :     0.076583
      f-1     :     0.076583
      f+2     :     0.000000
      f-2     :     0.000000
      f+3     :     0.000000
      f-3     :     0.000000
      g0      :     0.044385  g :     0.136992
      g+1     :     0.046304
      g-1     :     0.046304
      g+2     :     0.000000
      g-2     :     0.000000
      g+3     :     0.000000
      g-3     :     0.000000
      g+4     :     0.000000
      g-4     :     0.000000
  1 O s       :     3.504260  s :     3.504260
      pz      :     1.588342  p :     4.472677
      px      :     1.442168
      py      :     1.442168
      dz2     :     0.036035  d :     0.046719
      dxz     :     0.005342
      dyz     :     0.005342
      dx2y2   :     0.000000
      dxy     :     0.000000
      f0      :     0.002551  f :     0.003208
      f+1     :     0.000328
      f-1     :     0.000328
      f+2     :     0.000000
      f-2     :     0.000000
      f+3     :     0.000000
      f-3     :     0.000000

SPIN
  0 Scs       :     0.746103  s :     0.746103
      pz      :     0.212929  p :     0.222863
      px      :     0.004967
      py      :     0.004967
      dz2     :     0.065629  d :     0.102005
      dxz     :     0.018188
      dyz     :     0.018188
      dx2y2   :    -0.000000
      dxy     :    -0.000000
      f0      :    -0.000804  f :    -0.005503
      f+1     :    -0.002349
      f-1     :    -0.002349
      f+2     :    -0.000000
      f-2     :    -0.000000
      f+3     :    -0.000000
      f-3     :    -0.000000
      g0      :    -0.000150  g :    -0.003152
      g+1     :    -0.001501
      g-1     :    -0.001501
      g+2     :    -0.000000
      g-2     :    -0.000000
      g+3     :    -0.000000
      g-3     :    -0.000000
      g+4     :     0.000000
      g-4     :     0.000000
  1 O s       :     0.004814  s :     0.004814
      pz      :    -0.028969  p :    -0.068181
      px      :    -0.019606
      py      :    -0.019606
      dz2     :     0.000395  d :     0.000983
      dxz     :     0.000294
      dyz     :     0.000294
      dx2y2   :     0.000000
      dxy     :     0.000000
      f0      :     0.000053  f :     0.000069
      f+1     :     0.000008
      f-1     :     0.000008
      f+2     :    -0.000000
      f-2     :     0.000000
      f+3     :    -0.000000
      f-3     :     0.000000


                      *****************************
                      * MAYER POPULATION ANALYSIS *
                      *****************************

  NA   - Mulliken gross atomic population
  ZA   - Total nuclear charge
  QA   - Mulliken gross atomic charge
  VA   - Mayer's total valence
  BVA  - Mayer's bonded valence
  FA   - Mayer's free valence

  ATOM       NA         ZA         QA         VA         BVA        FA
  0 Sc    20.3427    21.0000     0.6573     3.1250     2.1069     1.0181
  1 O      8.6573     8.0000    -0.6573     2.1105     2.1069     0.0035

  Mayer bond orders larger than 0.100000
B(  0-Sc,  1-O ) :   2.1069 

-------
TIMINGS
-------

Total SCF time: 0 days 0 hours 0 min 4 sec 

Total time                  ....       4.774 sec
Sum of individual times     ....       4.553 sec  ( 95.4%)

Fock matrix formation       ....       4.285 sec  ( 89.8%)
Diagonalization             ....       0.073 sec  (  1.5%)
Density matrix formation    ....       0.014 sec  (  0.3%)
Population analysis         ....       0.005 sec  (  0.1%)
Initial guess               ....       0.111 sec  (  2.3%)
Orbital Transformation      ....       0.000 sec  (  0.0%)
Orbital Orthonormalization  ....       0.000 sec  (  0.0%)
DIIS solution               ....       0.043 sec  (  0.9%)


           ************************************************************
           *        Program running with 24 parallel MPI-processes    *
           *              working on a common directory               *
           ************************************************************


------------------------------------------------------------------------------- 
                              ORCA-MATRIX DRIVEN CI                            
------------------------------------------------------------------------------- 

--------------------------------
AUTOMATIC CHOICE OF INCORE LEVEL
--------------------------------

Memory available                           ...   2500.00 MB
Memory needed for S+T                      ...      6.59 MB
Memory needed for J+K                      ...     13.24 MB
Memory needed for DIIS                     ...     92.29 MB
Memory needed for 3-ext                    ...     35.16 MB
Memory needed for 4-ext                    ...    158.20 MB
Memory needed for triples                  ...     19.53 MB
 -> Final InCoreLevel    ... 5
 -> check shows that triples correction can be computed


Wavefunction type
-----------------
Correlation treatment                      ...      CCSD     
Single excitations                         ... ON
Orbital optimization                       ... OFF
Calculation of Z vector                    ... OFF
Calculation of Brueckner orbitals          ... OFF
Perturbative triple excitations            ... ON
Calculation of F12 correction              ... OFF
Frozen core treatment                      ... chemical core (12 el)
Reference Wavefunction                     ... UHF
  Alpha-MOs occ    :     6 ...   14 (  9 MO's/  9 electrons)
  Beta-MOs occ     :     6 ...   13 (  8 MO's/  8 electrons)
  Alpha-MOs virt   :    15 ...   94 ( 80 MO's              )
  Beta-MOs virt    :    14 ...   94 ( 81 MO's              )
Number of AO's                             ...     95
Number of electrons                        ...     29
Number of correlated electrons             ...     17

Algorithmic settings
--------------------
Integral transformation                    ... AO direct full transformation
K(C) Formation                             ... FULL-MO TRAFO
Maximum number of iterations               ...        50
Convergence tolerance (max. residuum)      ... 1.000e-06
Level shift for amplitude update           ... 2.000e-01
Maximum number of DIIS vectors             ...         7
DIIS turned on at iteration                ...         0
Damping before turning on DIIS             ...     0.500
Damping after turning on DIIS              ...     0.000
Pair specific amplitude update             ... OFF
Natural orbital iterations                 ... OFF
Perturbative natural orbital generation    ... OFF
Printlevel                                 ... 2

Memory handling:
----------------
Maximum memory for working arrays          ...   2500 MB
Data storage in matrix containers          ... UNCOMPRESSED
Data type for integral storage             ... DOUBLE
In-Core Storage of quantities:
   Amplitudes+Sigma Vector      ... YES
   J+K operators                ... YES
   DIIS vectors                 ... YES
   3-external integrals         ... YES
   4-external integrals         ... YES


Initializing the integral package          ... done
Warning: reference  - re-canonicalizations have been set to INT 1 VIRT 1

--------------------------
UNRESTRICTED FOCK OPERATOR
--------------------------

<ss|ss>:         2016 b           22 skpd (  1.1%)    0.001 s ( 0.000 ms/b)
<ss|sp>:         5481 b           65 skpd (  1.2%)    0.002 s ( 0.000 ms/b)
<ss|sd>:         4158 b           50 skpd (  1.2%)    0.001 s ( 0.000 ms/b)
<ss|sf>:         2079 b           25 skpd (  1.2%)    0.000 s ( 0.000 ms/b)
<ss|sg>:          693 b            7 skpd (  1.0%)    0.000 s ( 0.001 ms/b)
<ss|pp>:         2268 b           24 skpd (  1.1%)    0.001 s ( 0.001 ms/b)
<ss|pd>:         3024 b           47 skpd (  1.6%)    0.002 s ( 0.001 ms/b)
<ss|pf>:         1512 b           24 skpd (  1.6%)    0.000 s ( 0.000 ms/b)
<ss|pg>:          504 b            8 skpd (  1.6%)    0.001 s ( 0.001 ms/b)
<ss|dd>:         1323 b           18 skpd (  1.4%)    0.001 s ( 0.001 ms/b)
<ss|df>:         1134 b           18 skpd (  1.6%)    0.001 s ( 0.001 ms/b)
<ss|dg>:          378 b            6 skpd (  1.6%)    0.001 s ( 0.002 ms/b)
<ss|ff>:          378 b            6 skpd (  1.6%)    0.000 s ( 0.001 ms/b)
<ss|fg>:          189 b            3 skpd (  1.6%)    0.000 s ( 0.002 ms/b)
<ss|gg>:           63 b            1 skpd (  1.6%)    0.001 s ( 0.009 ms/b)
<sp|sp>:         3828 b           31 skpd (  0.8%)    0.002 s ( 0.000 ms/b)
<sp|sd>:         5742 b           51 skpd (  0.9%)    0.002 s ( 0.000 ms/b)
<sp|sf>:         2871 b           19 skpd (  0.7%)    0.001 s ( 0.000 ms/b)
<sp|sg>:          957 b            8 skpd (  0.8%)    0.001 s ( 0.001 ms/b)
<sp|pp>:         3132 b            6 skpd (  0.2%)    0.002 s ( 0.001 ms/b)
<sp|pd>:         4176 b           27 skpd (  0.6%)    0.003 s ( 0.001 ms/b)
<sp|pf>:         2088 b           18 skpd (  0.9%)    0.001 s ( 0.001 ms/b)
<sp|pg>:          696 b            6 skpd (  0.9%)    0.002 s ( 0.002 ms/b)
<sp|dd>:         1827 b           13 skpd (  0.7%)    0.003 s ( 0.001 ms/b)
<sp|df>:         1566 b           17 skpd (  1.1%)    0.001 s ( 0.001 ms/b)
<sp|dg>:          522 b            6 skpd (  1.1%)    0.002 s ( 0.004 ms/b)
<sp|ff>:          522 b            5 skpd (  1.0%)    0.001 s ( 0.002 ms/b)
<sp|fg>:          261 b            3 skpd (  1.1%)    0.001 s ( 0.005 ms/b)
<sp|gg>:           87 b            1 skpd (  1.1%)    0.002 s ( 0.019 ms/b)
<sd|sd>:         2211 b           14 skpd (  0.6%)    0.001 s ( 0.001 ms/b)
<sd|sf>:         2178 b            8 skpd (  0.4%)    0.001 s ( 0.000 ms/b)
<sd|sg>:          726 b            4 skpd (  0.6%)    0.001 s ( 0.002 ms/b)
<sd|pp>:         2376 b            2 skpd (  0.1%)    0.003 s ( 0.001 ms/b)
<sd|pd>:         3168 b           10 skpd (  0.3%)    0.003 s ( 0.001 ms/b)
<sd|pf>:         1584 b            6 skpd (  0.4%)    0.001 s ( 0.001 ms/b)
<sd|pg>:          528 b            3 skpd (  0.6%)    0.002 s ( 0.004 ms/b)
<sd|dd>:         1386 b            6 skpd (  0.4%)    0.004 s ( 0.003 ms/b)
<sd|df>:         1188 b            9 skpd (  0.8%)    0.002 s ( 0.002 ms/b)
<sd|dg>:          396 b            3 skpd (  0.8%)    0.003 s ( 0.007 ms/b)
<sd|ff>:          396 b            3 skpd (  0.8%)    0.001 s ( 0.003 ms/b)
<sd|fg>:          198 b            3 skpd (  1.5%)    0.002 s ( 0.010 ms/b)
<sd|gg>:           66 b            1 skpd (  1.5%)    0.003 s ( 0.040 ms/b)
<sf|sf>:          561 b            0 skpd (  0.0%)    0.000 s ( 0.001 ms/b)
<sf|sg>:          363 b            1 skpd (  0.3%)    0.001 s ( 0.003 ms/b)
<sf|pp>:         1188 b            0 skpd (  0.0%)    0.002 s ( 0.002 ms/b)
<sf|pd>:         1584 b            2 skpd (  0.1%)    0.003 s ( 0.002 ms/b)
<sf|pf>:          792 b            1 skpd (  0.1%)    0.001 s ( 0.001 ms/b)
<sf|pg>:          264 b            0 skpd (  0.0%)    0.002 s ( 0.007 ms/b)
<sf|dd>:          693 b            0 skpd (  0.0%)    0.003 s ( 0.004 ms/b)
<sf|df>:          594 b            0 skpd (  0.0%)    0.002 s ( 0.003 ms/b)
<sf|dg>:          198 b            0 skpd (  0.0%)    0.003 s ( 0.013 ms/b)
<sf|ff>:          198 b            0 skpd (  0.0%)    0.001 s ( 0.007 ms/b)
<sf|fg>:           99 b            0 skpd (  0.0%)    0.002 s ( 0.017 ms/b)
<sf|gg>:           33 b            0 skpd (  0.0%)    0.002 s ( 0.069 ms/b)
<sg|sg>:           66 b            1 skpd (  1.5%)    0.000 s ( 0.006 ms/b)
<sg|pp>:          396 b            1 skpd (  0.3%)    0.001 s ( 0.004 ms/b)
<sg|pd>:          528 b            2 skpd (  0.4%)    0.002 s ( 0.003 ms/b)
<sg|pf>:          264 b            1 skpd (  0.4%)    0.001 s ( 0.003 ms/b)
<sg|pg>:           88 b            1 skpd (  1.1%)    0.001 s ( 0.012 ms/b)
<sg|dd>:          231 b            0 skpd (  0.0%)    0.002 s ( 0.008 ms/b)
<sg|df>:          198 b            0 skpd (  0.0%)    0.001 s ( 0.005 ms/b)
<sg|dg>:           66 b            0 skpd (  0.0%)    0.002 s ( 0.027 ms/b)
<sg|ff>:           66 b            0 skpd (  0.0%)    0.001 s ( 0.010 ms/b)
<sg|fg>:           33 b            0 skpd (  0.0%)    0.001 s ( 0.033 ms/b)
<sg|gg>:           11 b            0 skpd (  0.0%)    0.001 s ( 0.128 ms/b)
<pp|pp>:          666 b            0 skpd (  0.0%)    0.002 s ( 0.003 ms/b)
<pp|pd>:         1728 b            0 skpd (  0.0%)    0.003 s ( 0.002 ms/b)
<pp|pf>:          864 b            0 skpd (  0.0%)    0.001 s ( 0.001 ms/b)
<pp|pg>:          288 b            0 skpd (  0.0%)    0.002 s ( 0.006 ms/b)
<pp|dd>:          756 b            0 skpd (  0.0%)    0.003 s ( 0.004 ms/b)
<pp|df>:          648 b            0 skpd (  0.0%)    0.002 s ( 0.002 ms/b)
<pp|dg>:          216 b            0 skpd (  0.0%)    0.002 s ( 0.011 ms/b)
<pp|ff>:          216 b            0 skpd (  0.0%)    0.001 s ( 0.005 ms/b)
<pp|fg>:          108 b            0 skpd (  0.0%)    0.002 s ( 0.015 ms/b)
<pp|gg>:           36 b            0 skpd (  0.0%)    0.002 s ( 0.061 ms/b)
<pd|pd>:         1176 b            0 skpd (  0.0%)    0.004 s ( 0.003 ms/b)
<pd|pf>:         1152 b            0 skpd (  0.0%)    0.002 s ( 0.002 ms/b)
<pd|pg>:          384 b            0 skpd (  0.0%)    0.004 s ( 0.011 ms/b)
<pd|dd>:         1008 b            0 skpd (  0.0%)    0.006 s ( 0.006 ms/b)
<pd|df>:          864 b            0 skpd (  0.0%)    0.004 s ( 0.004 ms/b)
<pd|dg>:          288 b            0 skpd (  0.0%)    0.006 s ( 0.019 ms/b)
<pd|ff>:          288 b            0 skpd (  0.0%)    0.003 s ( 0.009 ms/b)
<pd|fg>:          144 b            0 skpd (  0.0%)    0.004 s ( 0.027 ms/b)
<pd|gg>:           48 b            0 skpd (  0.0%)    0.005 s ( 0.111 ms/b)
<pf|pf>:          300 b            0 skpd (  0.0%)    0.001 s ( 0.004 ms/b)
<pf|pg>:          192 b            0 skpd (  0.0%)    0.003 s ( 0.015 ms/b)
<pf|dd>:          504 b            0 skpd (  0.0%)    0.004 s ( 0.008 ms/b)
<pf|df>:          432 b            0 skpd (  0.0%)    0.003 s ( 0.006 ms/b)
<pf|dg>:          144 b            0 skpd (  0.0%)    0.004 s ( 0.027 ms/b)
<pf|ff>:          144 b            0 skpd (  0.0%)    0.002 s ( 0.016 ms/b)
<pf|fg>:           72 b            0 skpd (  0.0%)    0.003 s ( 0.042 ms/b)
<pf|gg>:           24 b            0 skpd (  0.0%)    0.004 s ( 0.162 ms/b)
<pg|pg>:           36 b            0 skpd (  0.0%)    0.001 s ( 0.037 ms/b)
<pg|dd>:          168 b            0 skpd (  0.0%)    0.003 s ( 0.017 ms/b)
<pg|df>:          144 b            0 skpd (  0.0%)    0.002 s ( 0.011 ms/b)
<pg|dg>:           48 b            0 skpd (  0.0%)    0.003 s ( 0.053 ms/b)
<pg|ff>:           48 b            0 skpd (  0.0%)    0.001 s ( 0.022 ms/b)
<pg|fg>:           24 b            0 skpd (  0.0%)    0.002 s ( 0.077 ms/b)
<pg|gg>:            8 b            0 skpd (  0.0%)    0.002 s ( 0.272 ms/b)
<dd|dd>:          231 b            0 skpd (  0.0%)    0.004 s ( 0.017 ms/b)
<dd|df>:          378 b            0 skpd (  0.0%)    0.003 s ( 0.007 ms/b)
<dd|dg>:          126 b            0 skpd (  0.0%)    0.004 s ( 0.031 ms/b)
<dd|ff>:          126 b            0 skpd (  0.0%)    0.002 s ( 0.016 ms/b)
<dd|fg>:           63 b            0 skpd (  0.0%)    0.003 s ( 0.046 ms/b)
<dd|gg>:           21 b            0 skpd (  0.0%)    0.004 s ( 0.189 ms/b)
<df|df>:          171 b            0 skpd (  0.0%)    0.002 s ( 0.010 ms/b)
<df|dg>:          108 b            0 skpd (  0.0%)    0.004 s ( 0.041 ms/b)
<df|ff>:          108 b            0 skpd (  0.0%)    0.003 s ( 0.027 ms/b)
<df|fg>:           54 b            0 skpd (  0.0%)    0.004 s ( 0.070 ms/b)
<df|gg>:           18 b            0 skpd (  0.0%)    0.005 s ( 0.277 ms/b)
<dg|dg>:           21 b            0 skpd (  0.0%)    0.001 s ( 0.064 ms/b)
<dg|ff>:           36 b            0 skpd (  0.0%)    0.001 s ( 0.034 ms/b)
<dg|fg>:           18 b            0 skpd (  0.0%)    0.002 s ( 0.120 ms/b)
<dg|gg>:            6 b            0 skpd (  0.0%)    0.003 s ( 0.429 ms/b)
<ff|ff>:           21 b            0 skpd (  0.0%)    0.001 s ( 0.054 ms/b)
<ff|fg>:           18 b            0 skpd (  0.0%)    0.002 s ( 0.109 ms/b)
<ff|gg>:            6 b            0 skpd (  0.0%)    0.003 s ( 0.511 ms/b)
<fg|fg>:            6 b            0 skpd (  0.0%)    0.001 s ( 0.244 ms/b)
<fg|gg>:            3 b            0 skpd (  0.0%)    0.002 s ( 0.691 ms/b)
<gg|gg>:            1 b            0 skpd (  0.0%)    0.001 s ( 1.189 ms/b)
Recanonicalizing the internal orbitals
Recanonicalizing the virtual orbitals
Time needed for Fock operator              ...            0.257 sec
Reference energy                           ...   -834.655695187
Warning: for UHF the TrafoType has to be JK
Warning: for UHF the K(C)-option cannot be MO but must be AOX

-------------------------------
PARTIAL EXCHANGE TRANSFORMATION
-------------------------------

Transformation type                        ... two-operators
Generation of integrals (i,mue|j,nue)      ... ON
Generation of integrals (mue,kappa|nue,tau)... ON
Generation of integrals (i,mue|a,nue)      ... ON
Dimension of the basis                     ...   95
Number of internal alpha-MOs               ...    9 (   6-  14)
Number of internal beta-MOs                ...    8 (   6-  13)
Number of external alpha-MOs               ...   80 (  15-  94)
Number of external beta-MOs                ...   81 (  14-  94)
Pair cutoff                                ... 0.000e+00 Eh
Number of AO pairs in the trafo            ... 4560
Total Number of distinct AO pairs          ... 4560
Memory devoted for trafo                   ... 2500.0 MB 
Max. Number of MO pairs treated together   ... 36308      
Number Format for Storage                  ... Double (8 Byte)
Integral package used                      ... LIBINT

Starting integral evaluation:
    ... done with AO integral generation
Closing buffer AOK[aa] ( 0.00 GB; CompressionRatio= 0.98)
Closing buffer AOK[bb] ( 0.00 GB; CompressionRatio= 0.98)
Closing buffer AOK[ab] ( 0.00 GB; CompressionRatio= 0.98)
Closing buffer AOK[ba] ( 0.00 GB; CompressionRatio= 0.98)
Collecting buffer AOK 
Closing buffer IAAO1[aa] ( 0.00 GB; CompressionRatio= 1.00)
Closing buffer IAAO1[bb] ( 0.00 GB; CompressionRatio= 1.00)
Closing buffer IAAO1[ab] ( 0.00 GB; CompressionRatio= 1.00)
Closing buffer IAAO1[ba] ( 0.00 GB; CompressionRatio= 1.00)
Closing buffer IAAO2[aa] ( 0.00 GB; CompressionRatio= 1.00)
Closing buffer IAAO2[bb] ( 0.00 GB; CompressionRatio= 1.00)
Closing buffer IAAO2[ab] ( 0.00 GB; CompressionRatio= 1.00)
Closing buffer IAAO2[ba] ( 0.00 GB; CompressionRatio= 1.00)
Collecting buffer IAAO 
Closing buffer PRQS    ( 0.00 GB; CompressionRatio= 1.00)
Collecting buffer PRQS 
Number of alpha/alpha MO pairs in trafo    ...   45
Number of beta /beta  MO pairs in trafo    ...   36
Number of alpha/ beta MO pairs in trafo    ...   72
------------------------
SORTING OF (i,mue|j,nue)
------------------------

SORTING OF ALPHA/ALPHA PAIRS
IBATCH = 1 of  1
Closing buffer KAO[aa] ( 0.00 GB; CompressionRatio= 1.00)
Collecting buffer KAO 
SORTING OF BETA /BETA  PAIRS
IBATCH = 1 of  1
Closing buffer KAO[bb] ( 0.00 GB; CompressionRatio= 1.00)
Collecting buffer KAO 
SORTING OF ALPHA/BETA  PAIRS
IBATCH = 1 of  1
Closing buffer KAO[ab] ( 0.00 GB; CompressionRatio= 0.999833822633)
Collecting buffer KAO[ab] 
------------------------
SORTING OF (i,mue|a,nue)
------------------------

Number of alpha/alpha (i,a) pairs in trafo  ...  720
Number of beta /beta  (i,a) pairs in trafo  ...  648
Number of alpha/ beta (i,a) pairs in trafo  ...  729
Number of beta /alpha (i,a) pairs in trafo  ...  640
Setting up the alpha/alpha list             ... done
Setting up the beta /beta  list             ... done
Setting up the alpha/beta  list             ... done
Setting up the beta /alpha list             ... done
    ... Now sorting (i,mue|a,nue)integrals
    ... Integrals (i,b|a,c) will be made on the fly
SORTING OF ALPHA/ALPHA PAIRS
IBATCH = 1 of  1
Closing buffer IPAQ[aa]  0.00 GB; CompressionRatio= 1.00)
SORTING OF BETA /BETA  PAIRS
IBATCH = 1 of  1
Closing buffer IPAQ[bb]( 0.00 GB; CompressionRatio= 1.00)
SORTING OF ALPHA/BETA  PAIRS (NMatSort_ab=31)
IBATCH = 1 of  1
Closing buffer IPAQ[ab]( 0.00 GB; CompressionRatio= 1.00)
SORTING OF BETA/ALPHA  PAIRS
IBATCH = 1 of  1
Closing buffer IPAQ[ba]( 0.00 GB; CompressionRatio= 1.00)
N(AO-Batches) Done                         ...      4959 
N(AO-Batches) Skipped                      ...         0 
N(IJ)-pairs Skipped                        ...         0 
TOTAL TIME for half transformation         ...     1.051 sec
AO-integral generation                     ...     0.022 sec
Half transformation                        ...     0.004 sec
K-integral sorting                         ...     0.584 sec
<ss|**>: 
------------------------------
PARTIAL COULOMB TRANSFORMATION
------------------------------

Transformation type                        ... two-operators
Dimension of the basis                     ...   95
Number of internal alpha-MOs               ...    9 (6-14)
Number of internal beta-MOs                ...    8 (6-13)
Pair cutoff                                ... 0.000e+00 Eh
Number of AO pairs included in the trafo   ... 4560
Total Number of distinct AO pairs          ... 4560
Memory devoted for trafo                   ... 2500.0 MB 
Max. Number of MO pairs treated together   ... 71859      
Max. Number of MOs treated per batch       ...  756      
Number Format for Storage                  ... Double (8 Byte)
AO-integral source                         ... DIRECT
Integral package used                      ... LIBINT

Starting integral evaluation:
       27153 b        0 skpd     0.007 s (  0.000 ms/b)
<sp|**>: <sd|**>:        37497 b        0 skpd     0.016 s (  0.000 ms/b)
<sf|**>:        28446 b        0 skpd     0.019 s (  0.001 ms/b)
       14223 b        0 skpd     0.011 s (  0.001 ms/b)
<sg|**>:         4741 b        0 skpd     0.017 s (  0.004 ms/b)
<pp|**>:        15516 b        0 skpd     0.025 s (  0.002 ms/b)
<pd|**>:        20688 b        0 skpd     0.036 s (  0.002 ms/b)
<pf|**>:        10344 b        0 skpd     0.016 s (  0.002 ms/b)
<pg|**>:         3448 b        0 skpd     0.027 s (  0.008 ms/b)
<dd|**>:         9051 b        0 skpd     0.040 s (  0.004 ms/b)
<df|**>:         7758 b        0 skpd     0.022 s (  0.003 ms/b)
<dg|**>:         2586 b        0 skpd     0.034 s (  0.013 ms/b)
<ff|**>:         2586 b        0 skpd     0.015 s (  0.006 ms/b)
<fg|**>:         1293 b        0 skpd     0.022 s (  0.017 ms/b)
<gg|**>:          431 b        0 skpd     0.032 s (  0.075 ms/b)
Closing buffer AOJ[aa] ( 0.00 GB; CompressionRatio= 0.97)
Closing buffer AOJ[bb] ( 0.00 GB; CompressionRatio= 0.00)
Collecting buffer AOJ 
    ... done with AO integral generation
Number of Alpha-MO pairs included          ...   45
Number of Beta-MO pairs included           ...   36
    ... Now sorting integrals
SORTING ALPHA/ALPHA PAIRS
IBATCH = 1 of  1
Closing buffer JAO[aa] ( 0.00 GB; CompressionRatio= 1.00)
SORTING BETA/BETA PAIRS
IBATCH = 1 of  1
Closing buffer JAO[bb] ( 0.00 GB; CompressionRatio= 1.00)
Collecting buffer JAO 
TOTAL TIME for half transformation         ...     0.365 sec
AO-integral generation                     ...     0.339 sec
Half transformation                        ...     0.009 sec
J-integral sorting                         ...     0.013 sec

-------------------------- SECOND HALF TRANSFORMATION -------------------------
Formation of (ij|kl),(ij|ka), (ij|ab)      ... ok (     0.034 sec)
Formation of (ik|jl),(ik|ja), (ia|jb)      ... ok (     0.057 sec)


-----------------------
SPIN UNRESTRICTED GUESS
-----------------------

Entering MDCI_UHF_Guess, Tailored=0
Spin-components of the MP2 energy:
EMP2(aa)=     -0.085373127
EMP2(bb)=     -0.074118693
EMP2(ab)=     -0.380120640

Initial guess performed in     0.029 sec
E(0)                                       ...   -834.655695187
E(MP2)                                     ...     -0.539612460
Initial E(tot)                             ...   -835.195307647
<T|T>                                      ...      0.170099628
Number of pairs included                   ... 136

------------------------------------------------
                  UHF COUPLED CLUSTER ITERATIONS
------------------------------------------------

Number of amplitudes to be optimized       ...       674284

Iter       E(tot)           E(Corr)          Delta-E          Residual     Time      <S|S>**1/2
  0   -835.195307647     -0.539612460      0.000000000      0.038869588    0.77      0.000000108
                           *** Turning on DIIS ***
  1   -835.157930431     -0.502235244      0.037377216      0.014318737    0.81      0.092959181
  2   -835.180216891     -0.524521704     -0.022286460      0.008705319    0.81      0.078001061
  3   -835.181961276     -0.526266089     -0.001744385      0.004504715    0.84      0.098613402
  4   -835.183547711     -0.527852524     -0.001586434      0.003458489    0.83      0.109601464
  5   -835.184307735     -0.528612548     -0.000760024      0.002233322    0.84      0.119798575
  6   -835.184434827     -0.528739641     -0.000127092      0.001347912    0.84      0.125435253
  7   -835.184559407     -0.528864220     -0.000124579      0.000676412    0.84      0.128998193
  8   -835.184610409     -0.528915222     -0.000051003      0.000278850    0.85      0.130825296
  9   -835.184618067     -0.528922880     -0.000007658      0.000097104    0.85      0.131595082
 10   -835.184637562     -0.528942375     -0.000019495      0.000034127    0.86      0.131826801
 11   -835.184630547     -0.528935360      0.000007015      0.000013357    0.83      0.131862545
 12   -835.184632688     -0.528937502     -0.000002142      0.000009746    0.83      0.131892452
 13   -835.184633785     -0.528938599     -0.000001097      0.000006006    0.84      0.131907270
 14   -835.184634107     -0.528938920     -0.000000321      0.000003620    0.86      0.131916142
 15   -835.184634135     -0.528938949     -0.000000029      0.000002234    0.83      0.131916338
 16   -835.184633960     -0.528938773      0.000000175      0.000001214    0.84      0.131914499
 17   -835.184633901     -0.528938714      0.000000059      0.000000658    0.85      0.131913910
               --- The Coupled-Cluster iterations have converged ---

----------------------
COUPLED CLUSTER ENERGY
----------------------

E(0)                                       ...   -834.655695187
E(CORR)                                    ...     -0.528938714
E(TOT)                                     ...   -835.184633901
Singles norm <S|S>**1/2                    ...      0.131913910 ( 0.075699971, 0.056213938)  
T1 diagnostic                              ...      0.031993823                              

------------------
LARGEST AMPLITUDES
------------------
  14a-> 17a  -1a-> -1a       0.089822
  12b-> 27b  -1b-> -1b       0.059588
  13b-> 26b  -1b-> -1b       0.059588
  11b-> 17b  -1b-> -1b       0.044416
  11b-> 28b  -1b-> -1b       0.044265
  12a-> 26a  -1a-> -1a       0.042941
  13a-> 27a  -1a-> -1a       0.042941
  11a-> 17a  -1a-> -1a       0.041290
  11a-> 28a  -1a-> -1a       0.032570
  13a-> 27a  13b-> 26b       0.032293
  12a-> 26a  12b-> 27b       0.032293
  13a-> 27a  12b-> 27b       0.029748
  12a-> 26a  13b-> 26b       0.029748
  14a-> 25a  -1a-> -1a       0.028118
  11a-> 28a  11b-> 28b       0.024326
  13a-> 27a  12a-> 26a       0.022979

----------------------
UHF TRIPLES CORRECTION (Algorithm 1)
----------------------

Multiplier for the singles contribution    ...      1.000000000

SPIN-CASE Alpha-Alpha-Alpha:
10% done
20% done
30% done
40% done
50% done
60% done
70% done
80% done
90% done


SPIN-CASE Beta-Beta-Beta:
10% done
20% done
30% done
40% done
50% done
60% done
70% done
80% done
90% done


SPIN-CASE Alpha-Alpha-Beta:
10% done
20% done
30% done
40% done
50% done
60% done
70% done
80% done
90% done


SPIN-CASE Beta-Beta-Alpha:
10% done
20% done
30% done
40% done
50% done
60% done
70% done
80% done
90% done


Triples Correction (T)                     ...     -0.030426191
    alpha-alpha-alpha ... -0.001242800 (  4.1%)
    alpha-alpha-beta  ... -0.015377119 ( 50.5%)
    alpha-beta -beta  ... -0.013075725 ( 43.0%)
    beta -beta -beta  ... -0.000730547 (  2.4%)
Scaling of triples based on CCSD energies (Peterson et al. Molecular Physics 113, 1551 (2015))
E(T*) = f*E(T) where f = E(F12-CCSD)/E(CCSD) 
f = CCSD (with F12)/ CCSD (without F12)    ...      1.000000000
Scaled triples correction (T)              ...     -0.030426191

Final correlation energy                   ...     -0.559364905
E(CCSD)                                    ...   -835.184633901
E(CCSD(T))                                 ...   -835.215060091



        !!!!!!!!!!!!!!!!!!!!!!!!!!!!!!!!!!!!!!!!!!!!!!!!!!!!!!!!!!!!!!!!!!!!!!!!!! 
        !  Warning: Densities are linearized densities                           !
        !!!!!!!!!!!!!!!!!!!!!!!!!!!!!!!!!!!!!!!!!!!!!!!!!!!!!!!!!!!!!!!!!!!!!!!!!! 

NORM  =      1.193129318 sqrt=     1.092304590
W(HF) =      0.838132116
------------------------------------------------------------------------------
                           ORCA POPULATION ANALYSIS
------------------------------------------------------------------------------
Input electron density              ... 05_ScO.mdcip
Input spin density                  ... 05_ScO.mdcir
BaseName (.gbw .S,...)              ... 05_ScO

                    ********************************
                    * MULLIKEN POPULATION ANALYSIS *
                    ********************************

------------------------------------------
MULLIKEN ATOMIC CHARGES AND SPIN DENSITIES
------------------------------------------
   0 Sc:    0.402595    1.058110
   1 O :   -0.402595   -0.058110
Sum of atomic charges       :   -0.0000000
Sum of atomic spin densities:    1.0000000

---------------------------------------------------
MULLIKEN REDUCED ORBITAL CHARGES AND SPIN DENSITIES
---------------------------------------------------
CHARGE
  0 Scs       :     6.841999  s :     6.841999
      pz      :     4.140887  p :    12.215825
      px      :     4.037469
      py      :     4.037469
      dz2     :     0.566855  d :     1.443636
      dxz     :     0.419316
      dyz     :     0.419316
      dx2y2   :     0.019074
      dxy     :     0.019074
      f0      :     0.020193  f :     0.083234
      f+1     :     0.029115
      f-1     :     0.029115
      f+2     :     0.001923
      f-2     :     0.001923
      f+3     :     0.000482
      f-3     :     0.000482
      g0      :     0.001693  g :     0.012712
      g+1     :     0.004972
      g-1     :     0.004972
      g+2     :     0.000432
      g-2     :     0.000432
      g+3     :     0.000091
      g-3     :     0.000091
      g+4     :     0.000015
      g-4     :     0.000015
  1 O s       :     3.897237  s :     3.897237
      pz      :     1.480835  p :     4.452964
      px      :     1.486064
      py      :     1.486064
      dz2     :     0.014337  d :     0.048473
      dxz     :     0.011313
      dyz     :     0.011313
      dx2y2   :     0.005756
      dxy     :     0.005756
      f0      :     0.001017  f :     0.003921
      f+1     :     0.000659
      f-1     :     0.000659
      f+2     :     0.000422
      f-2     :     0.000422
      f+3     :     0.000371
      f-3     :     0.000371

SPIN
  0 Scs       :     0.824755  s :     0.824755
      pz      :     0.132396  p :     0.144994
      px      :     0.006299
      py      :     0.006299
      dz2     :     0.067423  d :     0.090342
      dxz     :     0.011391
      dyz     :     0.011391
      dx2y2   :     0.000068
      dxy     :     0.000068
      f0      :    -0.000074  f :    -0.001650
      f+1     :    -0.000803
      f-1     :    -0.000803
      f+2     :     0.000015
      f-2     :     0.000015
      f+3     :    -0.000000
      f-3     :    -0.000000
      g0      :     0.000027  g :    -0.000331
      g+1     :    -0.000180
      g-1     :    -0.000180
      g+2     :     0.000004
      g-2     :     0.000004
      g+3     :    -0.000003
      g-3     :    -0.000003
      g+4     :    -0.000000
      g-4     :    -0.000000
  1 O s       :    -0.003954  s :    -0.003954
      pz      :    -0.028502  p :    -0.054363
      px      :    -0.012930
      py      :    -0.012930
      dz2     :     0.000350  d :     0.000202
      dxz     :    -0.000025
      dyz     :    -0.000025
      dx2y2   :    -0.000050
      dxy     :    -0.000050
      f0      :     0.000030  f :     0.000006
      f+1     :    -0.000004
      f-1     :    -0.000004
      f+2     :    -0.000005
      f-2     :    -0.000005
      f+3     :    -0.000003
      f-3     :    -0.000003


                     *******************************
                     * LOEWDIN POPULATION ANALYSIS *
                     *******************************

-----------------------------------------
LOEWDIN ATOMIC CHARGES AND SPIN DENSITIES
-----------------------------------------
   0 Sc:   -0.145337    1.024941
   1 O :    0.145337   -0.024941

--------------------------------------------------
LOEWDIN REDUCED ORBITAL CHARGES AND SPIN DENSITIES
--------------------------------------------------
CHARGE
  0 Scs       :     6.772017  s :     6.772017
      pz      :     4.252159  p :    12.338192
      px      :     4.043016
      py      :     4.043016
      dz2     :     0.720064  d :     1.667419
      dxz     :     0.454590
      dyz     :     0.454590
      dx2y2   :     0.019088
      dxy     :     0.019088
      f0      :     0.110415  f :     0.241349
      f+1     :     0.063020
      f-1     :     0.063020
      f+2     :     0.001964
      f-2     :     0.001964
      f+3     :     0.000482
      f-3     :     0.000482
      g0      :     0.044500  g :     0.126361
      g+1     :     0.040279
      g-1     :     0.040279
      g+2     :     0.000546
      g-2     :     0.000546
      g+3     :     0.000091
      g-3     :     0.000091
      g+4     :     0.000015
      g-4     :     0.000015
  1 O s       :     3.505841  s :     3.505841
      pz      :     1.511722  p :     4.261126
      px      :     1.374702
      py      :     1.374702
      dz2     :     0.045067  d :     0.081058
      dxz     :     0.012411
      dyz     :     0.012411
      dx2y2   :     0.005585
      dxy     :     0.005585
      f0      :     0.003269  f :     0.006638
      f+1     :     0.000890
      f-1     :     0.000890
      f+2     :     0.000424
      f-2     :     0.000424
      f+3     :     0.000370
      f-3     :     0.000370

SPIN
  0 Scs       :     0.766342  s :     0.766342
      pz      :     0.156696  p :     0.167608
      px      :     0.005456
      py      :     0.005456
      dz2     :     0.075472  d :     0.095510
      dxz     :     0.009951
      dyz     :     0.009951
      dx2y2   :     0.000068
      dxy     :     0.000068
      f0      :    -0.000213  f :    -0.003122
      f+1     :    -0.001469
      f-1     :    -0.001469
      f+2     :     0.000015
      f-2     :     0.000015
      f+3     :    -0.000000
      f-3     :    -0.000000
      g0      :     0.000095  g :    -0.001397
      g+1     :    -0.000746
      g-1     :    -0.000746
      g+2     :     0.000003
      g-2     :     0.000003
      g+3     :    -0.000003
      g-3     :    -0.000003
      g+4     :    -0.000000
      g-4     :    -0.000000
  1 O s       :     0.008742  s :     0.008742
      pz      :    -0.015201  p :    -0.034240
      px      :    -0.009520
      py      :    -0.009520
      dz2     :     0.000435  d :     0.000491
      dxz     :     0.000076
      dyz     :     0.000076
      dx2y2   :    -0.000048
      dxy     :    -0.000048
      f0      :     0.000083  f :     0.000066
      f+1     :    -0.000001
      f-1     :    -0.000001
      f+2     :    -0.000005
      f-2     :    -0.000005
      f+3     :    -0.000003
      f-3     :    -0.000003


                      *****************************
                      * MAYER POPULATION ANALYSIS *
                      *****************************

  NA   - Mulliken gross atomic population
  ZA   - Total nuclear charge
  QA   - Mulliken gross atomic charge
  VA   - Mayer's total valence
  BVA  - Mayer's bonded valence
  FA   - Mayer's free valence

  ATOM       NA         ZA         QA         VA         BVA        FA
  0 Sc    20.5974    21.0000     0.4026     3.8527     2.1589     1.6938
  1 O      8.4026     8.0000    -0.4026     2.7053     2.1589     0.5463

  Mayer bond orders larger than 0.100000
B(  0-Sc,  1-O ) :   2.1589 



------------------------------------------------------------------------------- 
                                     TIMINGS                                   
------------------------------------------------------------------------------- 


Total execution time                   ...       18.570 sec

Fock Matrix Formation                  ...        0.257 sec (  1.4%)
Initial Guess                          ...        0.029 sec (  0.2%)
DIIS Solver                            ...        1.123 sec (  6.0%)
State Vector Update                    ...        0.049 sec (  0.3%)
Sigma-vector construction              ...       13.834 sec ( 74.5%)
  <0|H|D>                              ...        0.003 sec (  0.0% of sigma)
  <D|H|D>(0-ext Fock)                  ...        0.015 sec (  0.1% of sigma)
  <D|H|D>(0-ext)                       ...        0.051 sec (  0.4% of sigma)
  <D|H|D>(2-ext Fock)                  ...        0.006 sec (  0.0% of sigma)
  <D|H|D>(2-ext)                       ...        0.225 sec (  1.6% of sigma)
  <D|H|D>(4-ext)                       ...        7.644 sec ( 55.3% of sigma)
  <S|H|0>                              ...        0.553 sec (  4.0% of sigma)
  <S|H|S>                              ...        0.002 sec (  0.0% of sigma)
  <S|H|D>(1-ext)                       ...        0.004 sec (  0.0% of sigma)
  <D|H|S>(1-ext)                       ...        0.084 sec (  0.6% of sigma)
  Fock-dressing                        ...        2.264 sec ( 16.4% of sigma)
  (ik|jl)-dressing                     ...        0.061 sec (  0.4% of sigma)
  (ij|ab),(ia|jb)-dressing             ...        2.305 sec ( 16.7% of sigma)
  Pair energies                        ...        0.005 sec (  0.0% of sigma)
Total Time for computing (T)           ...        1.389 sec (  7.5% of ALL)
  I/O of integral and amplitudes       ...        0.277 sec ( 19.9% of (T))
  External N**7 contributions          ...        0.384 sec ( 27.7% of (T))
  Internal N**7 contributions          ...        0.201 sec ( 14.4% of (T))
  N**6 triples energy contributions    ...        0.497 sec ( 35.8% of (T))

----- Orbital basis set information -----
Your calculation utilizes the basis: def2-QZVPP
   F. Weigend and R. Ahlrichs, Phys. Chem. Chem. Phys. 7, 3297 (2005).

----- AuxJ basis set information -----
Your calculation utilizes the auxiliary basis: def2/J
   F. Weigend, Phys. Chem. Chem. Phys. 8, 1057 (2006).

----- AuxC basis set information -----
Your calculation utilizes the auxiliary basis: def2-QZVPP/C
  H-La, Hf-Rn : A. Hellweg, C. Hattig, S. Hofener and W. Klopper, Theor. Chem. Acc. 117, 587 (2007).
        Ce-Lu : J. Chmela and M. E. Harding, Mol. Phys. (2018).

----- AuxJK basis set information -----
Your calculation utilizes the auxiliary basis: def2/JK
   H-Ba, Hf-Rn: F. Weigend, J. Comput. Chem. 29, 167 (2008).

All done

                     -----------------------------------------
                     Extrapolated Energy 2 Basis=  def2-QZVPP
                     -----------------------------------------

---------------------------------
CARTESIAN COORDINATES (ANGSTROEM)
---------------------------------
  Sc     0.000000    0.000000    0.164930
  O      0.000000    0.000000    1.835070

----------------------------
CARTESIAN COORDINATES (A.U.)
----------------------------
  NO LB      ZA    FRAG     MASS         X           Y           Z
   0 Sc   21.0000    0    44.960    0.000000    0.000000    0.311672
   1 O     8.0000    0    15.999    0.000000    0.000000    3.467780

--------------------------------
INTERNAL COORDINATES (ANGSTROEM)
--------------------------------
 Sc     0   0   0     0.000000000000     0.00000000     0.00000000
 O      1   0   0     1.670140109459     0.00000000     0.00000000

---------------------------
INTERNAL COORDINATES (A.U.)
---------------------------
 Sc     0   0   0     0.000000000000     0.00000000     0.00000000
 O      1   0   0     3.156107412155     0.00000000     0.00000000

---------------------
BASIS SET INFORMATION
---------------------
There are 2 groups of distinct atoms

 Group   1 Type Sc  : 24s18p9d3f2g contracted to 11s6p5d3f2g pattern {114111111111/951111/51111/111/11}
 Group   2 Type O   : 15s8p3d2f1g contracted to 7s4p3d2f1g pattern {8211111/5111/111/11/1}

Atom   0Sc   basis set group =>   1
Atom   1O    basis set group =>   2
---------------------------------
AUXILIARY/J BASIS SET INFORMATION
---------------------------------
There are 2 groups of distinct atoms

 Group   1 Type Sc  : 19s5p5d3f3g contracted to 8s5p5d2f3g pattern {121111111/11111/11111/21/111}
 Group   2 Type O   : 12s5p4d2f1g contracted to 6s4p3d1f1g pattern {711111/2111/211/2/1}

Atom   0Sc   basis set group =>   1
Atom   1O    basis set group =>   2
---------------------------------
AUXILIARY/C BASIS SET INFORMATION
---------------------------------
There are 2 groups of distinct atoms

 Group   1 Type Sc  : 15s13p11d8f7g5h2i contracted to 15s13p11d8f7g5h2i pattern {111111111111111/1111111111111/11111111111/11111111/1111111/11111/11}
 Group   2 Type O   : 9s8p7d5f3g1h contracted to 9s8p7d5f3g1h pattern {111111111/11111111/1111111/11111/111/1}

Atom   0Sc   basis set group =>   1
Atom   1O    basis set group =>   2
----------------------------------
AUXILIARY/JK BASIS SET INFORMATION
----------------------------------
There are 2 groups of distinct atoms

 Group   1 Type Sc  : 19s14p12d10f7g3h1i contracted to 16s13p11d9f5g3h1i pattern {4111111111111111/2111111111111/21111111111/211111111/31111/111/1}
 Group   2 Type O   : 14s10p6d2f1g contracted to 10s8p4d2f1g pattern {5111111111/31111111/3111/11/1}

Atom   0Sc   basis set group =>   1
Atom   1O    basis set group =>   2

Checking for AutoStart:
The File: 05_ScO.gbw exists
Trying to determine its content:
     ... Fine, the file contains calculation information
     ... Fine, the calculation information was read
     ... Fine, the file contains a basis set
     ... Fine, the basis set was read
     ... Fine, the file contains a geometry
     ... Fine, the geometry was read
     ... Fine, the file contains a set of orbitals
     ... Fine, the orbitals can be read
     => possible old guess file was deleted
     => GBW file was renamed to GES file
     => GES file is set as startup file
     => Guess is set to MORead
     ... now leaving AutoStart



           ************************************************************
           *        Program running with 24 parallel MPI-processes    *
           *              working on a common directory               *
           ************************************************************
------------------------------------------------------------------------------
                           ORCA GTO INTEGRAL CALCULATION
------------------------------------------------------------------------------

                         BASIS SET STATISTICS AND STARTUP INFO

 # of primitive gaussian shells          ...   85
 # of primitive gaussian functions       ...  239
 # of contracted shells                  ...   44
 # of contracted basis functions         ...  150
 Highest angular momentum                ...    4
 Maximum contraction depth               ...   11
 Integral package used                   ... LIBINT
 Integral threshhold            Thresh   ...  1.000e-12
 Primitive cut-off              TCut     ...  1.000e-14


------------------------------ INTEGRAL EVALUATION ----------------------------


 * One electron integrals 
 Pre-screening matrix                    ... done
 Shell pair data                         ... done (   0.000 sec)



           ************************************************************
           *        Program running with 24 parallel MPI-processes    *
           *              working on a common directory               *
           ************************************************************
-------------------------------------------------------------------------------
                                 ORCA SCF
-------------------------------------------------------------------------------

------------
SCF SETTINGS
------------
Hamiltonian:
 Ab initio Hamiltonian  Method          .... Hartree-Fock(GTOs)


General Settings:
[...]
  9   -835.264810925     -0.591280144     -0.000014844      0.000093488    3.21      0.141324366
 10   -835.264836504     -0.591305724     -0.000025580      0.000039400    3.21      0.141611906
 11   -835.264826324     -0.591295543      0.000010181      0.000016271    3.25      0.141639533
 12   -835.264828892     -0.591298111     -0.000002568      0.000010904    3.24      0.141679944
 13   -835.264830866     -0.591300086     -0.000001974      0.000007803    3.24      0.141697884
 14   -835.264830910     -0.591300129     -0.000000044      0.000004334    3.26      0.141708781
 15   -835.264831075     -0.591300294     -0.000000165      0.000002842    3.23      0.141707789
 16   -835.264830692     -0.591299911      0.000000383      0.000001348    3.19      0.141705958
 17   -835.264830641     -0.591299861      0.000000050      0.000000742    3.21      0.141704900
               --- The Coupled-Cluster iterations have converged ---

----------------------
COUPLED CLUSTER ENERGY
----------------------

E(0)                                       ...   -834.673530780
E(CORR)                                    ...     -0.591299861
E(TOT)                                     ...   -835.264830641
Singles norm <S|S>**1/2                    ...      0.141704900 ( 0.082553737, 0.059151163)  
T1 diagnostic                              ...      0.034368487                              

------------------
LARGEST AMPLITUDES
------------------
  14a-> 17a  -1a-> -1a       0.084895
  14a-> 23a  -1a-> -1a       0.047247
  12b-> 29b  -1b-> -1b       0.046103
  13b-> 30b  -1b-> -1b       0.046103
  12a-> 29a  -1a-> -1a       0.046023
  13a-> 30a  -1a-> -1a       0.046023
  14a-> 26a  -1a-> -1a       0.044819
  11b-> 28b  -1b-> -1b       0.041856
  13b-> 29b  -1b-> -1b       0.036810
  12b-> 30b  -1b-> -1b       0.036810
  11b-> 31b  -1b-> -1b       0.036557
  12a-> 29a  13b-> 30b       0.032587
  13a-> 30a  12b-> 29b       0.032587
  11a-> 17a  -1a-> -1a       0.031438
  13a-> 30a  12b-> 30b       0.029885
  12a-> 29a  13b-> 29b       0.029885

----------------------
UHF TRIPLES CORRECTION (Algorithm 1)
----------------------

Multiplier for the singles contribution    ...      1.000000000

SPIN-CASE Alpha-Alpha-Alpha:
10% done
20% done
30% done
40% done
50% done
60% done
70% done
80% done
90% done


SPIN-CASE Beta-Beta-Beta:
10% done
20% done
30% done
40% done
50% done
60% done
70% done
80% done
90% done


SPIN-CASE Alpha-Alpha-Beta:
10% done
20% done
30% done
40% done
50% done
60% done
70% done
80% done
90% done


SPIN-CASE Beta-Beta-Alpha:
10% done
20% done
30% done
40% done
50% done
60% done
70% done
80% done
90% done


Triples Correction (T)                     ...     -0.035654772
    alpha-alpha-alpha ... -0.001455184 (  4.1%)
    alpha-alpha-beta  ... -0.017880106 ( 50.1%)
    alpha-beta -beta  ... -0.015423369 ( 43.3%)
    beta -beta -beta  ... -0.000896113 (  2.5%)
Scaling of triples based on CCSD energies (Peterson et al. Molecular Physics 113, 1551 (2015))
E(T*) = f*E(T) where f = E(F12-CCSD)/E(CCSD) 
f = CCSD (with F12)/ CCSD (without F12)    ...      1.000000000
Scaled triples correction (T)              ...     -0.035654772

Final correlation energy                   ...     -0.626954632
E(CCSD)                                    ...   -835.264830641
E(CCSD(T))                                 ...   -835.300485413



        !!!!!!!!!!!!!!!!!!!!!!!!!!!!!!!!!!!!!!!!!!!!!!!!!!!!!!!!!!!!!!!!!!!!!!!!!! 
        !  Warning: Densities are linearized densities                           !
        !!!!!!!!!!!!!!!!!!!!!!!!!!!!!!!!!!!!!!!!!!!!!!!!!!!!!!!!!!!!!!!!!!!!!!!!!! 

NORM  =      1.205027837 sqrt=     1.097737600
W(HF) =      0.829856348
------------------------------------------------------------------------------
                           ORCA POPULATION ANALYSIS
------------------------------------------------------------------------------
Input electron density              ... 05_ScO.mdcip
Input spin density                  ... 05_ScO.mdcir
BaseName (.gbw .S,...)              ... 05_ScO

                    ********************************
                    * MULLIKEN POPULATION ANALYSIS *
                    ********************************

------------------------------------------
MULLIKEN ATOMIC CHARGES AND SPIN DENSITIES
------------------------------------------
   0 Sc:    0.469494    1.062089
   1 O :   -0.469494   -0.062089
Sum of atomic charges       :   -0.0000000
Sum of atomic spin densities:    1.0000000

---------------------------------------------------
MULLIKEN REDUCED ORBITAL CHARGES AND SPIN DENSITIES
---------------------------------------------------
CHARGE
  0 Scs       :     6.846749  s :     6.846749
      pz      :     4.125997  p :    12.174015
      px      :     4.024009
      py      :     4.024009
      dz2     :     0.566705  d :     1.420663
      dxz     :     0.406912
      dyz     :     0.406912
      dx2y2   :     0.020067
      dxy     :     0.020067
      f0      :     0.019305  f :     0.078498
      f+1     :     0.025464
      f-1     :     0.025464
      f+2     :     0.002728
      f-2     :     0.002728
      f+3     :     0.001404
      f-3     :     0.001404
      g0      :     0.002611  g :     0.010581
      g+1     :     0.003293
      g-1     :     0.003293
      g+2     :     0.000430
      g-2     :     0.000430
      g+3     :     0.000175
      g-3     :     0.000175
      g+4     :     0.000087
      g-4     :     0.000087
  1 O s       :     3.892703  s :     3.892703
      pz      :     1.489652  p :     4.514317
      px      :     1.512332
      py      :     1.512332
      dz2     :     0.013975  d :     0.055067
      dxz     :     0.014103
      dyz     :     0.014103
      dx2y2   :     0.006443
      dxy     :     0.006443
      f0      :     0.001631  f :     0.006780
      f+1     :     0.001370
      f-1     :     0.001370
      f+2     :     0.000654
      f-2     :     0.000654
      f+3     :     0.000550
      f-3     :     0.000550
      g0      :     0.000123  g :     0.000628
      g+1     :     0.000090
      g-1     :     0.000090
      g+2     :     0.000060
      g-2     :     0.000060
      g+3     :     0.000054
      g-3     :     0.000054
      g+4     :     0.000049
      g-4     :     0.000049

SPIN
  0 Scs       :     0.842333  s :     0.842333
      pz      :     0.118305  p :     0.129843
      px      :     0.005769
      py      :     0.005769
      dz2     :     0.068294  d :     0.091491
      dxz     :     0.011524
      dyz     :     0.011524
      dx2y2   :     0.000074
      dxy     :     0.000074
      f0      :     0.000100  f :    -0.001308
      f+1     :    -0.000731
      f-1     :    -0.000731
      f+2     :     0.000023
      f-2     :     0.000023
      f+3     :     0.000003
      f-3     :     0.000003
      g0      :     0.000018  g :    -0.000269
      g+1     :    -0.000146
      g-1     :    -0.000146
      g+2     :     0.000007
      g-2     :     0.000007
      g+3     :    -0.000003
      g-3     :    -0.000003
      g+4     :    -0.000001
      g-4     :    -0.000001
  1 O s       :    -0.008353  s :    -0.008353
      pz      :    -0.029114  p :    -0.054639
      px      :    -0.012762
      py      :    -0.012762
      dz2     :     0.000771  d :     0.000795
      dxz     :     0.000059
      dyz     :     0.000059
      dx2y2   :    -0.000047
      dxy     :    -0.000047
      f0      :     0.000107  f :     0.000102
      f+1     :     0.000007
      f-1     :     0.000007
      f+2     :    -0.000006
      f-2     :    -0.000006
      f+3     :    -0.000004
      f-3     :    -0.000004
      g0      :     0.000005  g :     0.000006
      g+1     :     0.000001
      g-1     :     0.000001
      g+2     :    -0.000000
      g-2     :    -0.000000
      g+3     :    -0.000000
      g-3     :    -0.000000
      g+4     :    -0.000000
      g-4     :    -0.000000


                     *******************************
                     * LOEWDIN POPULATION ANALYSIS *
                     *******************************

-----------------------------------------
LOEWDIN ATOMIC CHARGES AND SPIN DENSITIES
-----------------------------------------
   0 Sc:   -0.105853    1.023828
   1 O :    0.105853   -0.023828

--------------------------------------------------
LOEWDIN REDUCED ORBITAL CHARGES AND SPIN DENSITIES
--------------------------------------------------
CHARGE
  0 Scs       :     6.763926  s :     6.763926
      pz      :     4.205941  p :    12.254929
      px      :     4.024494
      py      :     4.024494
      dz2     :     0.757014  d :     1.698566
      dxz     :     0.450676
      dyz     :     0.450676
      dx2y2   :     0.020099
      dxy     :     0.020099
      f0      :     0.122596  f :     0.263348
      f+1     :     0.066155
      f-1     :     0.066155
      f+2     :     0.002817
      f-2     :     0.002817
      f+3     :     0.001404
      f-3     :     0.001404
      g0      :     0.057179  g :     0.125084
      g+1     :     0.033117
      g-1     :     0.033117
      g+2     :     0.000572
      g-2     :     0.000572
      g+3     :     0.000177
      g-3     :     0.000177
      g+4     :     0.000087
      g-4     :     0.000087
  1 O s       :     3.410237  s :     3.410237
      pz      :     1.523465  p :     4.299032
      px      :     1.387783
      py      :     1.387783
      dz2     :     0.095627  d :     0.149639
      dxz     :     0.020824
      dyz     :     0.020824
      dx2y2   :     0.006182
      dxy     :     0.006182
      f0      :     0.022677  f :     0.033725
      f+1     :     0.004325
      f-1     :     0.004325
      f+2     :     0.000652
      f-2     :     0.000652
      f+3     :     0.000548
      f-3     :     0.000548
      g0      :     0.000788  g :     0.001515
      g+1     :     0.000199
      g-1     :     0.000199
      g+2     :     0.000062
      g-2     :     0.000062
      g+3     :     0.000054
      g-3     :     0.000054
      g+4     :     0.000049
      g-4     :     0.000049

SPIN
  0 Scs       :     0.775640  s :     0.775640
      pz      :     0.147779  p :     0.157615
      px      :     0.004918
      py      :     0.004918
      dz2     :     0.074981  d :     0.095058
      dxz     :     0.009965
      dyz     :     0.009965
      dx2y2   :     0.000073
      dxy     :     0.000073
      f0      :    -0.000099  f :    -0.003021
      f+1     :    -0.001487
      f-1     :    -0.001487
      f+2     :     0.000022
      f-2     :     0.000022
      f+3     :     0.000003
      f-3     :     0.000003
      g0      :    -0.000199  g :    -0.001464
      g+1     :    -0.000635
      g-1     :    -0.000635
      g+2     :     0.000007
      g-2     :     0.000007
      g+3     :    -0.000003
      g-3     :    -0.000003
      g+4     :    -0.000001
      g-4     :    -0.000001
  1 O s       :     0.004533  s :     0.004533
      pz      :    -0.011669  p :    -0.030183
      px      :    -0.009257
      py      :    -0.009257
      dz2     :     0.000975  d :     0.001299
      dxz     :     0.000207
      dyz     :     0.000207
      dx2y2   :    -0.000045
      dxy     :    -0.000045
      f0      :     0.000502  f :     0.000501
      f+1     :     0.000009
      f-1     :     0.000009
      f+2     :    -0.000006
      f-2     :    -0.000006
      f+3     :    -0.000004
      f-3     :    -0.000004
      g0      :     0.000021  g :     0.000021
      g+1     :     0.000000
      g-1     :     0.000000
      g+2     :    -0.000000
      g-2     :    -0.000000
      g+3     :    -0.000000
      g-3     :    -0.000000
      g+4     :    -0.000000
      g-4     :    -0.000000


                      *****************************
                      * MAYER POPULATION ANALYSIS *
                      *****************************

  NA   - Mulliken gross atomic population
  ZA   - Total nuclear charge
  QA   - Mulliken gross atomic charge
  VA   - Mayer's total valence
  BVA  - Mayer's bonded valence
  FA   - Mayer's free valence

  ATOM       NA         ZA         QA         VA         BVA        FA
  0 Sc    20.5305    21.0000     0.4695     3.8233     2.0916     1.7317
  1 O      8.4695     8.0000    -0.4695     2.6565     2.0916     0.5649

  Mayer bond orders larger than 0.100000
B(  0-Sc,  1-O ) :   2.0916 



------------------------------------------------------------------------------- 
                                     TIMINGS                                   
------------------------------------------------------------------------------- 


Total execution time                   ...       74.825 sec

Fock Matrix Formation                  ...        0.885 sec (  1.2%)
Initial Guess                          ...        0.056 sec (  0.1%)
DIIS Solver                            ...        3.083 sec (  4.1%)
State Vector Update                    ...        0.140 sec (  0.2%)
Sigma-vector construction              ...       54.332 sec ( 72.6%)
  <0|H|D>                              ...        0.007 sec (  0.0% of sigma)
  <D|H|D>(0-ext Fock)                  ...        0.050 sec (  0.1% of sigma)
  <D|H|D>(0-ext)                       ...        0.178 sec (  0.3% of sigma)
  <D|H|D>(2-ext Fock)                  ...        0.021 sec (  0.0% of sigma)
  <D|H|D>(2-ext)                       ...        0.861 sec (  1.6% of sigma)
  <D|H|D>(4-ext)                       ...       32.290 sec ( 59.4% of sigma)
  <S|H|0>                              ...        2.326 sec (  4.3% of sigma)
  <S|H|S>                              ...        0.003 sec (  0.0% of sigma)
  <S|H|D>(1-ext)                       ...        0.012 sec (  0.0% of sigma)
  <D|H|S>(1-ext)                       ...        0.241 sec (  0.4% of sigma)
  Fock-dressing                        ...        9.126 sec ( 16.8% of sigma)
  (ik|jl)-dressing                     ...        0.202 sec (  0.4% of sigma)
  (ij|ab),(ia|jb)-dressing             ...        7.473 sec ( 13.8% of sigma)
  Pair energies                        ...        0.012 sec (  0.0% of sigma)
Total Time for computing (T)           ...        8.749 sec ( 11.7% of ALL)
  I/O of integral and amplitudes       ...        1.425 sec ( 16.3% of (T))
  External N**7 contributions          ...        2.996 sec ( 34.2% of (T))
  Internal N**7 contributions          ...        0.965 sec ( 11.0% of (T))
  N**6 triples energy contributions    ...        3.213 sec ( 36.7% of (T))


-------------------
EXTRAPOLATED ENERGY
-------------------


-----------------------------------------------------------------
                      EP1 - MDCI extrapolation:
-----------------------------------------------------------------
NOTE: We use as reference SCF energy, for the extrapolation, the one from the MDCI module and not the one 
from the SCF calculation. In case the first step is a DFT calculation these two might be different.

NOTE: For the SCF part we extrapolate based on the scheme proposed in J. Chem. Phys. 2008, 129, 184116
using the exponents from J. Chem. Theory Comput., 7, 33-43 (2011)

NOTE: For the correlation part we extrapolate based on the scheme proposed in J. Chem. Phys. 1997, 106, 9639
using the exponents from J. Chem. Theory Comput., 7, 33-43 (2011)


Alpha(3/4)     :  7.880 (SCF Extrapolation)
Beta(3/4)      :  2.970 (correlation extrapolation)

SCF energy with basis def2-TZVPP:                      -834.655695187
SCF energy with basis def2-QZVPP:                      -834.673530780
Extrapolated CBS SCF energy (3/4) :                    -834.675987432 (-0.002456651) 

MDCI energy with basis def2-TZVPP:                       -0.559364905
MDCI energy with basis def2-QZVPP:                       -0.626954633
Extrapolated CBS correlation energy (3/4) :              -0.677021060 (-0.050066428)

Estimated CBS total energy (3/4) :                     -835.353008492



-------------------------   --------------------
FINAL SINGLE POINT ENERGY      -835.353008491966
-------------------------   --------------------


                            ***************************************
                            *     ORCA property calculations      *
                            ***************************************

                                    ---------------------
                                    Active property flags
                                    ---------------------
   (+) Dipole Moment


------------------------------------------------------------------------------
                       ORCA ELECTRIC PROPERTIES CALCULATION
------------------------------------------------------------------------------

Dipole Moment Calculation                       ... on
Quadrupole Moment Calculation                   ... off
Polarizability Calculation                      ... off
GBWName                                         ... 05_ScO.gbw
Electron density file                           ... 05_ScO.scfp
The origin for moment calculation is the CENTER OF MASS  = ( 0.000000,  0.000000  1.140009)

-------------
DIPOLE MOMENT
-------------
                                X             Y             Z
Electronic contribution:      0.00000      -0.00000      -2.99286
Nuclear contribution   :      0.00000       0.00000       1.22710
                        -----------------------------------------
Total Dipole Moment    :      0.00000      -0.00000      -1.76576
                        -----------------------------------------
Magnitude (a.u.)       :      1.76576
Magnitude (Debye)      :      4.48820



--------------------
Rotational spectrum 
--------------------
 
Rotational constants in cm-1:     0.000000     0.512165     0.512165 
Rotational constants in MHz :     0.000000 15354.316375 15354.316375 

 Dipole components along the rotational axes: 
x,y,z [a.u.] :    -1.765758    -0.000000     0.000000 
x,y,z [Debye]:    -4.488201    -0.000000     0.000000 

 

                           *** MDCI DENSITY ***

------------------------------------------------------------------------------
                       ORCA ELECTRIC PROPERTIES CALCULATION
------------------------------------------------------------------------------

Dipole Moment Calculation                       ... on
Quadrupole Moment Calculation                   ... off
Polarizability Calculation                      ... off
GBWName                                         ... 05_ScO.gbw
Electron density file                           ... 05_ScO.mdcip
The origin for moment calculation is the CENTER OF MASS  = ( 0.000000,  0.000000  1.140009)

-------------
DIPOLE MOMENT
-------------
                                X             Y             Z
Electronic contribution:     -0.00000       0.00000      -2.54154
Nuclear contribution   :      0.00000       0.00000       1.22710
                        -----------------------------------------
Total Dipole Moment    :     -0.00000       0.00000      -1.31444
                        -----------------------------------------
Magnitude (a.u.)       :      1.31444
Magnitude (Debye)      :      3.34103



--------------------
Rotational spectrum 
--------------------
 
Rotational constants in cm-1:     0.000000     0.512165     0.512165 
Rotational constants in MHz :     0.000000 15354.316375 15354.316375 

 Dipole components along the rotational axes: 
x,y,z [a.u.] :    -1.314436     0.000000    -0.000000 
x,y,z [Debye]:    -3.341031     0.000000    -0.000000 

 

Timings for individual modules:

Sum of individual times         ...      110.544 sec (=   1.842 min)
GTO integral calculation        ...        1.528 sec (=   0.025 min)   1.4 %
SCF iterations                  ...       14.128 sec (=   0.235 min)  12.8 %
MDCI module                     ...       94.888 sec (=   1.581 min)  85.8 %
                             ****ORCA TERMINATED NORMALLY****
TOTAL RUN TIME: 0 days 0 hours 1 minutes 51 seconds 507 msec
