
                                 *****************
                                 * O   R   C   A *
                                 *****************

           --- An Ab Initio, DFT and Semiempirical electronic structure package ---

                  #######################################################
                  #                        -***-                        #
                  #          Department of theory and spectroscopy      #
                  #               Directorship: Frank Neese             #
                  #        Max Planck Institute fuer Kohlenforschung    #
                  #                Kaiser Wilhelm Platz 1               #
                  #                 D-45470 Muelheim/Ruhr               #
                  #                      Germany                        #
                  #                                                     #
                  #                  All rights reserved                #
                  #                        -***-                        #
                  #######################################################


                         Program Version 4.2.0 -  RELEASE  -


 With contributions from (in alphabetic order):
   Daniel Aravena         : Magnetic Suceptibility
   Michael Atanasov       : Ab Initio Ligand Field Theory (pilot matlab implementation)
   Alexander A. Auer      : GIAO ZORA, VPT2
   Ute Becker             : Parallelization
   Giovanni Bistoni       : ED, misc. LED, open-shell LED, HFLED
   Martin Brehm           : Molecular dynamics
   Dmytro Bykov           : SCF Hessian
   Vijay G. Chilkuri      : MRCI spin determinant printing, contributions to CSF-ICE
   Dipayan Datta          : RHF DLPNO-CCSD density
   Achintya Kumar Dutta   : EOM-CC, STEOM-CC
   Dmitry Ganyushin       : Spin-Orbit,Spin-Spin,Magnetic field MRCI
   Miquel Garcia          : C-PCM Hessian, Gaussian charge scheme
   Yang Guo               : DLPNO-NEVPT2, CIM, IAO-localization
   Andreas Hansen         : Spin unrestricted coupled pair/coupled cluster methods
   Benjamin Helmich-Paris : CASSCF linear response (MC-RPA)
   Lee Huntington         : MR-EOM, pCC
   Robert Izsak           : Overlap fitted RIJCOSX, COSX-SCS-MP3, EOM
   Christian Kollmar      : KDIIS, OOCD, Brueckner-CCSD(T), CCSD density
   Simone Kossmann        : Meta GGA functionals, TD-DFT gradient, OOMP2, MP2 Hessian
   Martin Krupicka        : AUTO-CI
   Lucas Lang             : DCDCAS
   Dagmar Lenk            : GEPOL surface, SMD
   Dimitrios Liakos       : Extrapolation schemes; Compound Job, initial MDCI parallelization
   Dimitrios Manganas     : Further ROCIS development; embedding schemes
   Dimitrios Pantazis     : SARC Basis sets
   Taras Petrenko         : DFT Hessian,TD-DFT gradient, ASA, ECA, R-Raman, ABS, FL, XAS/XES, NRVS
   Peter Pinski           : DLPNO-MP2, DLPNO-MP2 Gradient
   Christoph Reimann      : Effective Core Potentials
   Marius Retegan         : Local ZFS, SOC
   Christoph Riplinger    : Optimizer, TS searches, QM/MM, DLPNO-CCSD(T), (RO)-DLPNO pert. Triples
   Tobias Risthaus        : Range-separated hybrids, TD-DFT gradient, RPA, STAB
   Michael Roemelt        : Original ROCIS implementation
   Masaaki Saitow         : Open-shell DLPNO-CCSD energy and density
   Barbara Sandhoefer     : DKH picture change effects
   Avijit Sen             : IP-ROCIS
   Kantharuban Sivalingam : CASSCF convergence, NEVPT2, FIC-MRCI
   Bernardo de Souza      : ESD, SOC TD-DFT
   Georgi Stoychev        : AutoAux, RI-MP2 NMR
   Willem Van den Heuvel  : Paramagnetic NMR
   Boris Wezisla          : Elementary symmetry handling
   Frank Wennmohs         : Technical directorship


 We gratefully acknowledge several colleagues who have allowed us to
 interface, adapt or use parts of their codes:
   Stefan Grimme, W. Hujo, H. Kruse,             : VdW corrections, initial TS optimization,
                  C. Bannwarth                     DFT functionals, gCP, sTDA/sTD-DF
   Ed Valeev, F. Pavosevic, A. Kumar             : LibInt (2-el integral package), F12 methods
   Garnet Chan, S. Sharma, J. Yang, R. Olivares  : DMRG
   Ulf Ekstrom                                   : XCFun DFT Library
   Mihaly Kallay                                 : mrcc  (arbitrary order and MRCC methods)
   Andreas Klamt, Michael Diedenhofen            : otool_cosmo (COSMO solvation model)
   Jiri Pittner, Ondrej Demel                    : Mk-CCSD
   Frank Weinhold                                : gennbo (NPA and NBO analysis)
   Christopher J. Cramer and Donald G. Truhlar   : smd solvation model
   Lars Goerigk                                  : TD-DFT with DH, B97 family of functionals
   V. Asgeirsson, H. Jonsson                     : NEB implementation
   FAccTs GmbH                                   : IRC, NEB, NEB-TS, Multilevel, MM, QM/MM, CI optimization
   S Lehtola, MJT Oliveira, MAL Marques          : LibXC Library


 Your calculation uses the libint2 library for the computation of 2-el integrals
 For citations please refer to: http://libint.valeyev.net

 Your ORCA version has been built with support for libXC version: 4.2.3
 For citations please refer to: https://tddft.org/programs/libxc/

 This ORCA versions uses:
   CBLAS   interface :  Fast vector & matrix operations
   LAPACKE interface :  Fast linear algebra routines
   SCALAPACK package :  Parallel linear algebra routines


----- Orbital basis set information -----
Your calculation utilizes the basis: def2-TZVPP
   F. Weigend and R. Ahlrichs, Phys. Chem. Chem. Phys. 7, 3297 (2005).

================================================================================
                                        WARNINGS
                       Please study these warnings very carefully!
================================================================================


WARNING: your system is open-shell and RHF/RKS was chosen
  ===> : WILL SWITCH to UHF/UKS


WARNING: MDCI localization with Augmented Hessian Foster-Boys
  ===> : Switching off randomization!

WARNING: Post HF methods need fully converged wavefunctions
  ===> : Setting SCFConvForced true
         You can overwrite this default with %scf ConvForced false 


INFO   : the flag for use of LIBINT has been found!

================================================================================
                                       INPUT FILE
================================================================================
NAME = 08_TiF.in
|  1> #
|  2> # 08_TiF ccsd(t)/cbs
|  3> #
|  4> ! ccsd(t) extrapolate(3/4,def2) verytightscf
|  5> 
|  6> *xyz 0 4
|  7>   Ti  0.00000000000000      0.00000000000000      0.11041057480115
|  8>   F   0.00000000000000      0.00000000000000      1.88958942519885
|  9> *
| 10> 
| 11> %maxcore 5000
| 12> %pal
| 13> nprocs 24
| 14> end
| 15> 
| 16> 
| 17>                          ****END OF INPUT****
================================================================================

                   *****************************************
                   * Extrapolated Single Point Calculation *
                   *****************************************

----- Orbital basis set information -----
Your calculation utilizes the basis: def2-TZVPP
   F. Weigend and R. Ahlrichs, Phys. Chem. Chem. Phys. 7, 3297 (2005).

----- AuxJ basis set information -----
Your calculation utilizes the auxiliary basis: def2/J
   F. Weigend, Phys. Chem. Chem. Phys. 8, 1057 (2006).

----- AuxC basis set information -----
Your calculation utilizes the auxiliary basis: def2-TZVPP/C
  H-La, Hf-Rn : A. Hellweg, C. Hattig, S. Hofener and W. Klopper, Theor. Chem. Acc. 117, 587 (2007).
        Ce-Lu : J. Chmela and M. E. Harding, Mol. Phys. (2018).

----- AuxJK basis set information -----
Your calculation utilizes the auxiliary basis: def2/JK
   H-Ba, Hf-Rn: F. Weigend, J. Comput. Chem. 29, 167 (2008).

All done

                     -----------------------------------------
                     Extrapolated Energy 1 Basis=  def2-TZVPP
                     -----------------------------------------

---------------------------------
CARTESIAN COORDINATES (ANGSTROEM)
---------------------------------
  Ti     0.000000    0.000000    0.110411
  F      0.000000    0.000000    1.889589

----------------------------
CARTESIAN COORDINATES (A.U.)
----------------------------
  NO LB      ZA    FRAG     MASS         X           Y           Z
   0 Ti   22.0000    0    47.900    0.000000    0.000000    0.208646
   1 F     9.0000    0    18.998    0.000000    0.000000    3.570807

--------------------------------
INTERNAL COORDINATES (ANGSTROEM)
--------------------------------
 Ti     0   0   0     0.000000000000     0.00000000     0.00000000
 F      1   0   0     1.779178850398     0.00000000     0.00000000

---------------------------
INTERNAL COORDINATES (A.U.)
---------------------------
 Ti     0   0   0     0.000000000000     0.00000000     0.00000000
 F      1   0   0     3.362160770517     0.00000000     0.00000000

---------------------
BASIS SET INFORMATION
---------------------
There are 2 groups of distinct atoms

 Group   1 Type Ti  : 17s12p7d2f1g contracted to 6s5p4d2f1g pattern {842111/63111/4111/11/1}
 Group   2 Type F   : 11s6p2d1f contracted to 5s3p2d1f pattern {62111/411/11/1}

Atom   0Ti   basis set group =>   1
Atom   1F    basis set group =>   2
---------------------------------
AUXILIARY/J BASIS SET INFORMATION
---------------------------------
There are 2 groups of distinct atoms

 Group   1 Type Ti  : 19s5p5d3f3g contracted to 8s5p5d2f3g pattern {121111111/11111/11111/21/111}
 Group   2 Type F   : 12s5p4d2f1g contracted to 6s4p3d1f1g pattern {711111/2111/211/2/1}

Atom   0Ti   basis set group =>   1
Atom   1F    basis set group =>   2
---------------------------------
AUXILIARY/C BASIS SET INFORMATION
---------------------------------
There are 2 groups of distinct atoms

 Group   1 Type Ti  : 9s9p8d7f5g3h1i contracted to 9s9p8d7f5g3h1i pattern {111111111/111111111/11111111/1111111/11111/111/1}
 Group   2 Type F   : 8s6p5d3f1g contracted to 8s6p4d3f1g pattern {11111111/111111/2111/111/1}

Atom   0Ti   basis set group =>   1
Atom   1F    basis set group =>   2
----------------------------------
AUXILIARY/JK BASIS SET INFORMATION
----------------------------------
There are 2 groups of distinct atoms

 Group   1 Type Ti  : 19s14p12d10f7g3h1i contracted to 16s13p11d9f5g3h1i pattern {4111111111111111/2111111111111/21111111111/211111111/31111/111/1}
 Group   2 Type F   : 14s10p6d2f1g contracted to 10s8p4d2f1g pattern {5111111111/31111111/3111/11/1}

Atom   0Ti   basis set group =>   1
Atom   1F    basis set group =>   2


           ************************************************************
           *        Program running with 24 parallel MPI-processes    *
           *              working on a common directory               *
           ************************************************************
------------------------------------------------------------------------------
                           ORCA GTO INTEGRAL CALCULATION
------------------------------------------------------------------------------

                         BASIS SET STATISTICS AND STARTUP INFO

 # of primitive gaussian shells          ...   59
 # of primitive gaussian functions       ...  157
 # of contracted shells                  ...   29
 # of contracted basis functions         ...   95
 Highest angular momentum                ...    4
 Maximum contraction depth               ...    8
 Integral package used                   ... LIBINT
 Integral threshhold            Thresh   ...  1.000e-12
 Primitive cut-off              TCut     ...  1.000e-14


------------------------------ INTEGRAL EVALUATION ----------------------------


 * One electron integrals 
 Pre-screening matrix                    ... done
 Shell pair data                         ... done (   0.000 sec)



           ************************************************************
           *        Program running with 24 parallel MPI-processes    *
           *              working on a common directory               *
           ************************************************************
-------------------------------------------------------------------------------
                                 ORCA SCF
-------------------------------------------------------------------------------

------------
SCF SETTINGS
------------
Hamiltonian:
 Ab initio Hamiltonian  Method          .... Hartree-Fock(GTOs)


General Settings:
 Integral files         IntName         .... 08_TiF
 Hartree-Fock type      HFTyp           .... UHF
 Total Charge           Charge          ....    0
 Multiplicity           Mult            ....    4
 Number of Electrons    NEL             ....   31
 Basis Dimension        Dim             ....   95
 Nuclear Repulsion      ENuc            ....     58.8906996168 Eh

Convergence Acceleration:
 DIIS                   CNVDIIS         .... on
   Start iteration      DIISMaxIt       ....    12
   Startup error        DIISStart       ....  0.200000
   # of expansion vecs  DIISMaxEq       ....     5
   Bias factor          DIISBfac        ....   1.050
   Max. coefficient     DIISMaxC        ....  10.000
 Newton-Raphson         CNVNR           .... off
 SOSCF                  CNVSOSCF        .... off
 Level Shifting         CNVShift        .... on
   Level shift para.    LevelShift      ....    0.2500
   Turn off err/grad.   ShiftErr        ....    0.0010
 Zerner damping         CNVZerner       .... off
 Static damping         CNVDamp         .... on
   Fraction old density DampFac         ....    0.7000
   Max. Damping (<1)    DampMax         ....    0.9800
   Min. Damping (>=0)   DampMin         ....    0.0000
   Turn off err/grad.   DampErr         ....    0.1000
 Fernandez-Rico         CNVRico         .... off

SCF Procedure:
 Maximum # iterations   MaxIter         ....   125
 SCF integral mode      SCFMode         .... Direct
   Integral package                     .... LIBINT
 Reset frequency        DirectResetFreq ....    20
 Integral Threshold     Thresh          ....  1.000e-12 Eh
 Primitive CutOff       TCut            ....  1.000e-14 Eh

Convergence Tolerance:
 Convergence Check Mode ConvCheckMode   .... Total+1el-Energy
 Convergence forced     ConvForced      .... 1
 Energy Change          TolE            ....  1.000e-09 Eh
 1-El. energy change                    ....  1.000e-06 Eh
 DIIS Error             TolErr          ....  1.000e-08


Diagonalization of the overlap matrix:
Smallest eigenvalue                        ... 2.694e-03
Time for diagonalization                   ...    0.002 sec
Threshold for overlap eigenvalues          ... 1.000e-08
Number of eigenvalues below threshold      ... 0
Time for construction of square roots      ...    0.001 sec
Total time needed                          ...    0.004 sec

-------------------
DFT GRID GENERATION
-------------------

General Integration Accuracy     IntAcc      ...  4.340
Radial Grid Type                 RadialGrid  ... Gauss-Chebyshev
Angular Grid (max. acc.)         AngularGrid ... Lebedev-110
Angular grid pruning method      GridPruning ... 3 (G Style)
Weight generation scheme         WeightScheme... Becke
Basis function cutoff            BFCut       ...    1.0000e-12
Integration weight cutoff        WCut        ...    1.0000e-14
Grids for H and He will be reduced by one unit

# of grid points (after initial pruning)     ...   4712 (   0.0 sec)
# of grid points (after weights+screening)   ...   4687 (   0.0 sec)
nearest neighbour list constructed           ...    0.0 sec
Grid point re-assignment to atoms done       ...    0.0 sec
Grid point division into batches done        ...    0.0 sec
Reduced shell lists constructed in    0.0 sec

Total number of grid points                  ...     4687
Total number of batches                      ...       75
Average number of points per batch           ...       62
Average number of grid points per atom       ...     2344
Average number of shells per batch           ...     9.60 (33.10%)
Average number of basis functions per batch  ...    33.60 (35.37%)
Average number of large shells per batch     ...     6.80 (70.83%)
Average number of large basis fcns per batch ...    22.80 (67.86%)
Maximum spatial batch extension              ...  18.98, 28.73, 15.95 au
Average spatial batch extension              ...   0.93,  1.29,  0.85 au

Time for grid setup =    0.021 sec

------------------------------
INITIAL GUESS: MODEL POTENTIAL
------------------------------
Loading Hartree-Fock densities                     ... done
Calculating cut-offs                               ... done
Setting up the integral package                    ... done
Initializing the effective Hamiltonian             ... done
Starting the Coulomb interaction                   ... done (   0.0 sec)
Reading the grid                                   ... done
Mapping shells                                     ... done
Starting the XC term evaluation                    ... done (   0.0 sec)
Transforming the Hamiltonian                       ... done (   0.0 sec)
Diagonalizing the Hamiltonian                      ... done (   0.0 sec)
Back transforming the eigenvectors                 ... done (   0.0 sec)
Now organizing SCF variables                       ... done
                      ------------------
                      INITIAL GUESS DONE (   0.1 sec)
                      ------------------
--------------
SCF ITERATIONS
--------------
ITER       Energy         Delta-E        Max-DP      RMS-DP      [F,P]     Damp
               ***  Starting incremental Fock matrix formation  ***
  0   -947.8440328234   0.000000000000 0.01505326  0.00053398  0.3349703 0.7000
  1   -947.8723001800  -0.028267356591 0.01216878  0.00040629  0.2492611 0.7000
                               ***Turning on DIIS***
  2   -947.8899147279  -0.017614547912 0.01010989  0.00029082  0.1838886 0.7000
  3   -948.3159127082  -0.425997980336 0.00983071  0.00023668  0.1340957 0.7000
  4   -948.2598366078   0.056076100407 0.03369808  0.00073608  0.0943263 0.0000
  5   -947.9542814087   0.305555199141 0.01280142  0.00026730  0.0151587 0.0000
  6   -947.9550529885  -0.000771579803 0.01302896  0.00028817  0.0131179 0.0000
  7   -948.0369364970  -0.081883508558 0.01743642  0.00042947  0.0117626 0.0000
  8   -948.0056306194   0.031305877655 0.01514166  0.00035544  0.0097570 0.0000
  9   -948.0647705753  -0.059139955889 0.01852921  0.00042975  0.0073650 0.0000
 10   -947.9939453973   0.070825177940 0.01062336  0.00021705  0.0049861 0.0000
 11   -948.0217830323  -0.027837635017 0.01072024  0.00025203  0.0035190 0.0000
 12   -947.9968294772   0.024953555138 0.00939742  0.00014397  0.0023431 0.0000
 13   -947.9752672047   0.021562272460 0.00724181  0.00009890  0.0015628 0.0000
 14   -947.9639412439   0.011325960810 0.00714193  0.00010049  0.0009676 0.0000
 15   -947.9483695590   0.015571684969 0.00079261  0.00001395  0.0002071 0.0000
 16   -947.9477717278   0.000597831151 0.00029574  0.00000531  0.0000767 0.0000
 17   -947.9478932718  -0.000121543943 0.00013649  0.00000254  0.0000347 0.0000
 18   -947.9476221020   0.000271169736 0.00003376  0.00000078  0.0000113 0.0000
 19   -947.9476894550  -0.000067352996 0.00001614  0.00000042  0.0000049 0.0000
               *** Restarting incremental Fock matrix formation ***
                                   *** Resetting DIIS ***
 20   -947.9477058773  -0.000016422284 0.00000403  0.00000016  0.0000028 0.0000
 21   -947.9477086334  -0.000002756097 0.00000564  0.00000018  0.0000023 0.0000
 22   -947.9476953810   0.000013252437 0.00000850  0.00000027  0.0000017 0.0000
 23   -947.9477002014  -0.000004820462 0.00000201  0.00000005  0.0000006 0.0000
 24   -947.9477042810  -0.000004079533 0.00000081  0.00000003  0.0000003 0.0000
 25   -947.9477055189  -0.000001237972 0.00000096  0.00000003  0.0000001 0.0000
 26   -947.9477058972  -0.000000378283 0.00000028  0.00000001  0.0000000 0.0000
                            ***DIIS convergence achieved***

               *****************************************************
               *                     SUCCESS                       *
               *           SCF CONVERGED AFTER  27 CYCLES          *
               *****************************************************


----------------
TOTAL SCF ENERGY
----------------

Total Energy       :         -947.94770588 Eh          -25794.96847 eV

Components:
Nuclear Repulsion  :           58.89069962 Eh            1602.49741 eV
Electronic Energy  :        -1006.83840549 Eh          -27397.46587 eV
One Electron Energy:        -1421.43754162 Eh          -38679.28192 eV
Two Electron Energy:          414.59913613 Eh           11281.81605 eV

Virial components:
Potential Energy   :        -1895.87220379 Eh          -51589.30541 eV
Kinetic Energy     :          947.92449792 Eh           25794.33695 eV
Virial Ratio       :            2.00002448


---------------
SCF CONVERGENCE
---------------

  Last Energy change         ...    2.0400e-08  Tolerance :   1.0000e-09
  Last MAX-Density change    ...    8.1177e-08  Tolerance :   1.0000e-08
  Last RMS-Density change    ...    2.4115e-09  Tolerance :   1.0000e-09
  Last DIIS Error            ...    8.3523e-09  Tolerance :   1.0000e-08

             **** THE GBW FILE WAS UPDATED (08_TiF.gbw) ****
             **** DENSITY FILE WAS UPDATED (08_TiF.scfp) ****
             **** ENERGY FILE WAS UPDATED (08_TiF.en.tmp) ****
----------------------
UHF SPIN CONTAMINATION
----------------------

Expectation value of <S**2>     :     3.754205
Ideal value S*(S+1) for S=1.5   :     3.750000
Deviation                       :     0.004205

             **** THE GBW FILE WAS UPDATED (08_TiF.gbw) ****
             **** DENSITY FILE WAS UPDATED (08_TiF.scfp) ****
----------------
ORBITAL ENERGIES
----------------
                 SPIN UP ORBITALS
  NO   OCC          E(Eh)            E(eV) 
   0   1.0000    -183.251220     -4986.5192 
   1   1.0000     -26.214552      -713.3342 
   2   1.0000     -21.416698      -582.7780 
   3   1.0000     -17.787884      -484.0329 
   4   1.0000     -17.784021      -483.9278 
   5   1.0000     -17.784021      -483.9278 
   6   1.0000      -2.912386       -79.2501 
   7   1.0000      -1.877308       -51.0842 
   8   1.0000      -1.877308       -51.0842 
   9   1.0000      -1.819008       -49.4977 
  10   1.0000      -1.471226       -40.0341 
  11   1.0000      -0.607418       -16.5287 
  12   1.0000      -0.582616       -15.8538 
  13   1.0000      -0.582616       -15.8538 
  14   1.0000      -0.374685       -10.1957 
  15   1.0000      -0.374685       -10.1957 
  16   1.0000      -0.244337        -6.6487 
  17   0.0000       0.033994         0.9250 
  18   0.0000       0.033994         0.9250 
  19   0.0000       0.054556         1.4845 
  20   0.0000       0.130635         3.5548 
  21   0.0000       0.148923         4.0524 
  22   0.0000       0.148923         4.0524 
  23   0.0000       0.156872         4.2687 
  24   0.0000       0.156872         4.2687 
  25   0.0000       0.198492         5.4012 
  26   0.0000       0.215959         5.8765 
  27   0.0000       0.215959         5.8765 
  28   0.0000       0.239236         6.5099 
  29   0.0000       0.364522         9.9191 
  30   0.0000       0.364522         9.9191 
  31   0.0000       0.492669        13.4062 
  32   0.0000       0.636935        17.3319 
  33   0.0000       0.636935        17.3319 
  34   0.0000       0.692448        18.8425 
  35   0.0000       0.707973        19.2649 
  36   0.0000       0.707973        19.2649 
  37   0.0000       0.795020        21.6336 
  38   0.0000       0.850080        23.1318 
  39   0.0000       0.850080        23.1318 
  40   0.0000       0.863506        23.4972 
  41   0.0000       0.863506        23.4972 
  42   0.0000       0.882457        24.0129 
  43   0.0000       0.882457        24.0129 
  44   0.0000       1.018358        27.7109 
  45   0.0000       1.018358        27.7109 
  46   0.0000       1.205725        32.8094 
  47   0.0000       1.334120        36.3032 
  48   0.0000       1.645384        44.7732 
  49   0.0000       1.691019        46.0150 
  50   0.0000       1.691019        46.0150 
  51   0.0000       1.881983        51.2114 
  52   0.0000       2.284339        62.1600 
  53   0.0000       2.284339        62.1600 
  54   0.0000       2.306237        62.7559 
  55   0.0000       2.306237        62.7559 
  56   0.0000       2.339568        63.6629 
  57   0.0000       2.350579        63.9625 
  58   0.0000       2.350579        63.9625 
  59   0.0000       2.533478        68.9395 
  60   0.0000       2.533478        68.9395 
  61   0.0000       2.861896        77.8761 
  62   0.0000       2.861896        77.8761 
  63   0.0000       2.865542        77.9754 
  64   0.0000       2.865542        77.9754 
  65   0.0000       2.944381        80.1207 
  66   0.0000       2.957812        80.4861 
  67   0.0000       2.957812        80.4861 
  68   0.0000       3.267171        88.9042 
  69   0.0000       3.267171        88.9042 
  70   0.0000       3.273769        89.0838 
  71   0.0000       3.300882        89.8216 
  72   0.0000       3.300882        89.8216 
  73   0.0000       3.318631        90.3046 
  74   0.0000       3.318631        90.3046 
  75   0.0000       3.407591        92.7253 
  76   0.0000       3.407591        92.7253 
  77   0.0000       3.470449        94.4357 
  78   0.0000       3.908533       106.3566 
  79   0.0000       3.908533       106.3566 
  80   0.0000       4.284950       116.5994 
  81   0.0000       4.830167       131.4355 
  82   0.0000       7.451654       202.7698 
  83   0.0000       7.451654       202.7698 
  84   0.0000       7.478813       203.5088 
  85   0.0000       7.478813       203.5088 
  86   0.0000       7.574168       206.1036 
  87   0.0000       7.574168       206.1036 
  88   0.0000       7.664455       208.5604 
  89   0.0000       8.976890       244.2736 
  90   0.0000       8.976890       244.2736 
  91   0.0000       9.282501       252.5897 
  92   0.0000       9.282501       252.5897 
  93   0.0000       9.480766       257.9848 
  94   0.0000      58.747535      1598.6017 

                 SPIN DOWN ORBITALS
  NO   OCC          E(Eh)            E(eV) 
   0   1.0000    -183.249746     -4986.4791 
   1   1.0000     -26.217159      -713.4052 
   2   1.0000     -21.383499      -581.8746 
   3   1.0000     -17.779606      -483.8077 
   4   1.0000     -17.740530      -482.7444 
   5   1.0000     -17.740530      -482.7444 
   6   1.0000      -2.786021       -75.8115 
   7   1.0000      -1.793145       -48.7940 
   8   1.0000      -1.660909       -45.1956 
   9   1.0000      -1.660909       -45.1956 
  10   1.0000      -1.475670       -40.1550 
  11   1.0000      -0.611611       -16.6428 
  12   1.0000      -0.588972       -16.0267 
  13   1.0000      -0.588972       -16.0267 
  14   0.0000       0.015235         0.4146 
  15   0.0000       0.090758         2.4696 
  16   0.0000       0.090758         2.4696 
  17   0.0000       0.102174         2.7803 
  18   0.0000       0.142168         3.8686 
  19   0.0000       0.142168         3.8686 
  20   0.0000       0.168515         4.5855 
  21   0.0000       0.168515         4.5855 
  22   0.0000       0.177059         4.8180 
  23   0.0000       0.219580         5.9751 
  24   0.0000       0.252566         6.8727 
  25   0.0000       0.252566         6.8727 
  26   0.0000       0.281502         7.6601 
  27   0.0000       0.287677         7.8281 
  28   0.0000       0.287677         7.8281 
  29   0.0000       0.417365        11.3571 
  30   0.0000       0.417365        11.3571 
  31   0.0000       0.529396        14.4056 
  32   0.0000       0.728497        19.8234 
  33   0.0000       0.742265        20.1981 
  34   0.0000       0.742265        20.1981 
  35   0.0000       0.759216        20.6593 
  36   0.0000       0.759216        20.6593 
  37   0.0000       0.800466        21.7818 
  38   0.0000       0.883251        24.0345 
  39   0.0000       0.883251        24.0345 
  40   0.0000       0.901460        24.5300 
  41   0.0000       0.901460        24.5300 
  42   0.0000       0.919765        25.0281 
  43   0.0000       0.919765        25.0281 
  44   0.0000       1.041044        28.3283 
  45   0.0000       1.041044        28.3283 
  46   0.0000       1.216368        33.0991 
  47   0.0000       1.347109        36.6567 
  48   0.0000       1.658405        45.1275 
  49   0.0000       1.751575        47.6628 
  50   0.0000       1.751575        47.6628 
  51   0.0000       1.925900        52.4064 
  52   0.0000       2.300043        62.5873 
  53   0.0000       2.300043        62.5873 
  54   0.0000       2.310337        62.8675 
  55   0.0000       2.310337        62.8675 
  56   0.0000       2.389070        65.0099 
  57   0.0000       2.469800        67.2067 
  58   0.0000       2.469800        67.2067 
  59   0.0000       2.558312        69.6152 
  60   0.0000       2.558312        69.6152 
  61   0.0000       2.906088        79.0787 
  62   0.0000       2.906088        79.0787 
  63   0.0000       2.929079        79.7043 
  64   0.0000       2.929079        79.7043 
  65   0.0000       2.961647        80.5905 
  66   0.0000       2.982689        81.1631 
  67   0.0000       2.982689        81.1631 
  68   0.0000       3.283888        89.3591 
  69   0.0000       3.319442        90.3266 
  70   0.0000       3.319442        90.3266 
  71   0.0000       3.387724        92.1847 
  72   0.0000       3.387724        92.1847 
  73   0.0000       3.428942        93.3063 
  74   0.0000       3.428942        93.3063 
  75   0.0000       3.438105        93.5556 
  76   0.0000       3.438105        93.5556 
  77   0.0000       3.494335        95.0857 
  78   0.0000       3.908966       106.3684 
  79   0.0000       3.908966       106.3684 
  80   0.0000       4.283214       116.5522 
  81   0.0000       4.831639       131.4756 
  82   0.0000       7.449798       202.7193 
  83   0.0000       7.449798       202.7193 
  84   0.0000       7.477083       203.4618 
  85   0.0000       7.477083       203.4618 
  86   0.0000       7.572657       206.0625 
  87   0.0000       7.572657       206.0625 
  88   0.0000       7.663037       208.5218 
  89   0.0000       8.972934       244.1659 
  90   0.0000       8.972934       244.1659 
  91   0.0000       9.278818       252.4895 
  92   0.0000       9.278818       252.4895 
  93   0.0000       9.477263       257.8894 
  94   0.0000      58.746160      1598.5643 

                    ********************************
                    * MULLIKEN POPULATION ANALYSIS *
                    ********************************

--------------------------------------------
MULLIKEN ATOMIC CHARGES AND SPIN POPULATIONS
--------------------------------------------
   0 Ti:    0.576137    3.039632
   1 F :   -0.576137   -0.039632
Sum of atomic charges         :   -0.0000000
Sum of atomic spin populations:    3.0000000

-----------------------------------------------------
MULLIKEN REDUCED ORBITAL CHARGES AND SPIN POPULATIONS
-----------------------------------------------------
CHARGE
  0 Tis       :     6.852962  s :     6.852962
      pz      :     4.187128  p :    12.227790
      px      :     4.020331
      py      :     4.020331
      dz2     :     0.155620  d :     2.289278
      dxz     :     0.067063
      dyz     :     0.067063
      dx2y2   :     0.999766
      dxy     :     0.999766
      f0      :     0.010866  f :     0.047778
      f+1     :     0.018331
      f-1     :     0.018331
      f+2     :     0.000125
      f-2     :     0.000125
      f+3     :     0.000000
      f-3     :     0.000000
      g0      :     0.001910  g :     0.006054
      g+1     :     0.002072
      g-1     :     0.002072
      g+2     :     0.000001
      g-2     :     0.000001
      g+3     :     0.000000
      g-3     :     0.000000
      g+4     :     0.000000
      g-4     :     0.000000
  1 F s       :     3.963894  s :     3.963894
      pz      :     1.825041  p :     5.606158
      px      :     1.890559
      py      :     1.890559
      dz2     :     0.002495  d :     0.005926
      dxz     :     0.001613
      dyz     :     0.001613
      dx2y2   :     0.000103
      dxy     :     0.000103
      f0      :     0.000085  f :     0.000159
      f+1     :     0.000031
      f-1     :     0.000031
      f+2     :     0.000005
      f-2     :     0.000005
      f+3     :     0.000000
      f-3     :     0.000000

SPIN
  0 Tis       :     0.825410  s :     0.825410
      pz      :     0.155315  p :     0.161958
      px      :     0.003322
      py      :     0.003322
      dz2     :     0.038028  d :     2.051949
      dxz     :     0.007194
      dyz     :     0.007194
      dx2y2   :     0.999766
      dxy     :     0.999766
      f0      :    -0.000046  f :     0.000648
      f+1     :     0.000222
      f-1     :     0.000222
      f+2     :     0.000125
      f-2     :     0.000125
      f+3     :     0.000000
      f-3     :     0.000000
      g0      :    -0.000144  g :    -0.000333
      g+1     :    -0.000096
      g-1     :    -0.000096
      g+2     :     0.000001
      g-2     :     0.000001
      g+3     :     0.000000
      g-3     :     0.000000
      g+4     :     0.000000
      g-4     :     0.000000
  1 F s       :    -0.002475  s :    -0.002475
      pz      :    -0.016337  p :    -0.037761
      px      :    -0.010712
      py      :    -0.010712
      dz2     :     0.000242  d :     0.000588
      dxz     :     0.000070
      dyz     :     0.000070
      dx2y2   :     0.000103
      dxy     :     0.000103
      f0      :     0.000005  f :     0.000016
      f+1     :    -0.000000
      f-1     :    -0.000000
      f+2     :     0.000005
      f-2     :     0.000005
      f+3     :     0.000000
      f-3     :     0.000000


                     *******************************
                     * LOEWDIN POPULATION ANALYSIS *
                     *******************************

-------------------------------------------
LOEWDIN ATOMIC CHARGES AND SPIN POPULATIONS
-------------------------------------------
   0 Ti:    0.144747    3.024887
   1 F :   -0.144747   -0.024887

----------------------------------------------------
LOEWDIN REDUCED ORBITAL CHARGES AND SPIN POPULATIONS
----------------------------------------------------
CHARGE
  0 Tis       :     6.818183  s :     6.818183
      pz      :     4.279865  p :    12.342642
      px      :     4.031389
      py      :     4.031389
      dz2     :     0.273435  d :     2.485929
      dxz     :     0.106614
      dyz     :     0.106614
      dx2y2   :     0.999633
      dxy     :     0.999633
      f0      :     0.074501  f :     0.179846
      f+1     :     0.052539
      f-1     :     0.052539
      f+2     :     0.000133
      f-2     :     0.000133
      f+3     :     0.000000
      f-3     :     0.000000
      g0      :     0.014521  g :     0.028652
      g+1     :     0.007064
      g-1     :     0.007064
      g+2     :     0.000001
      g-2     :     0.000001
      g+3     :     0.000000
      g-3     :     0.000000
      g+4     :     0.000000
      g-4     :     0.000000
  1 F s       :     3.689235  s :     3.689235
      pz      :     1.843317  p :     5.446945
      px      :     1.801814
      py      :     1.801814
      dz2     :     0.006721  d :     0.008291
      dxz     :     0.000567
      dyz     :     0.000567
      dx2y2   :     0.000218
      dxy     :     0.000218
      f0      :     0.000221  f :     0.000277
      f+1     :     0.000013
      f-1     :     0.000013
      f+2     :     0.000015
      f-2     :     0.000015
      f+3     :     0.000000
      f-3     :     0.000000

SPIN
  0 Tis       :     0.787730  s :     0.787730
      pz      :     0.175652  p :     0.182083
      px      :     0.003215
      py      :     0.003215
      dz2     :     0.042737  d :     2.055604
      dxz     :     0.006800
      dyz     :     0.006800
      dx2y2   :     0.999633
      dxy     :     0.999633
      f0      :     0.000228  f :     0.000004
      f+1     :    -0.000245
      f-1     :    -0.000245
      f+2     :     0.000133
      f-2     :     0.000133
      f+3     :     0.000000
      f-3     :     0.000000
      g0      :    -0.000226  g :    -0.000534
      g+1     :    -0.000155
      g-1     :    -0.000155
      g+2     :     0.000001
      g-2     :     0.000001
      g+3     :     0.000000
      g-3     :     0.000000
      g+4     :     0.000000
      g-4     :     0.000000
  1 F s       :     0.002923  s :     0.002923
      pz      :    -0.009034  p :    -0.028319
      px      :    -0.009642
      py      :    -0.009642
      dz2     :    -0.000009  d :     0.000482
      dxz     :     0.000028
      dyz     :     0.000028
      dx2y2   :     0.000218
      dxy     :     0.000218
      f0      :    -0.000001  f :     0.000026
      f+1     :    -0.000001
      f-1     :    -0.000001
      f+2     :     0.000015
      f-2     :     0.000015
      f+3     :     0.000000
      f-3     :     0.000000


                      *****************************
                      * MAYER POPULATION ANALYSIS *
                      *****************************

  NA   - Mulliken gross atomic population
  ZA   - Total nuclear charge
  QA   - Mulliken gross atomic charge
  VA   - Mayer's total valence
  BVA  - Mayer's bonded valence
  FA   - Mayer's free valence

  ATOM       NA         ZA         QA         VA         BVA        FA
  0 Ti    21.4239    22.0000     0.5761     3.7816     0.7723     3.0093
  1 F      9.5761     9.0000    -0.5761     0.7730     0.7723     0.0006

  Mayer bond orders larger than 0.100000
B(  0-Ti,  1-F ) :   0.7723 

-------
TIMINGS
-------

Total SCF time: 0 days 0 hours 0 min 3 sec 

Total time                  ....       3.976 sec
Sum of individual times     ....       3.691 sec  ( 92.8%)

Fock matrix formation       ....       3.438 sec  ( 86.5%)
Diagonalization             ....       0.072 sec  (  1.8%)
Density matrix formation    ....       0.012 sec  (  0.3%)
Population analysis         ....       0.005 sec  (  0.1%)
Initial guess               ....       0.109 sec  (  2.7%)
Orbital Transformation      ....       0.000 sec  (  0.0%)
Orbital Orthonormalization  ....       0.000 sec  (  0.0%)
DIIS solution               ....       0.034 sec  (  0.8%)


           ************************************************************
           *        Program running with 24 parallel MPI-processes    *
           *              working on a common directory               *
           ************************************************************


------------------------------------------------------------------------------- 
                              ORCA-MATRIX DRIVEN CI                            
------------------------------------------------------------------------------- 

--------------------------------
AUTOMATIC CHOICE OF INCORE LEVEL
--------------------------------

Memory available                           ...   2500.00 MB
Memory needed for S+T                      ...      9.19 MB
Memory needed for J+K                      ...     18.46 MB
Memory needed for DIIS                     ...    128.67 MB
Memory needed for 3-ext                    ...     39.83 MB
Memory needed for 4-ext                    ...    143.01 MB
Memory needed for triples                  ...     18.10 MB
 -> Final InCoreLevel    ... 5
 -> check shows that triples correction can be computed


Wavefunction type
-----------------
Correlation treatment                      ...      CCSD     
Single excitations                         ... ON
Orbital optimization                       ... OFF
Calculation of Z vector                    ... OFF
Calculation of Brueckner orbitals          ... OFF
Perturbative triple excitations            ... ON
Calculation of F12 correction              ... OFF
Frozen core treatment                      ... chemical core (12 el)
Reference Wavefunction                     ... UHF
  Alpha-MOs occ    :     6 ...   16 ( 11 MO's/ 11 electrons)
  Beta-MOs occ     :     6 ...   13 (  8 MO's/  8 electrons)
  Alpha-MOs virt   :    17 ...   94 ( 78 MO's              )
  Beta-MOs virt    :    14 ...   94 ( 81 MO's              )
Number of AO's                             ...     95
Number of electrons                        ...     31
Number of correlated electrons             ...     19

Algorithmic settings
--------------------
Integral transformation                    ... AO direct full transformation
K(C) Formation                             ... FULL-MO TRAFO
Maximum number of iterations               ...        50
Convergence tolerance (max. residuum)      ... 1.000e-06
Level shift for amplitude update           ... 2.000e-01
Maximum number of DIIS vectors             ...         7
DIIS turned on at iteration                ...         0
Damping before turning on DIIS             ...     0.500
Damping after turning on DIIS              ...     0.000
Pair specific amplitude update             ... OFF
Natural orbital iterations                 ... OFF
Perturbative natural orbital generation    ... OFF
Printlevel                                 ... 2

Memory handling:
----------------
Maximum memory for working arrays          ...   2500 MB
Data storage in matrix containers          ... UNCOMPRESSED
Data type for integral storage             ... DOUBLE
In-Core Storage of quantities:
   Amplitudes+Sigma Vector      ... YES
   J+K operators                ... YES
   DIIS vectors                 ... YES
   3-external integrals         ... YES
   4-external integrals         ... YES


Initializing the integral package          ... done
Warning: reference  - re-canonicalizations have been set to INT 1 VIRT 1

--------------------------
UNRESTRICTED FOCK OPERATOR
--------------------------

<ss|ss>:         1953 b            6 skpd (  0.3%)    0.001 s ( 0.000 ms/b)
<ss|sp>:         5332 b           19 skpd (  0.4%)    0.001 s ( 0.000 ms/b)
<ss|sd>:         4030 b           10 skpd (  0.2%)    0.001 s ( 0.000 ms/b)
<ss|sf>:         2046 b           10 skpd (  0.5%)    0.000 s ( 0.000 ms/b)
<ss|sg>:          682 b            2 skpd (  0.3%)    0.000 s ( 0.001 ms/b)
<ss|pp>:         2232 b            5 skpd (  0.2%)    0.001 s ( 0.001 ms/b)
<ss|pd>:         2976 b           12 skpd (  0.4%)    0.001 s ( 0.000 ms/b)
<ss|pf>:         1488 b            4 skpd (  0.3%)    0.000 s ( 0.000 ms/b)
<ss|pg>:          496 b            1 skpd (  0.2%)    0.001 s ( 0.001 ms/b)
<ss|dd>:         1302 b            1 skpd (  0.1%)    0.001 s ( 0.001 ms/b)
<ss|df>:         1116 b            3 skpd (  0.3%)    0.000 s ( 0.000 ms/b)
<ss|dg>:          372 b            1 skpd (  0.3%)    0.001 s ( 0.002 ms/b)
<ss|ff>:          372 b            0 skpd (  0.0%)    0.000 s ( 0.001 ms/b)
<ss|fg>:          186 b            0 skpd (  0.0%)    0.000 s ( 0.002 ms/b)
<ss|gg>:           62 b            0 skpd (  0.0%)    0.001 s ( 0.009 ms/b)
<sp|sp>:         3741 b           18 skpd (  0.5%)    0.001 s ( 0.000 ms/b)
<sp|sd>:         5590 b           29 skpd (  0.5%)    0.002 s ( 0.000 ms/b)
<sp|sf>:         2838 b           21 skpd (  0.7%)    0.001 s ( 0.000 ms/b)
<sp|sg>:          946 b            5 skpd (  0.5%)    0.001 s ( 0.001 ms/b)
<sp|pp>:         3096 b            3 skpd (  0.1%)    0.002 s ( 0.001 ms/b)
<sp|pd>:         4128 b           16 skpd (  0.4%)    0.002 s ( 0.001 ms/b)
<sp|pf>:         2064 b            7 skpd (  0.3%)    0.001 s ( 0.000 ms/b)
<sp|pg>:          688 b            2 skpd (  0.3%)    0.001 s ( 0.002 ms/b)
<sp|dd>:         1806 b            2 skpd (  0.1%)    0.003 s ( 0.001 ms/b)
<sp|df>:         1548 b            4 skpd (  0.3%)    0.001 s ( 0.001 ms/b)
<sp|dg>:          516 b            2 skpd (  0.4%)    0.002 s ( 0.003 ms/b)
<sp|ff>:          516 b            1 skpd (  0.2%)    0.001 s ( 0.002 ms/b)
<sp|fg>:          258 b            0 skpd (  0.0%)    0.001 s ( 0.005 ms/b)
<sp|gg>:           86 b            0 skpd (  0.0%)    0.002 s ( 0.019 ms/b)
<sd|sd>:         2145 b           11 skpd (  0.5%)    0.001 s ( 0.000 ms/b)
<sd|sf>:         2145 b           16 skpd (  0.7%)    0.001 s ( 0.000 ms/b)
<sd|sg>:          715 b            4 skpd (  0.6%)    0.001 s ( 0.002 ms/b)
<sd|pp>:         2340 b            3 skpd (  0.1%)    0.003 s ( 0.001 ms/b)
<sd|pd>:         3120 b           16 skpd (  0.5%)    0.003 s ( 0.001 ms/b)
<sd|pf>:         1560 b            4 skpd (  0.3%)    0.001 s ( 0.001 ms/b)
<sd|pg>:          520 b            1 skpd (  0.2%)    0.002 s ( 0.004 ms/b)
<sd|dd>:         1365 b            2 skpd (  0.1%)    0.003 s ( 0.002 ms/b)
<sd|df>:         1170 b            3 skpd (  0.3%)    0.002 s ( 0.002 ms/b)
<sd|dg>:          390 b            1 skpd (  0.3%)    0.003 s ( 0.007 ms/b)
<sd|ff>:          390 b            1 skpd (  0.3%)    0.001 s ( 0.003 ms/b)
<sd|fg>:          195 b            0 skpd (  0.0%)    0.002 s ( 0.009 ms/b)
<sd|gg>:           65 b            0 skpd (  0.0%)    0.003 s ( 0.039 ms/b)
<sf|sf>:          561 b            6 skpd (  1.1%)    0.000 s ( 0.001 ms/b)
<sf|sg>:          363 b            3 skpd (  0.8%)    0.001 s ( 0.002 ms/b)
<sf|pp>:         1188 b            3 skpd (  0.3%)    0.002 s ( 0.002 ms/b)
<sf|pd>:         1584 b           11 skpd (  0.7%)    0.002 s ( 0.002 ms/b)
<sf|pf>:          792 b            4 skpd (  0.5%)    0.001 s ( 0.001 ms/b)
<sf|pg>:          264 b            1 skpd (  0.4%)    0.002 s ( 0.007 ms/b)
<sf|dd>:          693 b            2 skpd (  0.3%)    0.003 s ( 0.004 ms/b)
<sf|df>:          594 b            4 skpd (  0.7%)    0.002 s ( 0.003 ms/b)
<sf|dg>:          198 b            1 skpd (  0.5%)    0.002 s ( 0.012 ms/b)
<sf|ff>:          198 b            1 skpd (  0.5%)    0.001 s ( 0.006 ms/b)
<sf|fg>:           99 b            0 skpd (  0.0%)    0.002 s ( 0.016 ms/b)
<sf|gg>:           33 b            0 skpd (  0.0%)    0.002 s ( 0.066 ms/b)
<sg|sg>:           66 b            0 skpd (  0.0%)    0.000 s ( 0.004 ms/b)
<sg|pp>:          396 b            1 skpd (  0.3%)    0.001 s ( 0.004 ms/b)
<sg|pd>:          528 b            2 skpd (  0.4%)    0.002 s ( 0.003 ms/b)
<sg|pf>:          264 b            1 skpd (  0.4%)    0.001 s ( 0.003 ms/b)
<sg|pg>:           88 b            0 skpd (  0.0%)    0.001 s ( 0.015 ms/b)
<sg|dd>:          231 b            0 skpd (  0.0%)    0.002 s ( 0.008 ms/b)
<sg|df>:          198 b            0 skpd (  0.0%)    0.001 s ( 0.005 ms/b)
<sg|dg>:           66 b            0 skpd (  0.0%)    0.002 s ( 0.026 ms/b)
<sg|ff>:           66 b            0 skpd (  0.0%)    0.001 s ( 0.009 ms/b)
<sg|fg>:           33 b            0 skpd (  0.0%)    0.001 s ( 0.032 ms/b)
<sg|gg>:           11 b            0 skpd (  0.0%)    0.001 s ( 0.127 ms/b)
<pp|pp>:          666 b            0 skpd (  0.0%)    0.002 s ( 0.003 ms/b)
<pp|pd>:         1728 b            1 skpd (  0.1%)    0.002 s ( 0.001 ms/b)
<pp|pf>:          864 b            0 skpd (  0.0%)    0.001 s ( 0.001 ms/b)
<pp|pg>:          288 b            0 skpd (  0.0%)    0.002 s ( 0.006 ms/b)
<pp|dd>:          756 b            0 skpd (  0.0%)    0.003 s ( 0.004 ms/b)
<pp|df>:          648 b            0 skpd (  0.0%)    0.002 s ( 0.002 ms/b)
<pp|dg>:          216 b            0 skpd (  0.0%)    0.002 s ( 0.011 ms/b)
<pp|ff>:          216 b            0 skpd (  0.0%)    0.001 s ( 0.005 ms/b)
<pp|fg>:          108 b            0 skpd (  0.0%)    0.002 s ( 0.015 ms/b)
<pp|gg>:           36 b            0 skpd (  0.0%)    0.002 s ( 0.059 ms/b)
<pd|pd>:         1176 b            1 skpd (  0.1%)    0.004 s ( 0.004 ms/b)
<pd|pf>:         1152 b            0 skpd (  0.0%)    0.002 s ( 0.002 ms/b)
<pd|pg>:          384 b            0 skpd (  0.0%)    0.004 s ( 0.010 ms/b)
<pd|dd>:         1008 b            0 skpd (  0.0%)    0.006 s ( 0.006 ms/b)
<pd|df>:          864 b            0 skpd (  0.0%)    0.003 s ( 0.004 ms/b)
<pd|dg>:          288 b            1 skpd (  0.3%)    0.005 s ( 0.018 ms/b)
<pd|ff>:          288 b            0 skpd (  0.0%)    0.003 s ( 0.009 ms/b)
<pd|fg>:          144 b            0 skpd (  0.0%)    0.004 s ( 0.026 ms/b)
<pd|gg>:           48 b            0 skpd (  0.0%)    0.005 s ( 0.107 ms/b)
<pf|pf>:          300 b            0 skpd (  0.0%)    0.001 s ( 0.004 ms/b)
<pf|pg>:          192 b            0 skpd (  0.0%)    0.003 s ( 0.015 ms/b)
<pf|dd>:          504 b            0 skpd (  0.0%)    0.004 s ( 0.008 ms/b)
<pf|df>:          432 b            0 skpd (  0.0%)    0.003 s ( 0.006 ms/b)
<pf|dg>:          144 b            0 skpd (  0.0%)    0.004 s ( 0.027 ms/b)
<pf|ff>:          144 b            0 skpd (  0.0%)    0.002 s ( 0.016 ms/b)
<pf|fg>:           72 b            0 skpd (  0.0%)    0.003 s ( 0.040 ms/b)
<pf|gg>:           24 b            0 skpd (  0.0%)    0.004 s ( 0.159 ms/b)
<pg|pg>:           36 b            0 skpd (  0.0%)    0.001 s ( 0.030 ms/b)
<pg|dd>:          168 b            0 skpd (  0.0%)    0.003 s ( 0.016 ms/b)
<pg|df>:          144 b            0 skpd (  0.0%)    0.001 s ( 0.010 ms/b)
<pg|dg>:           48 b            0 skpd (  0.0%)    0.003 s ( 0.052 ms/b)
<pg|ff>:           48 b            0 skpd (  0.0%)    0.001 s ( 0.021 ms/b)
<pg|fg>:           24 b            0 skpd (  0.0%)    0.002 s ( 0.077 ms/b)
<pg|gg>:            8 b            0 skpd (  0.0%)    0.002 s ( 0.265 ms/b)
<dd|dd>:          231 b            0 skpd (  0.0%)    0.004 s ( 0.016 ms/b)
<dd|df>:          378 b            0 skpd (  0.0%)    0.002 s ( 0.007 ms/b)
<dd|dg>:          126 b            0 skpd (  0.0%)    0.004 s ( 0.032 ms/b)
<dd|ff>:          126 b            0 skpd (  0.0%)    0.002 s ( 0.016 ms/b)
<dd|fg>:           63 b            0 skpd (  0.0%)    0.003 s ( 0.045 ms/b)
<dd|gg>:           21 b            0 skpd (  0.0%)    0.004 s ( 0.185 ms/b)
<df|df>:          171 b            0 skpd (  0.0%)    0.002 s ( 0.015 ms/b)
<df|dg>:          108 b            0 skpd (  0.0%)    0.004 s ( 0.040 ms/b)
<df|ff>:          108 b            0 skpd (  0.0%)    0.003 s ( 0.026 ms/b)
<df|fg>:           54 b            0 skpd (  0.0%)    0.004 s ( 0.069 ms/b)
<df|gg>:           18 b            0 skpd (  0.0%)    0.005 s ( 0.269 ms/b)
<dg|dg>:           21 b            0 skpd (  0.0%)    0.001 s ( 0.058 ms/b)
<dg|ff>:           36 b            0 skpd (  0.0%)    0.001 s ( 0.034 ms/b)
<dg|fg>:           18 b            0 skpd (  0.0%)    0.002 s ( 0.116 ms/b)
<dg|gg>:            6 b            0 skpd (  0.0%)    0.003 s ( 0.418 ms/b)
<ff|ff>:           21 b            0 skpd (  0.0%)    0.001 s ( 0.053 ms/b)
<ff|fg>:           18 b            0 skpd (  0.0%)    0.002 s ( 0.106 ms/b)
<ff|gg>:            6 b            0 skpd (  0.0%)    0.003 s ( 0.432 ms/b)
<fg|fg>:            6 b            0 skpd (  0.0%)    0.001 s ( 0.239 ms/b)
<fg|gg>:            3 b            0 skpd (  0.0%)    0.002 s ( 0.714 ms/b)
<gg|gg>:            1 b            0 skpd (  0.0%)    0.002 s ( 1.655 ms/b)
Recanonicalizing the internal orbitals
Recanonicalizing the virtual orbitals
Time needed for Fock operator              ...            0.247 sec
Reference energy                           ...   -947.947705879
Warning: for UHF the TrafoType has to be JK
Warning: for UHF the K(C)-option cannot be MO but must be AOX

-------------------------------
PARTIAL EXCHANGE TRANSFORMATION
-------------------------------

Transformation type                        ... two-operators
Generation of integrals (i,mue|j,nue)      ... ON
Generation of integrals (mue,kappa|nue,tau)... ON
Generation of integrals (i,mue|a,nue)      ... ON
Dimension of the basis                     ...   95
Number of internal alpha-MOs               ...   11 (   6-  16)
Number of internal beta-MOs                ...    8 (   6-  13)
Number of external alpha-MOs               ...   78 (  17-  94)
Number of external beta-MOs                ...   81 (  14-  94)
Pair cutoff                                ... 0.000e+00 Eh
Number of AO pairs in the trafo            ... 4560
Total Number of distinct AO pairs          ... 4560
Memory devoted for trafo                   ... 2500.0 MB 
Max. Number of MO pairs treated together   ... 36308      
Number Format for Storage                  ... Double (8 Byte)
Integral package used                      ... LIBINT

Starting integral evaluation:
    ... done with AO integral generation
Closing buffer AOK[aa] ( 0.00 GB; CompressionRatio= 0.99)
Closing buffer AOK[bb] ( 0.00 GB; CompressionRatio= 0.98)
Closing buffer AOK[ab] ( 0.00 GB; CompressionRatio= 0.98)
Closing buffer AOK[ba] ( 0.00 GB; CompressionRatio= 0.98)
Collecting buffer AOK 
Closing buffer IAAO1[aa] ( 0.00 GB; CompressionRatio= 1.00)
Closing buffer IAAO1[bb] ( 0.00 GB; CompressionRatio= 1.00)
Closing buffer IAAO1[ab] ( 0.00 GB; CompressionRatio= 1.00)
Closing buffer IAAO1[ba] ( 0.00 GB; CompressionRatio= 1.00)
Closing buffer IAAO2[aa] ( 0.00 GB; CompressionRatio= 1.00)
Closing buffer IAAO2[bb] ( 0.00 GB; CompressionRatio= 1.00)
Closing buffer IAAO2[ab] ( 0.00 GB; CompressionRatio= 1.00)
Closing buffer IAAO2[ba] ( 0.00 GB; CompressionRatio= 1.00)
Collecting buffer IAAO 
Closing buffer PRQS    ( 0.00 GB; CompressionRatio= 1.00)
Collecting buffer PRQS 
Number of alpha/alpha MO pairs in trafo    ...   66
Number of beta /beta  MO pairs in trafo    ...   36
Number of alpha/ beta MO pairs in trafo    ...   88
------------------------
SORTING OF (i,mue|j,nue)
------------------------

SORTING OF ALPHA/ALPHA PAIRS
IBATCH = 1 of  1
Closing buffer KAO[aa] ( 0.00 GB; CompressionRatio= 1.00)
Collecting buffer KAO 
SORTING OF BETA /BETA  PAIRS
IBATCH = 1 of  1
Closing buffer KAO[bb] ( 0.00 GB; CompressionRatio= 1.00)
Collecting buffer KAO 
SORTING OF ALPHA/BETA  PAIRS
IBATCH = 1 of  1
Closing buffer KAO[ab] ( 0.00 GB; CompressionRatio= 0.999833822633)
Collecting buffer KAO[ab] 
------------------------
SORTING OF (i,mue|a,nue)
------------------------

Number of alpha/alpha (i,a) pairs in trafo  ...  858
Number of beta /beta  (i,a) pairs in trafo  ...  648
Number of alpha/ beta (i,a) pairs in trafo  ...  891
Number of beta /alpha (i,a) pairs in trafo  ...  624
Setting up the alpha/alpha list             ... done
Setting up the beta /beta  list             ... done
Setting up the alpha/beta  list             ... done
Setting up the beta /alpha list             ... done
    ... Now sorting (i,mue|a,nue)integrals
    ... Integrals (i,b|a,c) will be made on the fly
SORTING OF ALPHA/ALPHA PAIRS
IBATCH = 1 of  1
Closing buffer IPAQ[aa]  0.00 GB; CompressionRatio= 1.00)
SORTING OF BETA /BETA  PAIRS
IBATCH = 1 of  1
Closing buffer IPAQ[bb]( 0.00 GB; CompressionRatio= 1.00)
SORTING OF ALPHA/BETA  PAIRS (NMatSort_ab=38)
IBATCH = 1 of  1
Closing buffer IPAQ[ab]( 0.00 GB; CompressionRatio= 1.00)
SORTING OF BETA/ALPHA  PAIRS
IBATCH = 1 of  1
Closing buffer IPAQ[ba]( 0.00 GB; CompressionRatio= 1.00)
N(AO-Batches) Done                         ...      4872 
N(AO-Batches) Skipped                      ...         0 
N(IJ)-pairs Skipped                        ...         0 
TOTAL TIME for half transformation         ...     1.104 sec
AO-integral generation                     ...     0.021 sec
Half transformation                        ...     0.005 sec
K-integral sorting                         ...     0.640 sec
<ss|**>: 
------------------------------
PARTIAL COULOMB TRANSFORMATION
------------------------------

Transformation type                        ... two-operators
Dimension of the basis                     ...   95
Number of internal alpha-MOs               ...   11 (6-16)
Number of internal beta-MOs                ...    8 (6-13)
Pair cutoff                                ... 0.000e+00 Eh
Number of AO pairs included in the trafo   ... 4560
Total Number of distinct AO pairs          ... 4560
Memory devoted for trafo                   ... 2500.0 MB 
Max. Number of MO pairs treated together   ... 71859      
Max. Number of MOs treated per batch       ...  756      
Number Format for Storage                  ... Double (8 Byte)
AO-integral source                         ... DIRECT
Integral package used                      ... LIBINT

Starting integral evaluation:
<sp|**>:        26536 b        0 skpd     0.006 s (  0.000 ms/b)
<sd|**>:        36808 b        0 skpd     0.016 s (  0.000 ms/b)
<sf|**>:        27820 b        0 skpd     0.017 s (  0.001 ms/b)
       14124 b        0 skpd     0.012 s (  0.001 ms/b)
<sg|**>: <pp|**>:         4708 b        0 skpd     0.017 s (  0.004 ms/b)
       15408 b        0 skpd     0.025 s (  0.002 ms/b)
<pd|**>:        20544 b        0 skpd     0.031 s (  0.002 ms/b)
<pf|**>:        10272 b        0 skpd     0.014 s (  0.001 ms/b)
<pg|**>:         3424 b        0 skpd     0.026 s (  0.008 ms/b)
<dd|**>:         8988 b        0 skpd     0.039 s (  0.004 ms/b)
<df|**>:         7704 b        0 skpd     0.021 s (  0.003 ms/b)
<dg|**>:         2568 b        0 skpd     0.033 s (  0.013 ms/b)
<ff|**>:         2568 b        0 skpd     0.015 s (  0.006 ms/b)
<fg|**>:         1284 b        0 skpd     0.021 s (  0.016 ms/b)
<gg|**>:          428 b        0 skpd     0.032 s (  0.074 ms/b)
Closing buffer AOJ[aa] ( 0.00 GB; CompressionRatio= 0.98)
Closing buffer AOJ[bb] ( 0.00 GB; CompressionRatio= 0.00)
Collecting buffer AOJ 
    ... done with AO integral generation
Number of Alpha-MO pairs included          ...   66
Number of Beta-MO pairs included           ...   36
    ... Now sorting integrals
SORTING ALPHA/ALPHA PAIRS
IBATCH = 1 of  1
Closing buffer JAO[aa] ( 0.00 GB; CompressionRatio= 1.00)
SORTING BETA/BETA PAIRS
IBATCH = 1 of  1
Closing buffer JAO[bb] ( 0.00 GB; CompressionRatio= 1.00)
Collecting buffer JAO 
TOTAL TIME for half transformation         ...     0.368 sec
AO-integral generation                     ...     0.325 sec
Half transformation                        ...     0.009 sec
J-integral sorting                         ...     0.030 sec

-------------------------- SECOND HALF TRANSFORMATION -------------------------
Formation of (ij|kl),(ij|ka), (ij|ab)      ... ok (     0.052 sec)
Formation of (ik|jl),(ik|ja), (ia|jb)      ... ok (     0.068 sec)


-----------------------
SPIN UNRESTRICTED GUESS
-----------------------

Entering MDCI_UHF_Guess, Tailored=0
Spin-components of the MP2 energy:
EMP2(aa)=     -0.103069495
EMP2(bb)=     -0.065869942
EMP2(ab)=     -0.392417633

Initial guess performed in     0.027 sec
E(0)                                       ...   -947.947705879
E(MP2)                                     ...     -0.561357069
Initial E(tot)                             ...   -948.509062949
<T|T>                                      ...      0.117905831
Number of pairs included                   ... 171

------------------------------------------------
                  UHF COUPLED CLUSTER ITERATIONS
------------------------------------------------

Number of amplitudes to be optimized       ...       815887

Iter       E(tot)           E(Corr)          Delta-E          Residual     Time      <S|S>**1/2
  0   -948.509062949     -0.561357069      0.000000000      0.024085732    0.86      0.000000092
                           *** Turning on DIIS ***
  1   -948.511380191     -0.563674311     -0.002317242      0.007149981    0.92      0.053375775
  2   -948.523175489     -0.575469609     -0.011795298      0.006018973    0.92      0.059909212
  3   -948.525299925     -0.577594046     -0.002124436      0.005281853    0.93      0.077364572
  4   -948.526787051     -0.579081172     -0.001487126      0.004462371    0.93      0.089943726
  5   -948.527820470     -0.580114591     -0.001033419      0.003325755    0.93      0.104719622
  6   -948.528253528     -0.580547649     -0.000433058      0.002339359    0.95      0.115333381
  7   -948.528675748     -0.580969868     -0.000422220      0.001275293    0.94      0.126272729
  8   -948.528931872     -0.581225993     -0.000256125      0.000510039    0.92      0.134927418
  9   -948.528984662     -0.581278783     -0.000052789      0.000212433    0.94      0.137929577
 10   -948.529015073     -0.581309193     -0.000030411      0.000184479    0.93      0.138799764
 11   -948.529005196     -0.581299316      0.000009877      0.000130339    0.94      0.139310885
 12   -948.529014640     -0.581308761     -0.000009445      0.000085598    0.93      0.139766728
 13   -948.529014842     -0.581308963     -0.000000202      0.000042132    0.92      0.140208453
 14   -948.529021648     -0.581315768     -0.000006805      0.000014091    0.90      0.140512674
 15   -948.529023426     -0.581317546     -0.000001778      0.000004880    0.93      0.140616073
 16   -948.529023915     -0.581318035     -0.000000489      0.000003016    0.93      0.140646937
 17   -948.529023936     -0.581318057     -0.000000021      0.000002179    0.90      0.140655461
 18   -948.529023660     -0.581317780      0.000000276      0.000002269    0.89      0.140653559
 19   -948.529023404     -0.581317525      0.000000255      0.000001890    0.92      0.140649296
 20   -948.529023264     -0.581317385      0.000000140      0.000001401    0.91      0.140643917
 21   -948.529023076     -0.581317196      0.000000188      0.000000926    0.96      0.140638910
               --- The Coupled-Cluster iterations have converged ---

----------------------
COUPLED CLUSTER ENERGY
----------------------

E(0)                                       ...   -947.947705879
E(CORR)                                    ...     -0.581317196
E(TOT)                                     ...   -948.529023076
Singles norm <S|S>**1/2                    ...      0.140638910 ( 0.111041590, 0.029597320)  
T1 diagnostic                              ...      0.032264779                              

------------------
LARGEST AMPLITUDES
------------------
  16a-> 19a  -1a-> -1a       0.142381
  16a-> 20a  -1a-> -1a       0.063904
  16a-> 28a  -1a-> -1a       0.060131
  15a-> 27a  14a-> 26a       0.046736
  15a-> 26a  14a-> 27a       0.046736
  11b-> 26b  -1b-> -1b       0.030899
  11a-> 28a  -1a-> -1a       0.030011
  14a-> 23a  -1a-> -1a       0.029447
  15a-> 24a  -1a-> -1a       0.029447
  15a-> 32a  14a-> 33a       0.028547
  15a-> 33a  14a-> 32a       0.028547
  12a-> 22a  -1a-> -1a       0.028383
  13a-> 21a  -1a-> -1a       0.028383
  15a-> 26a  14a-> 21a       0.027540
  15a-> 21a  14a-> 26a       0.027540
  15a-> 22a  14a-> 27a       0.027540

----------------------
UHF TRIPLES CORRECTION (Algorithm 1)
----------------------

Multiplier for the singles contribution    ...      1.000000000

SPIN-CASE Alpha-Alpha-Alpha:
10% done
20% done
30% done
40% done
50% done
60% done
70% done
80% done
90% done


SPIN-CASE Beta-Beta-Beta:
10% done
20% done
30% done
40% done
50% done
60% done
70% done
80% done
90% done


SPIN-CASE Alpha-Alpha-Beta:
10% done
20% done
30% done
40% done
50% done
60% done
70% done
80% done
90% done


SPIN-CASE Beta-Beta-Alpha:
10% done
20% done
30% done
40% done
50% done
60% done
70% done
80% done
90% done


Triples Correction (T)                     ...     -0.019732268
    alpha-alpha-alpha ... -0.001730381 (  8.8%)
    alpha-alpha-beta  ... -0.010786857 ( 54.7%)
    alpha-beta -beta  ... -0.006835579 ( 34.6%)
    beta -beta -beta  ... -0.000379451 (  1.9%)
Scaling of triples based on CCSD energies (Peterson et al. Molecular Physics 113, 1551 (2015))
E(T*) = f*E(T) where f = E(F12-CCSD)/E(CCSD) 
f = CCSD (with F12)/ CCSD (without F12)    ...      1.000000000
Scaled triples correction (T)              ...     -0.019732268

Final correlation energy                   ...     -0.601049464
E(CCSD)                                    ...   -948.529023076
E(CCSD(T))                                 ...   -948.548755344



        !!!!!!!!!!!!!!!!!!!!!!!!!!!!!!!!!!!!!!!!!!!!!!!!!!!!!!!!!!!!!!!!!!!!!!!!!! 
        !  Warning: Densities are linearized densities                           !
        !!!!!!!!!!!!!!!!!!!!!!!!!!!!!!!!!!!!!!!!!!!!!!!!!!!!!!!!!!!!!!!!!!!!!!!!!! 

NORM  =      1.180541405 sqrt=     1.086527223
W(HF) =      0.847068977
------------------------------------------------------------------------------
                           ORCA POPULATION ANALYSIS
------------------------------------------------------------------------------
Input electron density              ... 08_TiF.mdcip
Input spin density                  ... 08_TiF.mdcir
BaseName (.gbw .S,...)              ... 08_TiF

                    ********************************
                    * MULLIKEN POPULATION ANALYSIS *
                    ********************************

------------------------------------------
MULLIKEN ATOMIC CHARGES AND SPIN DENSITIES
------------------------------------------
   0 Ti:    0.437955    3.047672
   1 F :   -0.437955   -0.047672
Sum of atomic charges       :   -0.0000000
Sum of atomic spin densities:    3.0000000

---------------------------------------------------
MULLIKEN REDUCED ORBITAL CHARGES AND SPIN DENSITIES
---------------------------------------------------
CHARGE
  0 Tis       :     6.850480  s :     6.850480
      pz      :     4.097546  p :    12.120914
      px      :     4.011684
      py      :     4.011684
      dz2     :     0.276778  d :     2.516092
      dxz     :     0.127708
      dyz     :     0.127708
      dx2y2   :     0.991950
      dxy     :     0.991950
      f0      :     0.011248  f :     0.066721
      f+1     :     0.019819
      f-1     :     0.019819
      f+2     :     0.002995
      f-2     :     0.002995
      f+3     :     0.004922
      f-3     :     0.004922
      g0      :     0.002042  g :     0.007837
      g+1     :     0.002215
      g-1     :     0.002215
      g+2     :     0.000206
      g-2     :     0.000206
      g+3     :     0.000206
      g-3     :     0.000206
      g+4     :     0.000271
      g-4     :     0.000271
  1 F s       :     3.957645  s :     3.957645
      pz      :     1.767819  p :     5.445197
      px      :     1.838689
      py      :     1.838689
      dz2     :     0.008100  d :     0.032510
      dxz     :     0.006926
      dyz     :     0.006926
      dx2y2   :     0.005279
      dxy     :     0.005279
      f0      :     0.000455  f :     0.002603
      f+1     :     0.000392
      f-1     :     0.000392
      f+2     :     0.000351
      f-2     :     0.000351
      f+3     :     0.000330
      f-3     :     0.000330

SPIN
  0 Tis       :     0.822666  s :     0.822666
      pz      :     0.089236  p :     0.118120
      px      :     0.014442
      py      :     0.014442
      dz2     :     0.103598  d :     2.094482
      dxz     :     0.018776
      dyz     :     0.018776
      dx2y2   :     0.976666
      dxy     :     0.976666
      f0      :     0.000170  f :     0.011865
      f+1     :     0.000358
      f-1     :     0.000358
      f+2     :     0.001463
      f-2     :     0.001463
      f+3     :     0.004027
      f-3     :     0.004027
      g0      :    -0.000095  g :     0.000540
      g+1     :    -0.000072
      g-1     :    -0.000072
      g+2     :     0.000052
      g-2     :     0.000052
      g+3     :     0.000124
      g-3     :     0.000124
      g+4     :     0.000214
      g-4     :     0.000214
  1 F s       :    -0.001799  s :    -0.001799
      pz      :    -0.018348  p :    -0.046393
      px      :    -0.014023
      py      :    -0.014023
      dz2     :     0.000222  d :     0.000517
      dxz     :     0.000033
      dyz     :     0.000033
      dx2y2   :     0.000115
      dxy     :     0.000115
      f0      :     0.000005  f :     0.000003
      f+1     :    -0.000002
      f-1     :    -0.000002
      f+2     :     0.000004
      f-2     :     0.000004
      f+3     :    -0.000003
      f-3     :    -0.000003


                     *******************************
                     * LOEWDIN POPULATION ANALYSIS *
                     *******************************

-----------------------------------------
LOEWDIN ATOMIC CHARGES AND SPIN DENSITIES
-----------------------------------------
   0 Ti:    0.035012    3.028727
   1 F :   -0.035012   -0.028727

--------------------------------------------------
LOEWDIN REDUCED ORBITAL CHARGES AND SPIN DENSITIES
--------------------------------------------------
CHARGE
  0 Tis       :     6.812478  s :     6.812478
      pz      :     4.181143  p :    12.224569
      px      :     4.021713
      py      :     4.021713
      dz2     :     0.392934  d :     2.707349
      dxz     :     0.165412
      dyz     :     0.165412
      dx2y2   :     0.991795
      dxy     :     0.991795
      f0      :     0.073242  f :     0.191752
      f+1     :     0.051312
      f-1     :     0.051312
      f+2     :     0.003020
      f-2     :     0.003020
      f+3     :     0.004922
      f-3     :     0.004922
      g0      :     0.013939  g :     0.028840
      g+1     :     0.006761
      g-1     :     0.006761
      g+2     :     0.000212
      g-2     :     0.000212
      g+3     :     0.000206
      g-3     :     0.000206
      g+4     :     0.000271
      g-4     :     0.000271
  1 F s       :     3.685966  s :     3.685966
      pz      :     1.798957  p :     5.310706
      px      :     1.755875
      py      :     1.755875
      dz2     :     0.012830  d :     0.035574
      dxz     :     0.005980
      dyz     :     0.005980
      dx2y2   :     0.005392
      dxy     :     0.005392
      f0      :     0.000624  f :     0.002767
      f+1     :     0.000379
      f-1     :     0.000379
      f+2     :     0.000362
      f-2     :     0.000362
      f+3     :     0.000330
      f-3     :     0.000330

SPIN
  0 Tis       :     0.783487  s :     0.783487
      pz      :     0.105086  p :     0.133296
      px      :     0.014105
      py      :     0.014105
      dz2     :     0.111792  d :     2.100681
      dxz     :     0.017938
      dyz     :     0.017938
      dx2y2   :     0.976507
      dxy     :     0.976507
      f0      :     0.000420  f :     0.010941
      f+1     :    -0.000237
      f-1     :    -0.000237
      f+2     :     0.001471
      f-2     :     0.001471
      f+3     :     0.004027
      f-3     :     0.004027
      g0      :    -0.000178  g :     0.000322
      g+1     :    -0.000139
      g-1     :    -0.000139
      g+2     :     0.000051
      g-2     :     0.000051
      g+3     :     0.000124
      g-3     :     0.000124
      g+4     :     0.000214
      g-4     :     0.000214
  1 F s       :     0.004933  s :     0.004933
      pz      :    -0.009988  p :    -0.034340
      px      :    -0.012176
      py      :    -0.012176
      dz2     :     0.000091  d :     0.000650
      dxz     :     0.000023
      dyz     :     0.000023
      dx2y2   :     0.000257
      dxy     :     0.000257
      f0      :     0.000011  f :     0.000029
      f+1     :    -0.000002
      f-1     :    -0.000002
      f+2     :     0.000014
      f-2     :     0.000014
      f+3     :    -0.000003
      f-3     :    -0.000003


                      *****************************
                      * MAYER POPULATION ANALYSIS *
                      *****************************

  NA   - Mulliken gross atomic population
  ZA   - Total nuclear charge
  QA   - Mulliken gross atomic charge
  VA   - Mayer's total valence
  BVA  - Mayer's bonded valence
  FA   - Mayer's free valence

  ATOM       NA         ZA         QA         VA         BVA        FA
  0 Ti    21.5620    22.0000     0.4380     4.4794     0.9385     3.5409
  1 F      9.4380     9.0000    -0.4380     1.3409     0.9385     0.4024

  Mayer bond orders larger than 0.100000
B(  0-Ti,  1-F ) :   0.9385 



------------------------------------------------------------------------------- 
                                     TIMINGS                                   
------------------------------------------------------------------------------- 


Total execution time                   ...       24.435 sec

Fock Matrix Formation                  ...        0.247 sec (  1.0%)
Initial Guess                          ...        0.027 sec (  0.1%)
DIIS Solver                            ...        1.658 sec (  6.8%)
State Vector Update                    ...        0.073 sec (  0.3%)
Sigma-vector construction              ...       18.570 sec ( 76.0%)
  <0|H|D>                              ...        0.004 sec (  0.0% of sigma)
  <D|H|D>(0-ext Fock)                  ...        0.029 sec (  0.2% of sigma)
  <D|H|D>(0-ext)                       ...        0.123 sec (  0.7% of sigma)
  <D|H|D>(2-ext Fock)                  ...        0.009 sec (  0.0% of sigma)
  <D|H|D>(2-ext)                       ...        0.415 sec (  2.2% of sigma)
  <D|H|D>(4-ext)                       ...       10.067 sec ( 54.2% of sigma)
  <S|H|0>                              ...        0.794 sec (  4.3% of sigma)
  <S|H|S>                              ...        0.003 sec (  0.0% of sigma)
  <S|H|D>(1-ext)                       ...        0.008 sec (  0.0% of sigma)
  <D|H|S>(1-ext)                       ...        0.120 sec (  0.6% of sigma)
  Fock-dressing                        ...        2.641 sec ( 14.2% of sigma)
  (ik|jl)-dressing                     ...        0.153 sec (  0.8% of sigma)
  (ij|ab),(ia|jb)-dressing             ...        3.335 sec ( 18.0% of sigma)
  Pair energies                        ...        0.007 sec (  0.0% of sigma)
Total Time for computing (T)           ...        1.787 sec (  7.3% of ALL)
  I/O of integral and amplitudes       ...        0.370 sec ( 20.7% of (T))
  External N**7 contributions          ...        0.489 sec ( 27.4% of (T))
  Internal N**7 contributions          ...        0.249 sec ( 13.9% of (T))
  N**6 triples energy contributions    ...        0.647 sec ( 36.2% of (T))

----- Orbital basis set information -----
Your calculation utilizes the basis: def2-QZVPP
   F. Weigend and R. Ahlrichs, Phys. Chem. Chem. Phys. 7, 3297 (2005).

----- AuxJ basis set information -----
Your calculation utilizes the auxiliary basis: def2/J
   F. Weigend, Phys. Chem. Chem. Phys. 8, 1057 (2006).

----- AuxC basis set information -----
Your calculation utilizes the auxiliary basis: def2-QZVPP/C
  H-La, Hf-Rn : A. Hellweg, C. Hattig, S. Hofener and W. Klopper, Theor. Chem. Acc. 117, 587 (2007).
        Ce-Lu : J. Chmela and M. E. Harding, Mol. Phys. (2018).

----- AuxJK basis set information -----
Your calculation utilizes the auxiliary basis: def2/JK
   H-Ba, Hf-Rn: F. Weigend, J. Comput. Chem. 29, 167 (2008).

All done

                     -----------------------------------------
                     Extrapolated Energy 2 Basis=  def2-QZVPP
                     -----------------------------------------

---------------------------------
CARTESIAN COORDINATES (ANGSTROEM)
---------------------------------
  Ti     0.000000    0.000000    0.110411
  F      0.000000    0.000000    1.889589

----------------------------
CARTESIAN COORDINATES (A.U.)
----------------------------
  NO LB      ZA    FRAG     MASS         X           Y           Z
   0 Ti   22.0000    0    47.900    0.000000    0.000000    0.208646
   1 F     9.0000    0    18.998    0.000000    0.000000    3.570807

--------------------------------
INTERNAL COORDINATES (ANGSTROEM)
--------------------------------
 Ti     0   0   0     0.000000000000     0.00000000     0.00000000
 F      1   0   0     1.779178850398     0.00000000     0.00000000

---------------------------
INTERNAL COORDINATES (A.U.)
---------------------------
 Ti     0   0   0     0.000000000000     0.00000000     0.00000000
 F      1   0   0     3.362160770517     0.00000000     0.00000000

---------------------
BASIS SET INFORMATION
---------------------
There are 2 groups of distinct atoms

 Group   1 Type Ti  : 24s18p9d3f2g contracted to 11s6p5d3f2g pattern {114111111111/951111/51111/111/11}
 Group   2 Type F   : 15s8p3d2f1g contracted to 7s4p3d2f1g pattern {8211111/5111/111/11/1}

Atom   0Ti   basis set group =>   1
Atom   1F    basis set group =>   2
---------------------------------
AUXILIARY/J BASIS SET INFORMATION
---------------------------------
There are 2 groups of distinct atoms

 Group   1 Type Ti  : 19s5p5d3f3g contracted to 8s5p5d2f3g pattern {121111111/11111/11111/21/111}
 Group   2 Type F   : 12s5p4d2f1g contracted to 6s4p3d1f1g pattern {711111/2111/211/2/1}

Atom   0Ti   basis set group =>   1
Atom   1F    basis set group =>   2
---------------------------------
AUXILIARY/C BASIS SET INFORMATION
---------------------------------
There are 2 groups of distinct atoms

 Group   1 Type Ti  : 15s13p11d8f7g5h2i contracted to 15s13p11d8f7g5h2i pattern {111111111111111/1111111111111/11111111111/11111111/1111111/11111/11}
 Group   2 Type F   : 9s8p7d5f3g1h contracted to 9s8p7d5f3g1h pattern {111111111/11111111/1111111/11111/111/1}

Atom   0Ti   basis set group =>   1
Atom   1F    basis set group =>   2
----------------------------------
AUXILIARY/JK BASIS SET INFORMATION
----------------------------------
There are 2 groups of distinct atoms

 Group   1 Type Ti  : 19s14p12d10f7g3h1i contracted to 16s13p11d9f5g3h1i pattern {4111111111111111/2111111111111/21111111111/211111111/31111/111/1}
 Group   2 Type F   : 14s10p6d2f1g contracted to 10s8p4d2f1g pattern {5111111111/31111111/3111/11/1}

Atom   0Ti   basis set group =>   1
Atom   1F    basis set group =>   2

Checking for AutoStart:
The File: 08_TiF.gbw exists
Trying to determine its content:
     ... Fine, the file contains calculation information
     ... Fine, the calculation information was read
     ... Fine, the file contains a basis set
     ... Fine, the basis set was read
     ... Fine, the file contains a geometry
     ... Fine, the geometry was read
     ... Fine, the file contains a set of orbitals
     ... Fine, the orbitals can be read
     => possible old guess file was deleted
     => GBW file was renamed to GES file
     => GES file is set as startup file
     => Guess is set to MORead
     ... now leaving AutoStart



           ************************************************************
           *        Program running with 24 parallel MPI-processes    *
           *              working on a common directory               *
           ************************************************************
------------------------------------------------------------------------------
                           ORCA GTO INTEGRAL CALCULATION
------------------------------------------------------------------------------

                         BASIS SET STATISTICS AND STARTUP INFO

 # of primitive gaussian shells          ...   85
 # of primitive gaussian functions       ...  239
 # of contracted shells                  ...   44
 # of contracted basis functions         ...  150
 Highest angular momentum                ...    4
 Maximum contraction depth               ...   11
 Integral package used                   ... LIBINT
 Integral threshhold            Thresh   ...  1.000e-12
 Primitive cut-off              TCut     ...  1.000e-14


------------------------------ INTEGRAL EVALUATION ----------------------------


 * One electron integrals 
 Pre-screening matrix                    ... done
 Shell pair data                         ... done (   0.000 sec)



           ************************************************************
           *        Program running with 24 parallel MPI-processes    *
           *              working on a common directory               *
           ************************************************************
-------------------------------------------------------------------------------
                                 ORCA SCF
-------------------------------------------------------------------------------

------------
SCF SETTINGS
------------
Hamiltonian:
 Ab initio Hamiltonian  Method          .... Hartree-Fock(GTOs)


General Settings:
[...]
 12   -948.600576616     -0.632521243     -0.000010775      0.000117126    3.39      0.143286891
 13   -948.600578527     -0.632523154     -0.000001911      0.000047342    3.38      0.143782402
 14   -948.600585349     -0.632529976     -0.000006822      0.000013389    3.35      0.144069822
 15   -948.600586330     -0.632530958     -0.000000982      0.000004934    3.33      0.144156424
 16   -948.600586764     -0.632531392     -0.000000434      0.000002319    3.34      0.144182314
 17   -948.600586722     -0.632531350      0.000000042      0.000001952    3.30      0.144188963
 18   -948.600586535     -0.632531162      0.000000187      0.000001511    3.30      0.144187843
 19   -948.600586381     -0.632531008      0.000000154      0.000001287    3.30      0.144184331
 20   -948.600586275     -0.632530903      0.000000106      0.000000985    3.28      0.144179635
               --- The Coupled-Cluster iterations have converged ---

----------------------
COUPLED CLUSTER ENERGY
----------------------

E(0)                                       ...   -947.968055372
E(CORR)                                    ...     -0.632530903
E(TOT)                                     ...   -948.600586275
Singles norm <S|S>**1/2                    ...      0.144179635 ( 0.115648979, 0.028530655)  
T1 diagnostic                              ...      0.033077077                              

------------------
LARGEST AMPLITUDES
------------------
  16a-> 19a  -1a-> -1a       0.121041
  16a-> 23a  -1a-> -1a       0.101058
  16a-> 31a  -1a-> -1a       0.057754
  15a-> 29a  14a-> 30a       0.055679
  15a-> 30a  14a-> 29a       0.055679
  16a-> 28a  -1a-> -1a       0.055571
  12b-> 28b  -1b-> -1b       0.030968
  13b-> 27b  -1b-> -1b       0.030968
  13a-> 30a  -1a-> -1a       0.030841
  12a-> 29a  -1a-> -1a       0.030841
  11b-> 31b  -1b-> -1b       0.025765
  15a-> 21a  14a-> 30a       0.024193
  15a-> 30a  14a-> 21a       0.024193
  15a-> 22a  14a-> 29a       0.024193
  15a-> 29a  14a-> 22a       0.024193
  15a-> 35a  14a-> 36a       0.023961

----------------------
UHF TRIPLES CORRECTION (Algorithm 1)
----------------------

Multiplier for the singles contribution    ...      1.000000000

SPIN-CASE Alpha-Alpha-Alpha:
10% done
20% done
30% done
40% done
50% done
60% done
70% done
80% done
90% done


SPIN-CASE Beta-Beta-Beta:
10% done
20% done
30% done
40% done
50% done
60% done
70% done
80% done
90% done


SPIN-CASE Alpha-Alpha-Beta:
10% done
20% done
30% done
40% done
50% done
60% done
70% done
80% done
90% done


SPIN-CASE Beta-Beta-Alpha:
10% done
20% done
30% done
40% done
50% done
60% done
70% done
80% done
90% done


Triples Correction (T)                     ...     -0.023132449
    alpha-alpha-alpha ... -0.001915898 (  8.3%)
    alpha-alpha-beta  ... -0.012545371 ( 54.2%)
    alpha-beta -beta  ... -0.008214228 ( 35.5%)
    beta -beta -beta  ... -0.000456952 (  2.0%)
Scaling of triples based on CCSD energies (Peterson et al. Molecular Physics 113, 1551 (2015))
E(T*) = f*E(T) where f = E(F12-CCSD)/E(CCSD) 
f = CCSD (with F12)/ CCSD (without F12)    ...      1.000000000
Scaled triples correction (T)              ...     -0.023132449

Final correlation energy                   ...     -0.655663352
E(CCSD)                                    ...   -948.600586275
E(CCSD(T))                                 ...   -948.623718724



        !!!!!!!!!!!!!!!!!!!!!!!!!!!!!!!!!!!!!!!!!!!!!!!!!!!!!!!!!!!!!!!!!!!!!!!!!! 
        !  Warning: Densities are linearized densities                           !
        !!!!!!!!!!!!!!!!!!!!!!!!!!!!!!!!!!!!!!!!!!!!!!!!!!!!!!!!!!!!!!!!!!!!!!!!!! 

NORM  =      1.185608525 sqrt=     1.088856522
W(HF) =      0.843448726
------------------------------------------------------------------------------
                           ORCA POPULATION ANALYSIS
------------------------------------------------------------------------------
Input electron density              ... 08_TiF.mdcip
Input spin density                  ... 08_TiF.mdcir
BaseName (.gbw .S,...)              ... 08_TiF

                    ********************************
                    * MULLIKEN POPULATION ANALYSIS *
                    ********************************

------------------------------------------
MULLIKEN ATOMIC CHARGES AND SPIN DENSITIES
------------------------------------------
   0 Ti:    0.488997    3.047724
   1 F :   -0.488997   -0.047724
Sum of atomic charges       :   -0.0000000
Sum of atomic spin densities:    3.0000000

---------------------------------------------------
MULLIKEN REDUCED ORBITAL CHARGES AND SPIN DENSITIES
---------------------------------------------------
CHARGE
  0 Tis       :     6.849594  s :     6.849594
      pz      :     4.082764  p :    12.093696
      px      :     4.005466
      py      :     4.005466
      dz2     :     0.265066  d :     2.487831
      dxz     :     0.119031
      dyz     :     0.119031
      dx2y2   :     0.992351
      dxy     :     0.992351
      f0      :     0.010970  f :     0.065996
      f+1     :     0.018686
      f-1     :     0.018686
      f+2     :     0.003360
      f-2     :     0.003360
      f+3     :     0.005467
      f-3     :     0.005467
      g0      :     0.002111  g :     0.013886
      g+1     :     0.004733
      g-1     :     0.004733
      g+2     :     0.000397
      g-2     :     0.000397
      g+3     :     0.000344
      g-3     :     0.000344
      g+4     :     0.000413
      g-4     :     0.000413
  1 F s       :     3.954238  s :     3.954238
      pz      :     1.794809  p :     5.491459
      px      :     1.848325
      py      :     1.848325
      dz2     :     0.009440  d :     0.038498
      dxz     :     0.008539
      dyz     :     0.008539
      dx2y2   :     0.005990
      dxy     :     0.005990
      f0      :     0.000811  f :     0.004286
      f+1     :     0.000702
      f-1     :     0.000702
      f+2     :     0.000550
      f-2     :     0.000550
      f+3     :     0.000486
      f-3     :     0.000486
      g0      :     0.000065  g :     0.000516
      g+1     :     0.000061
      g-1     :     0.000061
      g+2     :     0.000057
      g-2     :     0.000057
      g+3     :     0.000055
      g-3     :     0.000055
      g+4     :     0.000053
      g-4     :     0.000053

SPIN
  0 Tis       :     0.835206  s :     0.835206
      pz      :     0.079232  p :     0.107746
      px      :     0.014257
      py      :     0.014257
      dz2     :     0.103320  d :     2.091455
      dxz     :     0.017226
      dyz     :     0.017226
      dx2y2   :     0.976841
      dxy     :     0.976841
      f0      :     0.000125  f :     0.012663
      f+1     :     0.000321
      f-1     :     0.000321
      f+2     :     0.001604
      f-2     :     0.001604
      f+3     :     0.004344
      f-3     :     0.004344
      g0      :    -0.000114  g :     0.000654
      g+1     :    -0.000176
      g-1     :    -0.000176
      g+2     :     0.000075
      g-2     :     0.000075
      g+3     :     0.000181
      g-3     :     0.000181
      g+4     :     0.000304
      g-4     :     0.000304
  1 F s       :    -0.004069  s :    -0.004069
      pz      :    -0.018947  p :    -0.045258
      px      :    -0.013155
      py      :    -0.013155
      dz2     :     0.000686  d :     0.001454
      dxz     :     0.000135
      dyz     :     0.000135
      dx2y2   :     0.000249
      dxy     :     0.000249
      f0      :     0.000074  f :     0.000147
      f+1     :     0.000013
      f-1     :     0.000013
      f+2     :     0.000026
      f-2     :     0.000026
      f+3     :    -0.000002
      f-3     :    -0.000002
      g0      :     0.000001  g :     0.000003
      g+1     :     0.000000
      g-1     :     0.000000
      g+2     :     0.000001
      g-2     :     0.000001
      g+3     :    -0.000000
      g-3     :    -0.000000
      g+4     :    -0.000000
      g-4     :    -0.000000


                     *******************************
                     * LOEWDIN POPULATION ANALYSIS *
                     *******************************

-----------------------------------------
LOEWDIN ATOMIC CHARGES AND SPIN DENSITIES
-----------------------------------------
   0 Ti:   -0.126958    3.022421
   1 F :    0.126958   -0.022421

--------------------------------------------------
LOEWDIN REDUCED ORBITAL CHARGES AND SPIN DENSITIES
--------------------------------------------------
CHARGE
  0 Tis       :     6.810441  s :     6.810441
      pz      :     4.174511  p :    12.210596
      px      :     4.018042
      py      :     4.018042
      dz2     :     0.415198  d :     2.725191
      dxz     :     0.163194
      dyz     :     0.163194
      dx2y2   :     0.991803
      dxy     :     0.991803
      f0      :     0.099765  f :     0.240014
      f+1     :     0.061232
      f-1     :     0.061232
      f+2     :     0.003426
      f-2     :     0.003426
      f+3     :     0.005467
      f-3     :     0.005467
      g0      :     0.052280  g :     0.140716
      g+1     :     0.042986
      g-1     :     0.042986
      g+2     :     0.000474
      g-2     :     0.000474
      g+3     :     0.000345
      g-3     :     0.000345
      g+4     :     0.000413
      g-4     :     0.000413
  1 F s       :     3.568665  s :     3.568665
      pz      :     1.813012  p :     5.236911
      px      :     1.711949
      py      :     1.711949
      dz2     :     0.031943  d :     0.059076
      dxz     :     0.007267
      dyz     :     0.007267
      dx2y2   :     0.006299
      dxy     :     0.006299
      f0      :     0.003923  f :     0.007791
      f+1     :     0.000804
      f-1     :     0.000804
      f+2     :     0.000644
      f-2     :     0.000644
      f+3     :     0.000485
      f-3     :     0.000485
      g0      :     0.000130  g :     0.000599
      g+1     :     0.000067
      g-1     :     0.000067
      g+2     :     0.000060
      g-2     :     0.000060
      g+3     :     0.000055
      g-3     :     0.000055
      g+4     :     0.000053
      g-4     :     0.000053

SPIN
  0 Tis       :     0.786445  s :     0.786445
      pz      :     0.099587  p :     0.127322
      px      :     0.013868
      py      :     0.013868
      dz2     :     0.112326  d :     2.097582
      dxz     :     0.016346
      dyz     :     0.016346
      dx2y2   :     0.976282
      dxy     :     0.976282
      f0      :     0.000358  f :     0.011468
      f+1     :    -0.000422
      f-1     :    -0.000422
      f+2     :     0.001633
      f-2     :     0.001633
      f+3     :     0.004344
      f-3     :     0.004344
      g0      :    -0.000031  g :    -0.000395
      g+1     :    -0.000744
      g-1     :    -0.000744
      g+2     :     0.000077
      g-2     :     0.000077
      g+3     :     0.000181
      g-3     :     0.000181
      g+4     :     0.000304
      g-4     :     0.000304
  1 F s       :     0.003003  s :     0.003003
      pz      :    -0.006369  p :    -0.027273
      px      :    -0.010452
      py      :    -0.010452
      dz2     :     0.000106  d :     0.001520
      dxz     :     0.000032
      dyz     :     0.000032
      dx2y2   :     0.000675
      dxy     :     0.000675
      f0      :     0.000085  f :     0.000319
      f+1     :    -0.000005
      f-1     :    -0.000005
      f+2     :     0.000125
      f-2     :     0.000125
      f+3     :    -0.000002
      f-3     :    -0.000002
      g0      :     0.000003  g :     0.000009
      g+1     :    -0.000000
      g-1     :    -0.000000
      g+2     :     0.000004
      g-2     :     0.000004
      g+3     :     0.000000
      g-3     :     0.000000
      g+4     :    -0.000000
      g-4     :    -0.000000


                      *****************************
                      * MAYER POPULATION ANALYSIS *
                      *****************************

  NA   - Mulliken gross atomic population
  ZA   - Total nuclear charge
  QA   - Mulliken gross atomic charge
  VA   - Mayer's total valence
  BVA  - Mayer's bonded valence
  FA   - Mayer's free valence

  ATOM       NA         ZA         QA         VA         BVA        FA
  0 Ti    21.5110    22.0000     0.4890     4.4140     0.8627     3.5513
  1 F      9.4890     9.0000    -0.4890     1.2780     0.8627     0.4153

  Mayer bond orders larger than 0.100000
B(  0-Ti,  1-F ) :   0.8627 



------------------------------------------------------------------------------- 
                                     TIMINGS                                   
------------------------------------------------------------------------------- 


Total execution time                   ...       90.225 sec

Fock Matrix Formation                  ...        0.836 sec (  0.9%)
Initial Guess                          ...        0.077 sec (  0.1%)
DIIS Solver                            ...        4.531 sec (  5.0%)
State Vector Update                    ...        0.192 sec (  0.2%)
Sigma-vector construction              ...       65.436 sec ( 72.5%)
  <0|H|D>                              ...        0.011 sec (  0.0% of sigma)
  <D|H|D>(0-ext Fock)                  ...        0.088 sec (  0.1% of sigma)
  <D|H|D>(0-ext)                       ...        0.389 sec (  0.6% of sigma)
  <D|H|D>(2-ext Fock)                  ...        0.031 sec (  0.0% of sigma)
  <D|H|D>(2-ext)                       ...        1.439 sec (  2.2% of sigma)
  <D|H|D>(4-ext)                       ...       37.235 sec ( 56.9% of sigma)
  <S|H|0>                              ...        3.638 sec (  5.6% of sigma)
  <S|H|S>                              ...        0.005 sec (  0.0% of sigma)
  <S|H|D>(1-ext)                       ...        0.021 sec (  0.0% of sigma)
  <D|H|S>(1-ext)                       ...        0.328 sec (  0.5% of sigma)
  Fock-dressing                        ...        9.302 sec ( 14.2% of sigma)
  (ik|jl)-dressing                     ...        0.452 sec (  0.7% of sigma)
  (ij|ab),(ia|jb)-dressing             ...       10.400 sec ( 15.9% of sigma)
  Pair energies                        ...        0.013 sec (  0.0% of sigma)
Total Time for computing (T)           ...       11.245 sec ( 12.5% of ALL)
  I/O of integral and amplitudes       ...        1.712 sec ( 15.2% of (T))
  External N**7 contributions          ...        3.989 sec ( 35.5% of (T))
  Internal N**7 contributions          ...        1.338 sec ( 11.9% of (T))
  N**6 triples energy contributions    ...        4.025 sec ( 35.8% of (T))


-------------------
EXTRAPOLATED ENERGY
-------------------


-----------------------------------------------------------------
                      EP1 - MDCI extrapolation:
-----------------------------------------------------------------
NOTE: We use as reference SCF energy, for the extrapolation, the one from the MDCI module and not the one 
from the SCF calculation. In case the first step is a DFT calculation these two might be different.

NOTE: For the SCF part we extrapolate based on the scheme proposed in J. Chem. Phys. 2008, 129, 184116
using the exponents from J. Chem. Theory Comput., 7, 33-43 (2011)

NOTE: For the correlation part we extrapolate based on the scheme proposed in J. Chem. Phys. 1997, 106, 9639
using the exponents from J. Chem. Theory Comput., 7, 33-43 (2011)


Alpha(3/4)     :  7.880 (SCF Extrapolation)
Beta(3/4)      :  2.970 (correlation extrapolation)

SCF energy with basis def2-TZVPP:                      -947.947705879
SCF energy with basis def2-QZVPP:                      -947.968055372
Extrapolated CBS SCF energy (3/4) :                    -947.970858285 (-0.002802912) 

MDCI energy with basis def2-TZVPP:                       -0.601049464
MDCI energy with basis def2-QZVPP:                       -0.655663352
Extrapolated CBS correlation energy (3/4) :              -0.696118054 (-0.040454702)

Estimated CBS total energy (3/4) :                     -948.666976339



-------------------------   --------------------
FINAL SINGLE POINT ENERGY      -948.666976338510
-------------------------   --------------------


                            ***************************************
                            *     ORCA property calculations      *
                            ***************************************

                                    ---------------------
                                    Active property flags
                                    ---------------------
   (+) Dipole Moment


------------------------------------------------------------------------------
                       ORCA ELECTRIC PROPERTIES CALCULATION
------------------------------------------------------------------------------

Dipole Moment Calculation                       ... on
Quadrupole Moment Calculation                   ... off
Polarizability Calculation                      ... off
GBWName                                         ... 08_TiF.gbw
Electron density file                           ... 08_TiF.scfp
The origin for moment calculation is the CENTER OF MASS  = ( 0.000000,  0.000000  1.163448)

-------------
DIPOLE MOMENT
-------------
                                X             Y             Z
Electronic contribution:     -0.00000      -0.00000      -1.57471
Nuclear contribution   :      0.00000       0.00000       0.66059
                        -----------------------------------------
Total Dipole Moment    :     -0.00000      -0.00000      -0.91412
                        -----------------------------------------
Magnitude (a.u.)       :      0.91412
Magnitude (Debye)      :      2.32351



--------------------
Rotational spectrum 
--------------------
 
Rotational constants in cm-1:     0.000000     0.391496     0.391496 
Rotational constants in MHz :     0.000000 11736.757371 11736.757371 

 Dipole components along the rotational axes: 
x,y,z [a.u.] :    -0.914120    -0.000000    -0.000000 
x,y,z [Debye]:    -2.323508    -0.000000    -0.000000 

 

                           *** MDCI DENSITY ***

------------------------------------------------------------------------------
                       ORCA ELECTRIC PROPERTIES CALCULATION
------------------------------------------------------------------------------

Dipole Moment Calculation                       ... on
Quadrupole Moment Calculation                   ... off
Polarizability Calculation                      ... off
GBWName                                         ... 08_TiF.gbw
Electron density file                           ... 08_TiF.mdcip
The origin for moment calculation is the CENTER OF MASS  = ( 0.000000,  0.000000  1.163448)

-------------
DIPOLE MOMENT
-------------
                                X             Y             Z
Electronic contribution:      0.00000       0.00000      -1.79800
Nuclear contribution   :      0.00000       0.00000       0.66059
                        -----------------------------------------
Total Dipole Moment    :      0.00000       0.00000      -1.13740
                        -----------------------------------------
Magnitude (a.u.)       :      1.13740
Magnitude (Debye)      :      2.89105



--------------------
Rotational spectrum 
--------------------
 
Rotational constants in cm-1:     0.000000     0.391496     0.391496 
Rotational constants in MHz :     0.000000 11736.757371 11736.757371 

 Dipole components along the rotational axes: 
x,y,z [a.u.] :    -1.137404     0.000000     0.000000 
x,y,z [Debye]:    -2.891052     0.000000     0.000000 

 

Timings for individual modules:

Sum of individual times         ...      128.190 sec (=   2.137 min)
GTO integral calculation        ...        1.541 sec (=   0.026 min)   1.2 %
SCF iterations                  ...       10.268 sec (=   0.171 min)   8.0 %
MDCI module                     ...      116.381 sec (=   1.940 min)  90.8 %
                             ****ORCA TERMINATED NORMALLY****
TOTAL RUN TIME: 0 days 0 hours 2 minutes 9 seconds 142 msec
