
                                 *****************
                                 * O   R   C   A *
                                 *****************

           --- An Ab Initio, DFT and Semiempirical electronic structure package ---

                  #######################################################
                  #                        -***-                        #
                  #          Department of theory and spectroscopy      #
                  #               Directorship: Frank Neese             #
                  #        Max Planck Institute fuer Kohlenforschung    #
                  #                Kaiser Wilhelm Platz 1               #
                  #                 D-45470 Muelheim/Ruhr               #
                  #                      Germany                        #
                  #                                                     #
                  #                  All rights reserved                #
                  #                        -***-                        #
                  #######################################################


                         Program Version 4.2.0 -  RELEASE  -


 With contributions from (in alphabetic order):
   Daniel Aravena         : Magnetic Suceptibility
   Michael Atanasov       : Ab Initio Ligand Field Theory (pilot matlab implementation)
   Alexander A. Auer      : GIAO ZORA, VPT2
   Ute Becker             : Parallelization
   Giovanni Bistoni       : ED, misc. LED, open-shell LED, HFLED
   Martin Brehm           : Molecular dynamics
   Dmytro Bykov           : SCF Hessian
   Vijay G. Chilkuri      : MRCI spin determinant printing, contributions to CSF-ICE
   Dipayan Datta          : RHF DLPNO-CCSD density
   Achintya Kumar Dutta   : EOM-CC, STEOM-CC
   Dmitry Ganyushin       : Spin-Orbit,Spin-Spin,Magnetic field MRCI
   Miquel Garcia          : C-PCM Hessian, Gaussian charge scheme
   Yang Guo               : DLPNO-NEVPT2, CIM, IAO-localization
   Andreas Hansen         : Spin unrestricted coupled pair/coupled cluster methods
   Benjamin Helmich-Paris : CASSCF linear response (MC-RPA)
   Lee Huntington         : MR-EOM, pCC
   Robert Izsak           : Overlap fitted RIJCOSX, COSX-SCS-MP3, EOM
   Christian Kollmar      : KDIIS, OOCD, Brueckner-CCSD(T), CCSD density
   Simone Kossmann        : Meta GGA functionals, TD-DFT gradient, OOMP2, MP2 Hessian
   Martin Krupicka        : AUTO-CI
   Lucas Lang             : DCDCAS
   Dagmar Lenk            : GEPOL surface, SMD
   Dimitrios Liakos       : Extrapolation schemes; Compound Job, initial MDCI parallelization
   Dimitrios Manganas     : Further ROCIS development; embedding schemes
   Dimitrios Pantazis     : SARC Basis sets
   Taras Petrenko         : DFT Hessian,TD-DFT gradient, ASA, ECA, R-Raman, ABS, FL, XAS/XES, NRVS
   Peter Pinski           : DLPNO-MP2, DLPNO-MP2 Gradient
   Christoph Reimann      : Effective Core Potentials
   Marius Retegan         : Local ZFS, SOC
   Christoph Riplinger    : Optimizer, TS searches, QM/MM, DLPNO-CCSD(T), (RO)-DLPNO pert. Triples
   Tobias Risthaus        : Range-separated hybrids, TD-DFT gradient, RPA, STAB
   Michael Roemelt        : Original ROCIS implementation
   Masaaki Saitow         : Open-shell DLPNO-CCSD energy and density
   Barbara Sandhoefer     : DKH picture change effects
   Avijit Sen             : IP-ROCIS
   Kantharuban Sivalingam : CASSCF convergence, NEVPT2, FIC-MRCI
   Bernardo de Souza      : ESD, SOC TD-DFT
   Georgi Stoychev        : AutoAux, RI-MP2 NMR
   Willem Van den Heuvel  : Paramagnetic NMR
   Boris Wezisla          : Elementary symmetry handling
   Frank Wennmohs         : Technical directorship


 We gratefully acknowledge several colleagues who have allowed us to
 interface, adapt or use parts of their codes:
   Stefan Grimme, W. Hujo, H. Kruse,             : VdW corrections, initial TS optimization,
                  C. Bannwarth                     DFT functionals, gCP, sTDA/sTD-DF
   Ed Valeev, F. Pavosevic, A. Kumar             : LibInt (2-el integral package), F12 methods
   Garnet Chan, S. Sharma, J. Yang, R. Olivares  : DMRG
   Ulf Ekstrom                                   : XCFun DFT Library
   Mihaly Kallay                                 : mrcc  (arbitrary order and MRCC methods)
   Andreas Klamt, Michael Diedenhofen            : otool_cosmo (COSMO solvation model)
   Jiri Pittner, Ondrej Demel                    : Mk-CCSD
   Frank Weinhold                                : gennbo (NPA and NBO analysis)
   Christopher J. Cramer and Donald G. Truhlar   : smd solvation model
   Lars Goerigk                                  : TD-DFT with DH, B97 family of functionals
   V. Asgeirsson, H. Jonsson                     : NEB implementation
   FAccTs GmbH                                   : IRC, NEB, NEB-TS, Multilevel, MM, QM/MM, CI optimization
   S Lehtola, MJT Oliveira, MAL Marques          : LibXC Library


 Your calculation uses the libint2 library for the computation of 2-el integrals
 For citations please refer to: http://libint.valeyev.net

 Your ORCA version has been built with support for libXC version: 4.2.3
 For citations please refer to: https://tddft.org/programs/libxc/

 This ORCA versions uses:
   CBLAS   interface :  Fast vector & matrix operations
   LAPACKE interface :  Fast linear algebra routines
   SCALAPACK package :  Parallel linear algebra routines


----- Orbital basis set information -----
Your calculation utilizes the basis: def2-TZVPP
   F. Weigend and R. Ahlrichs, Phys. Chem. Chem. Phys. 7, 3297 (2005).

================================================================================
                                        WARNINGS
                       Please study these warnings very carefully!
================================================================================


WARNING: your system is open-shell and RHF/RKS was chosen
  ===> : WILL SWITCH to UHF/UKS


WARNING: MDCI localization with Augmented Hessian Foster-Boys
  ===> : Switching off randomization!

WARNING: Post HF methods need fully converged wavefunctions
  ===> : Setting SCFConvForced true
         You can overwrite this default with %scf ConvForced false 


INFO   : the flag for use of LIBINT has been found!

================================================================================
                                       INPUT FILE
================================================================================
NAME = 09_TiCl.in
|  1> #
|  2> # 09_TiCl ccsd(t)/cbs
|  3> #
|  4> ! ccsd(t) extrapolate(3/4,def2) verytightscf
|  5> 
|  6> *xyz 0 4
|  7>   Ti  0.00000000000000      0.00000000000000     -0.11680209456005
|  8>   Cl  0.00000000000000      0.00000000000000      2.11680209456005
|  9> *
| 10> 
| 11> %maxcore 5000
| 12> %pal
| 13> nprocs 24
| 14> end
| 15> 
| 16> 
| 17>                          ****END OF INPUT****
================================================================================

                   *****************************************
                   * Extrapolated Single Point Calculation *
                   *****************************************

----- Orbital basis set information -----
Your calculation utilizes the basis: def2-TZVPP
   F. Weigend and R. Ahlrichs, Phys. Chem. Chem. Phys. 7, 3297 (2005).

----- AuxJ basis set information -----
Your calculation utilizes the auxiliary basis: def2/J
   F. Weigend, Phys. Chem. Chem. Phys. 8, 1057 (2006).

----- AuxC basis set information -----
Your calculation utilizes the auxiliary basis: def2-TZVPP/C
  H-La, Hf-Rn : A. Hellweg, C. Hattig, S. Hofener and W. Klopper, Theor. Chem. Acc. 117, 587 (2007).
        Ce-Lu : J. Chmela and M. E. Harding, Mol. Phys. (2018).

----- AuxJK basis set information -----
Your calculation utilizes the auxiliary basis: def2/JK
   H-Ba, Hf-Rn: F. Weigend, J. Comput. Chem. 29, 167 (2008).

All done

                     -----------------------------------------
                     Extrapolated Energy 1 Basis=  def2-TZVPP
                     -----------------------------------------

---------------------------------
CARTESIAN COORDINATES (ANGSTROEM)
---------------------------------
  Ti     0.000000    0.000000   -0.116802
  Cl     0.000000    0.000000    2.116802

----------------------------
CARTESIAN COORDINATES (A.U.)
----------------------------
  NO LB      ZA    FRAG     MASS         X           Y           Z
   0 Ti   22.0000    0    47.900    0.000000    0.000000   -0.220724
   1 Cl   17.0000    0    35.453    0.000000    0.000000    4.000176

--------------------------------
INTERNAL COORDINATES (ANGSTROEM)
--------------------------------
 Ti     0   0   0     0.000000000000     0.00000000     0.00000000
 Cl     1   0   0     2.233604189120     0.00000000     0.00000000

---------------------------
INTERNAL COORDINATES (A.U.)
---------------------------
 Ti     0   0   0     0.000000000000     0.00000000     0.00000000
 Cl     1   0   0     4.220900209016     0.00000000     0.00000000

---------------------
BASIS SET INFORMATION
---------------------
There are 2 groups of distinct atoms

 Group   1 Type Ti  : 17s12p7d2f1g contracted to 6s5p4d2f1g pattern {842111/63111/4111/11/1}
 Group   2 Type Cl  : 14s9p3d1f contracted to 5s5p3d1f pattern {73211/51111/111/1}

Atom   0Ti   basis set group =>   1
Atom   1Cl   basis set group =>   2
---------------------------------
AUXILIARY/J BASIS SET INFORMATION
---------------------------------
There are 2 groups of distinct atoms

 Group   1 Type Ti  : 19s5p5d3f3g contracted to 8s5p5d2f3g pattern {121111111/11111/11111/21/111}
 Group   2 Type Cl  : 14s5p5d2f1g contracted to 8s4p3d1f1g pattern {71111111/2111/311/2/1}

Atom   0Ti   basis set group =>   1
Atom   1Cl   basis set group =>   2
---------------------------------
AUXILIARY/C BASIS SET INFORMATION
---------------------------------
There are 2 groups of distinct atoms

 Group   1 Type Ti  : 9s9p8d7f5g3h1i contracted to 9s9p8d7f5g3h1i pattern {111111111/111111111/11111111/1111111/11111/111/1}
 Group   2 Type Cl  : 11s8p7d5f2g contracted to 11s8p7d5f2g pattern {11111111111/11111111/1111111/11111/11}

Atom   0Ti   basis set group =>   1
Atom   1Cl   basis set group =>   2
----------------------------------
AUXILIARY/JK BASIS SET INFORMATION
----------------------------------
There are 2 groups of distinct atoms

 Group   1 Type Ti  : 19s14p12d10f7g3h1i contracted to 16s13p11d9f5g3h1i pattern {4111111111111111/2111111111111/21111111111/211111111/31111/111/1}
 Group   2 Type Cl  : 16s12p10d4f1g contracted to 13s11p9d4f1g pattern {4111111111111/21111111111/211111111/1111/1}

Atom   0Ti   basis set group =>   1
Atom   1Cl   basis set group =>   2


           ************************************************************
           *        Program running with 24 parallel MPI-processes    *
           *              working on a common directory               *
           ************************************************************
------------------------------------------------------------------------------
                           ORCA GTO INTEGRAL CALCULATION
------------------------------------------------------------------------------

                         BASIS SET STATISTICS AND STARTUP INFO

 # of primitive gaussian shells          ...   66
 # of primitive gaussian functions       ...  174
 # of contracted shells                  ...   32
 # of contracted basis functions         ...  106
 Highest angular momentum                ...    4
 Maximum contraction depth               ...    8
 Integral package used                   ... LIBINT
 Integral threshhold            Thresh   ...  1.000e-12
 Primitive cut-off              TCut     ...  1.000e-14


------------------------------ INTEGRAL EVALUATION ----------------------------


 * One electron integrals 
 Pre-screening matrix                    ... done
 Shell pair data                         ... done (   0.000 sec)



           ************************************************************
           *        Program running with 24 parallel MPI-processes    *
           *              working on a common directory               *
           ************************************************************
-------------------------------------------------------------------------------
                                 ORCA SCF
-------------------------------------------------------------------------------

------------
SCF SETTINGS
------------
Hamiltonian:
 Ab initio Hamiltonian  Method          .... Hartree-Fock(GTOs)


General Settings:
 Integral files         IntName         .... 09_TiCl
 Hartree-Fock type      HFTyp           .... UHF
 Total Charge           Charge          ....    0
 Multiplicity           Mult            ....    4
 Number of Electrons    NEL             ....   39
 Basis Dimension        Dim             ....  106
 Nuclear Repulsion      ENuc            ....     88.6066908668 Eh

Convergence Acceleration:
 DIIS                   CNVDIIS         .... on
   Start iteration      DIISMaxIt       ....    12
   Startup error        DIISStart       ....  0.200000
   # of expansion vecs  DIISMaxEq       ....     5
   Bias factor          DIISBfac        ....   1.050
   Max. coefficient     DIISMaxC        ....  10.000
 Newton-Raphson         CNVNR           .... off
 SOSCF                  CNVSOSCF        .... off
 Level Shifting         CNVShift        .... on
   Level shift para.    LevelShift      ....    0.2500
   Turn off err/grad.   ShiftErr        ....    0.0010
 Zerner damping         CNVZerner       .... off
 Static damping         CNVDamp         .... on
   Fraction old density DampFac         ....    0.7000
   Max. Damping (<1)    DampMax         ....    0.9800
   Min. Damping (>=0)   DampMin         ....    0.0000
   Turn off err/grad.   DampErr         ....    0.1000
 Fernandez-Rico         CNVRico         .... off

SCF Procedure:
 Maximum # iterations   MaxIter         ....   125
 SCF integral mode      SCFMode         .... Direct
   Integral package                     .... LIBINT
 Reset frequency        DirectResetFreq ....    20
 Integral Threshold     Thresh          ....  1.000e-12 Eh
 Primitive CutOff       TCut            ....  1.000e-14 Eh

Convergence Tolerance:
 Convergence Check Mode ConvCheckMode   .... Total+1el-Energy
 Convergence forced     ConvForced      .... 1
 Energy Change          TolE            ....  1.000e-09 Eh
 1-El. energy change                    ....  1.000e-06 Eh
 DIIS Error             TolErr          ....  1.000e-08


Diagonalization of the overlap matrix:
Smallest eigenvalue                        ... 3.547e-03
Time for diagonalization                   ...    0.016 sec
Threshold for overlap eigenvalues          ... 1.000e-08
Number of eigenvalues below threshold      ... 0
Time for construction of square roots      ...    0.001 sec
Total time needed                          ...    0.018 sec

-------------------
DFT GRID GENERATION
-------------------

General Integration Accuracy     IntAcc      ...  4.340
Radial Grid Type                 RadialGrid  ... Gauss-Chebyshev
Angular Grid (max. acc.)         AngularGrid ... Lebedev-110
Angular grid pruning method      GridPruning ... 3 (G Style)
Weight generation scheme         WeightScheme... Becke
Basis function cutoff            BFCut       ...    1.0000e-12
Integration weight cutoff        WCut        ...    1.0000e-14
Grids for H and He will be reduced by one unit

# of grid points (after initial pruning)     ...   4816 (   0.0 sec)
# of grid points (after weights+screening)   ...   4791 (   0.0 sec)
nearest neighbour list constructed           ...    0.0 sec
Grid point re-assignment to atoms done       ...    0.0 sec
Grid point division into batches done        ...    0.0 sec
Reduced shell lists constructed in    0.0 sec

Total number of grid points                  ...     4791
Total number of batches                      ...       76
Average number of points per batch           ...       63
Average number of grid points per atom       ...     2396
Average number of shells per batch           ...    10.40 (32.50%)
Average number of basis functions per batch  ...    36.00 (33.96%)
Average number of large shells per batch     ...     7.20 (69.23%)
Average number of large basis fcns per batch ...    23.20 (64.44%)
Maximum spatial batch extension              ...  20.31, 28.73, 16.39 au
Average spatial batch extension              ...   0.97,  1.26,  0.86 au

Time for grid setup =    0.019 sec

------------------------------
INITIAL GUESS: MODEL POTENTIAL
------------------------------
Loading Hartree-Fock densities                     ... done
Calculating cut-offs                               ... done
Setting up the integral package                    ... done
Initializing the effective Hamiltonian             ... done
Starting the Coulomb interaction                   ... done (   0.0 sec)
Reading the grid                                   ... done
Mapping shells                                     ... done
Starting the XC term evaluation                    ... done (   0.0 sec)
Transforming the Hamiltonian                       ... done (   0.0 sec)
Diagonalizing the Hamiltonian                      ... done (   0.0 sec)
Back transforming the eigenvectors                 ... done (   0.0 sec)
Now organizing SCF variables                       ... done
                      ------------------
                      INITIAL GUESS DONE (   0.1 sec)
                      ------------------
--------------
SCF ITERATIONS
--------------
ITER       Energy         Delta-E        Max-DP      RMS-DP      [F,P]     Damp
               ***  Starting incremental Fock matrix formation  ***
  0  -1307.8639171342   0.000000000000 0.02548875  0.00060705  0.1408504 0.7000
  1  -1307.8950528492  -0.031135715069 0.02014742  0.00047413  0.1018593 0.7000
                               ***Turning on DIIS***
  2  -1307.9153873626  -0.020334513355 0.04674661  0.00107772  0.0730776 0.0000
  3  -1307.7706798359   0.144707526657 0.02916109  0.00047196  0.0290794 0.0000
  4  -1308.0421755195  -0.271495683537 0.02420410  0.00024901  0.0095022 0.0000
  5  -1307.9699397369   0.072235782553 0.02483688  0.00024723  0.0075100 0.0000
  6  -1307.9672451776   0.002694559315 0.01915689  0.00021086  0.0077274 0.0000
  7  -1307.9599386239   0.007306553686 0.01268037  0.00016887  0.0081267 0.0000
  8  -1307.9735665606  -0.013627936662 0.00946251  0.00015635  0.0082622 0.0000
  9  -1307.9850063655  -0.011439804968 0.00852774  0.00016047  0.0082816 0.0000
 10  -1308.0702342067  -0.085227841158 0.01736114  0.00030830  0.0082567 0.0000
 11  -1308.0236124644   0.046621742322 0.00952789  0.00021951  0.0082396 0.0000
 12  -1308.3599302613  -0.336317796934 0.03725010  0.00073623  0.0077989 0.0000
 13  -1307.9169365209   0.442993740448 0.02470566  0.00029936  0.0067220 0.0000
 14  -1308.1612998644  -0.244363343535 0.02321833  0.00050432  0.0060838 0.0000
 15  -1308.3302591652  -0.168959300801 0.02541054  0.00049273  0.0051840 0.0000
 16  -1308.1223365223   0.207922642859 0.01663340  0.00019410  0.0060414 0.0000
 17  -1308.1140396162   0.008296906178 0.01280153  0.00024974  0.0024670 0.0000
 18  -1308.0460801781   0.067959438023 0.01089858  0.00012328  0.0022026 0.0000
 19  -1308.0205418124   0.025538365736 0.00723345  0.00009602  0.0012239 0.0000
               *** Restarting incremental Fock matrix formation ***
                                   *** Resetting DIIS ***
 20  -1307.9790558486   0.041485963756 0.00478007  0.00005065  0.0008117 0.0000
 21  -1307.9720942776   0.006961571036 0.00123121  0.00001528  0.0004324 0.0000
 22  -1307.9799644682  -0.007870190636 0.00201029  0.00002331  0.0003229 0.0000
 23  -1307.9799907180  -0.000026249736 0.00122041  0.00001658  0.0002052 0.0000
 24  -1307.9802814761  -0.000290758143 0.00056251  0.00001158  0.0001709 0.0000
 25  -1307.9808304246  -0.000548948528 0.00065624  0.00001244  0.0001215 0.0000
 26  -1307.9799208544   0.000909570265 0.00030331  0.00000572  0.0000475 0.0000
 27  -1307.9792859846   0.000634869734 0.00006004  0.00000126  0.0000074 0.0000
 28  -1307.9790759711   0.000210013542 0.00000866  0.00000025  0.0000026 0.0000
 29  -1307.9790962900  -0.000020318857 0.00000637  0.00000016  0.0000010 0.0000
 30  -1307.9790803114   0.000015978540 0.00000202  0.00000006  0.0000004 0.0000
 31  -1307.9790789038   0.000001407574 0.00000073  0.00000002  0.0000002 0.0000
 32  -1307.9790789074  -0.000000003555 0.00000037  0.00000001  0.0000001 0.0000
 33  -1307.9790785468   0.000000360631 0.00000011  0.00000000  0.0000001 0.0000
 34  -1307.9790786727  -0.000000125890 0.00000009  0.00000000  0.0000000 0.0000
 35  -1307.9790787359  -0.000000063219 0.00000010  0.00000000  0.0000000 0.0000
                            ***DIIS convergence achieved***

               *****************************************************
               *                     SUCCESS                       *
               *           SCF CONVERGED AFTER  36 CYCLES          *
               *****************************************************


----------------
TOTAL SCF ENERGY
----------------

Total Energy       :        -1307.97907868 Eh          -35591.92019 eV

Components:
Nuclear Repulsion  :           88.60669087 Eh            2411.11064 eV
Electronic Energy  :        -1396.58576955 Eh          -38003.03083 eV
One Electron Energy:        -1976.21409571 Eh          -53775.51944 eV
Two Electron Energy:          579.62832616 Eh           15772.48861 eV

Virial components:
Potential Energy   :        -2616.00361296 Eh          -71185.07729 eV
Kinetic Energy     :         1308.02453428 Eh           35593.15710 eV
Virial Ratio       :            1.99996525


---------------
SCF CONVERGENCE
---------------

  Last Energy change         ...    5.1712e-08  Tolerance :   1.0000e-09
  Last MAX-Density change    ...    6.5297e-08  Tolerance :   1.0000e-08
  Last RMS-Density change    ...    1.2768e-09  Tolerance :   1.0000e-09
  Last DIIS Error            ...    1.0517e-08  Tolerance :   1.0000e-08

             **** THE GBW FILE WAS UPDATED (09_TiCl.gbw) ****
             **** DENSITY FILE WAS UPDATED (09_TiCl.scfp) ****
             **** ENERGY FILE WAS UPDATED (09_TiCl.en.tmp) ****
----------------------
UHF SPIN CONTAMINATION
----------------------

Expectation value of <S**2>     :     3.755132
Ideal value S*(S+1) for S=1.5   :     3.750000
Deviation                       :     0.005132

             **** THE GBW FILE WAS UPDATED (09_TiCl.gbw) ****
             **** DENSITY FILE WAS UPDATED (09_TiCl.scfp) ****
----------------
ORBITAL ENERGIES
----------------
                 SPIN UP ORBITALS
  NO   OCC          E(Eh)            E(eV) 
   0   1.0000    -183.275480     -4987.1794 
   1   1.0000    -104.780309     -2851.2172 
   2   1.0000     -21.440475      -583.4250 
   3   1.0000     -17.811630      -484.6791 
   4   1.0000     -17.807908      -484.5778 
   5   1.0000     -17.807908      -484.5778 
   6   1.0000     -10.511362      -286.0287 
   7   1.0000      -7.977596      -217.0814 
   8   1.0000      -7.976886      -217.0621 
   9   1.0000      -7.976886      -217.0621 
  10   1.0000      -2.935522       -79.8796 
  11   1.0000      -1.899822       -51.6968 
  12   1.0000      -1.899822       -51.6968 
  13   1.0000      -1.825884       -49.6848 
  14   1.0000      -1.034022       -28.1372 
  15   1.0000      -0.479591       -13.0503 
  16   1.0000      -0.437926       -11.9166 
  17   1.0000      -0.437926       -11.9166 
  18   1.0000      -0.396700       -10.7947 
  19   1.0000      -0.396700       -10.7947 
  20   1.0000      -0.251407        -6.8411 
  21   0.0000       0.029671         0.8074 
  22   0.0000       0.029671         0.8074 
  23   0.0000       0.041645         1.1332 
  24   0.0000       0.127111         3.4589 
  25   0.0000       0.127111         3.4589 
  26   0.0000       0.130711         3.5568 
  27   0.0000       0.151705         4.1281 
  28   0.0000       0.151705         4.1281 
  29   0.0000       0.199839         5.4379 
  30   0.0000       0.199839         5.4379 
  31   0.0000       0.202060         5.4983 
  32   0.0000       0.210070         5.7163 
  33   0.0000       0.339247         9.2314 
  34   0.0000       0.339247         9.2314 
  35   0.0000       0.411993        11.2109 
  36   0.0000       0.502690        13.6789 
  37   0.0000       0.564087        15.3496 
  38   0.0000       0.564087        15.3496 
  39   0.0000       0.607536        16.5319 
  40   0.0000       0.607536        16.5319 
  41   0.0000       0.655461        17.8360 
  42   0.0000       0.655461        17.8360 
  43   0.0000       0.679001        18.4766 
  44   0.0000       0.679001        18.4766 
  45   0.0000       0.742184        20.1959 
  46   0.0000       0.747910        20.3517 
  47   0.0000       0.747910        20.3517 
  48   0.0000       0.816891        22.2287 
  49   0.0000       0.839345        22.8398 
  50   0.0000       0.839345        22.8398 
  51   0.0000       0.911455        24.8020 
  52   0.0000       0.911455        24.8020 
  53   0.0000       1.158680        31.5293 
  54   0.0000       1.158680        31.5293 
  55   0.0000       1.167495        31.7692 
  56   0.0000       1.442853        39.2620 
  57   0.0000       1.677944        45.6592 
  58   0.0000       1.677944        45.6592 
  59   0.0000       1.691285        46.0222 
  60   0.0000       1.941579        52.8330 
  61   0.0000       2.123002        57.7698 
  62   0.0000       2.123002        57.7698 
  63   0.0000       2.203620        59.9635 
  64   0.0000       2.203620        59.9635 
  65   0.0000       2.229229        60.6604 
  66   0.0000       2.324113        63.2423 
  67   0.0000       2.327247        63.3276 
  68   0.0000       2.327247        63.3276 
  69   0.0000       2.330281        63.4102 
  70   0.0000       2.330281        63.4102 
  71   0.0000       2.419134        65.8280 
  72   0.0000       2.419134        65.8280 
  73   0.0000       2.440795        66.4174 
  74   0.0000       2.440795        66.4174 
  75   0.0000       2.510387        68.3111 
  76   0.0000       2.510387        68.3111 
  77   0.0000       2.637605        71.7729 
  78   0.0000       2.637605        71.7729 
  79   0.0000       2.711368        73.7801 
  80   0.0000       2.846491        77.4570 
  81   0.0000       2.846491        77.4570 
  82   0.0000       2.849580        77.5410 
  83   0.0000       2.849580        77.5410 
  84   0.0000       2.922952        79.5376 
  85   0.0000       2.929830        79.7247 
  86   0.0000       2.929830        79.7247 
  87   0.0000       3.240073        88.1669 
  88   0.0000       3.240073        88.1669 
  89   0.0000       3.247404        88.3663 
  90   0.0000       3.247404        88.3663 
  91   0.0000       3.308946        90.0410 
  92   0.0000       3.308946        90.0410 
  93   0.0000       3.488260        94.9204 
  94   0.0000       3.488260        94.9204 
  95   0.0000       3.558422        96.8296 
  96   0.0000       3.789964       103.1302 
  97   0.0000       8.697615       236.6741 
  98   0.0000       8.697615       236.6741 
  99   0.0000       8.801307       239.4957 
 100   0.0000       8.801307       239.4957 
 101   0.0000       8.874709       241.4931 
 102   0.0000      11.574226       314.9507 
 103   0.0000      11.574226       314.9507 
 104   0.0000      11.939384       324.8872 
 105   0.0000      25.717687       699.8138 

                 SPIN DOWN ORBITALS
  NO   OCC          E(Eh)            E(eV) 
   0   1.0000    -183.273869     -4987.1355 
   1   1.0000    -104.780871     -2851.2325 
   2   1.0000     -21.406582      -582.5027 
   3   1.0000     -17.802774      -484.4381 
   4   1.0000     -17.763575      -483.3715 
   5   1.0000     -17.763575      -483.3715 
   6   1.0000     -10.511832      -286.0415 
   7   1.0000      -7.978240      -217.0990 
   8   1.0000      -7.978007      -217.0926 
   9   1.0000      -7.978007      -217.0926 
  10   1.0000      -2.807034       -76.3833 
  11   1.0000      -1.795849       -48.8675 
  12   1.0000      -1.681086       -45.7447 
  13   1.0000      -1.681086       -45.7447 
  14   1.0000      -1.036598       -28.2073 
  15   1.0000      -0.475914       -12.9503 
  16   1.0000      -0.440392       -11.9837 
  17   1.0000      -0.440392       -11.9837 
  18   0.0000       0.011911         0.3241 
  19   0.0000       0.086905         2.3648 
  20   0.0000       0.086905         2.3648 
  21   0.0000       0.093855         2.5539 
  22   0.0000       0.134429         3.6580 
  23   0.0000       0.134429         3.6580 
  24   0.0000       0.157795         4.2938 
  25   0.0000       0.157795         4.2938 
  26   0.0000       0.186245         5.0680 
  27   0.0000       0.223002         6.0682 
  28   0.0000       0.223002         6.0682 
  29   0.0000       0.223349         6.0776 
  30   0.0000       0.240844         6.5537 
  31   0.0000       0.273958         7.4548 
  32   0.0000       0.273958         7.4548 
  33   0.0000       0.385313        10.4849 
  34   0.0000       0.385313        10.4849 
  35   0.0000       0.427774        11.6403 
  36   0.0000       0.526864        14.3367 
  37   0.0000       0.575992        15.6735 
  38   0.0000       0.575992        15.6735 
  39   0.0000       0.636914        17.3313 
  40   0.0000       0.636914        17.3313 
  41   0.0000       0.690734        18.7958 
  42   0.0000       0.690734        18.7958 
  43   0.0000       0.752065        20.4647 
  44   0.0000       0.752065        20.4647 
  45   0.0000       0.774961        21.0878 
  46   0.0000       0.775566        21.1042 
  47   0.0000       0.775566        21.1042 
  48   0.0000       0.822351        22.3773 
  49   0.0000       0.908608        24.7245 
  50   0.0000       0.908608        24.7245 
  51   0.0000       0.942939        25.6587 
  52   0.0000       0.942939        25.6587 
  53   0.0000       1.173975        31.9455 
  54   0.0000       1.173975        31.9455 
  55   0.0000       1.177364        32.0377 
  56   0.0000       1.450748        39.4769 
  57   0.0000       1.717315        46.7305 
  58   0.0000       1.739143        47.3245 
  59   0.0000       1.739143        47.3245 
  60   0.0000       1.981557        53.9209 
  61   0.0000       2.122503        57.7562 
  62   0.0000       2.122503        57.7562 
  63   0.0000       2.205544        60.0159 
  64   0.0000       2.205544        60.0159 
  65   0.0000       2.245015        61.0900 
  66   0.0000       2.343388        63.7668 
  67   0.0000       2.343388        63.7668 
  68   0.0000       2.353548        64.0433 
  69   0.0000       2.418569        65.8126 
  70   0.0000       2.418569        65.8126 
  71   0.0000       2.439561        66.3838 
  72   0.0000       2.439561        66.3838 
  73   0.0000       2.454740        66.7969 
  74   0.0000       2.454740        66.7969 
  75   0.0000       2.531397        68.8828 
  76   0.0000       2.531397        68.8828 
  77   0.0000       2.636732        71.7491 
  78   0.0000       2.636732        71.7491 
  79   0.0000       2.714713        73.8711 
  80   0.0000       2.889905        78.6383 
  81   0.0000       2.889905        78.6383 
  82   0.0000       2.913884        79.2908 
  83   0.0000       2.913884        79.2908 
  84   0.0000       2.944784        80.1316 
  85   0.0000       2.955345        80.4190 
  86   0.0000       2.955345        80.4190 
  87   0.0000       3.267393        88.9103 
  88   0.0000       3.267393        88.9103 
  89   0.0000       3.377933        91.9182 
  90   0.0000       3.377933        91.9182 
  91   0.0000       3.410543        92.8056 
  92   0.0000       3.410543        92.8056 
  93   0.0000       3.516015        95.6756 
  94   0.0000       3.516015        95.6756 
  95   0.0000       3.587428        97.6189 
  96   0.0000       3.796766       103.3153 
  97   0.0000       8.697166       236.6619 
  98   0.0000       8.697166       236.6619 
  99   0.0000       8.801015       239.4878 
 100   0.0000       8.801015       239.4878 
 101   0.0000       8.874463       241.4864 
 102   0.0000      11.573257       314.9243 
 103   0.0000      11.573257       314.9243 
 104   0.0000      11.939038       324.8778 
 105   0.0000      25.717092       699.7976 

                    ********************************
                    * MULLIKEN POPULATION ANALYSIS *
                    ********************************

--------------------------------------------
MULLIKEN ATOMIC CHARGES AND SPIN POPULATIONS
--------------------------------------------
   0 Ti:    0.448467    3.046735
   1 Cl:   -0.448467   -0.046735
Sum of atomic charges         :   -0.0000000
Sum of atomic spin populations:    3.0000000

-----------------------------------------------------
MULLIKEN REDUCED ORBITAL CHARGES AND SPIN POPULATIONS
-----------------------------------------------------
CHARGE
  0 Tis       :     6.874727  s :     6.874727
      pz      :     4.255190  p :    12.322176
      px      :     4.033493
      py      :     4.033493
      dz2     :     0.179076  d :     2.315771
      dxz     :     0.068815
      dyz     :     0.068815
      dx2y2   :     0.999533
      dxy     :     0.999533
      f0      :     0.013100  f :     0.036889
      f+1     :     0.011835
      f-1     :     0.011835
      f+2     :     0.000059
      f-2     :     0.000059
      f+3     :     0.000000
      f-3     :     0.000000
      g0      :     0.000859  g :     0.001971
      g+1     :     0.000556
      g-1     :     0.000556
      g+2     :    -0.000000
      g-2     :    -0.000000
      g+3     :     0.000000
      g-3     :     0.000000
      g+4     :     0.000000
      g-4     :     0.000000
  1 Cls       :     5.928553  s :     5.928553
      pz      :     3.740145  p :    11.501234
      px      :     3.880545
      py      :     3.880545
      dz2     :     0.007865  d :     0.017645
      dxz     :     0.004527
      dyz     :     0.004527
      dx2y2   :     0.000363
      dxy     :     0.000363
      f0      :     0.000485  f :     0.001035
      f+1     :     0.000229
      f-1     :     0.000229
      f+2     :     0.000046
      f-2     :     0.000046
      f+3     :     0.000000
      f-3     :     0.000000

SPIN
  0 Tis       :     0.788273  s :     0.788273
      pz      :     0.178308  p :     0.192360
      px      :     0.007026
      py      :     0.007026
      dz2     :     0.051231  d :     2.066361
      dxz     :     0.008032
      dyz     :     0.008032
      dx2y2   :     0.999533
      dxy     :     0.999533
      f0      :    -0.000059  f :    -0.000142
      f+1     :    -0.000101
      f-1     :    -0.000101
      f+2     :     0.000059
      f-2     :     0.000059
      f+3     :     0.000000
      f-3     :     0.000000
      g0      :    -0.000031  g :    -0.000117
      g+1     :    -0.000043
      g-1     :    -0.000043
      g+2     :    -0.000000
      g-2     :    -0.000000
      g+3     :     0.000000
      g-3     :     0.000000
      g+4     :     0.000000
      g-4     :     0.000000
  1 Cls       :    -0.001744  s :    -0.001744
      pz      :    -0.016924  p :    -0.047846
      px      :    -0.015461
      py      :    -0.015461
      dz2     :     0.000863  d :     0.002641
      dxz     :     0.000526
      dyz     :     0.000526
      dx2y2   :     0.000363
      dxy     :     0.000363
      f0      :     0.000083  f :     0.000214
      f+1     :     0.000020
      f-1     :     0.000020
      f+2     :     0.000046
      f-2     :     0.000046
      f+3     :     0.000000
      f-3     :     0.000000


                     *******************************
                     * LOEWDIN POPULATION ANALYSIS *
                     *******************************

-------------------------------------------
LOEWDIN ATOMIC CHARGES AND SPIN POPULATIONS
-------------------------------------------
   0 Ti:   -0.168573    3.027993
   1 Cl:    0.168573   -0.027993

----------------------------------------------------
LOEWDIN REDUCED ORBITAL CHARGES AND SPIN POPULATIONS
----------------------------------------------------
CHARGE
  0 Tis       :     6.873252  s :     6.873252
      pz      :     4.418271  p :    12.533085
      px      :     4.057407
      py      :     4.057407
      dz2     :     0.342991  d :     2.619775
      dxz     :     0.139108
      dyz     :     0.139108
      dx2y2   :     0.999284
      dxy     :     0.999284
      f0      :     0.058068  f :     0.134424
      f+1     :     0.038107
      f-1     :     0.038107
      f+2     :     0.000071
      f-2     :     0.000071
      f+3     :     0.000000
      f-3     :     0.000000
      g0      :     0.004181  g :     0.008038
      g+1     :     0.001928
      g-1     :     0.001928
      g+2     :     0.000000
      g-2     :     0.000000
      g+3     :     0.000000
      g-3     :     0.000000
      g+4     :     0.000000
      g-4     :     0.000000
  1 Cls       :     5.574306  s :     5.574306
      pz      :     3.713326  p :    11.236708
      px      :     3.761691
      py      :     3.761691
      dz2     :     0.014638  d :     0.019169
      dxz     :     0.001718
      dyz     :     0.001718
      dx2y2   :     0.000547
      dxy     :     0.000547
      f0      :     0.000968  f :     0.001244
      f+1     :     0.000040
      f-1     :     0.000040
      f+2     :     0.000098
      f-2     :     0.000098
      f+3     :     0.000000
      f-3     :     0.000000

SPIN
  0 Tis       :     0.745829  s :     0.745829
      pz      :     0.200255  p :     0.213607
      px      :     0.006676
      py      :     0.006676
      dz2     :     0.056519  d :     2.069423
      dxz     :     0.007168
      dyz     :     0.007168
      dx2y2   :     0.999284
      dxy     :     0.999284
      f0      :     0.000292  f :    -0.000731
      f+1     :    -0.000582
      f-1     :    -0.000582
      f+2     :     0.000071
      f-2     :     0.000071
      f+3     :     0.000000
      f-3     :     0.000000
      g0      :    -0.000004  g :    -0.000136
      g+1     :    -0.000066
      g-1     :    -0.000066
      g+2     :     0.000000
      g-2     :     0.000000
      g+3     :     0.000000
      g-3     :     0.000000
      g+4     :     0.000000
      g-4     :     0.000000
  1 Cls       :     0.001503  s :     0.001503
      pz      :    -0.005228  p :    -0.032231
      px      :    -0.013502
      py      :    -0.013502
      dz2     :     0.000822  d :     0.002520
      dxz     :     0.000302
      dyz     :     0.000302
      dx2y2   :     0.000547
      dxy     :     0.000547
      f0      :     0.000012  f :     0.000215
      f+1     :     0.000004
      f-1     :     0.000004
      f+2     :     0.000098
      f-2     :     0.000098
      f+3     :     0.000000
      f-3     :     0.000000


                      *****************************
                      * MAYER POPULATION ANALYSIS *
                      *****************************

  NA   - Mulliken gross atomic population
  ZA   - Total nuclear charge
  QA   - Mulliken gross atomic charge
  VA   - Mayer's total valence
  BVA  - Mayer's bonded valence
  FA   - Mayer's free valence

  ATOM       NA         ZA         QA         VA         BVA        FA
  0 Ti    21.5515    22.0000     0.4485     3.9913     0.9916     2.9998
  1 Cl    17.4485    17.0000    -0.4485     0.9927     0.9916     0.0011

  Mayer bond orders larger than 0.100000
B(  0-Ti,  1-Cl) :   0.9916 

-------
TIMINGS
-------

Total SCF time: 0 days 0 hours 0 min 5 sec 

Total time                  ....       5.560 sec
Sum of individual times     ....       5.309 sec  ( 95.5%)

Fock matrix formation       ....       5.007 sec  ( 90.1%)
Diagonalization             ....       0.099 sec  (  1.8%)
Density matrix formation    ....       0.016 sec  (  0.3%)
Population analysis         ....       0.005 sec  (  0.1%)
Initial guess               ....       0.113 sec  (  2.0%)
Orbital Transformation      ....       0.000 sec  (  0.0%)
Orbital Orthonormalization  ....       0.000 sec  (  0.0%)
DIIS solution               ....       0.049 sec  (  0.9%)


           ************************************************************
           *        Program running with 24 parallel MPI-processes    *
           *              working on a common directory               *
           ************************************************************


------------------------------------------------------------------------------- 
                              ORCA-MATRIX DRIVEN CI                            
------------------------------------------------------------------------------- 

--------------------------------
AUTOMATIC CHOICE OF INCORE LEVEL
--------------------------------

Memory available                           ...   2500.00 MB
Memory needed for S+T                      ...     10.91 MB
Memory needed for J+K                      ...     21.91 MB
Memory needed for DIIS                     ...    152.80 MB
Memory needed for 3-ext                    ...     51.54 MB
Memory needed for 4-ext                    ...    201.47 MB
Memory needed for triples                  ...     23.43 MB
 -> Final InCoreLevel    ... 5
 -> check shows that triples correction can be computed


Wavefunction type
-----------------
Correlation treatment                      ...      CCSD     
Single excitations                         ... ON
Orbital optimization                       ... OFF
Calculation of Z vector                    ... OFF
Calculation of Brueckner orbitals          ... OFF
Perturbative triple excitations            ... ON
Calculation of F12 correction              ... OFF
Frozen core treatment                      ... chemical core (20 el)
Reference Wavefunction                     ... UHF
  Alpha-MOs occ    :    10 ...   20 ( 11 MO's/ 11 electrons)
  Beta-MOs occ     :    10 ...   17 (  8 MO's/  8 electrons)
  Alpha-MOs virt   :    21 ...  105 ( 85 MO's              )
  Beta-MOs virt    :    18 ...  105 ( 88 MO's              )
Number of AO's                             ...    106
Number of electrons                        ...     39
Number of correlated electrons             ...     19

Algorithmic settings
--------------------
Integral transformation                    ... AO direct full transformation
K(C) Formation                             ... FULL-MO TRAFO
Maximum number of iterations               ...        50
Convergence tolerance (max. residuum)      ... 1.000e-06
Level shift for amplitude update           ... 2.000e-01
Maximum number of DIIS vectors             ...         7
DIIS turned on at iteration                ...         0
Damping before turning on DIIS             ...     0.500
Damping after turning on DIIS              ...     0.000
Pair specific amplitude update             ... OFF
Natural orbital iterations                 ... OFF
Perturbative natural orbital generation    ... OFF
Printlevel                                 ... 2

Memory handling:
----------------
Maximum memory for working arrays          ...   2500 MB
Data storage in matrix containers          ... UNCOMPRESSED
Data type for integral storage             ... DOUBLE
In-Core Storage of quantities:
   Amplitudes+Sigma Vector      ... YES
   J+K operators                ... YES
   DIIS vectors                 ... YES
   3-external integrals         ... YES
   4-external integrals         ... YES


Initializing the integral package          ... done
Warning: reference  - re-canonicalizations have been set to INT 1 VIRT 1

--------------------------
UNRESTRICTED FOCK OPERATOR
--------------------------

<ss|ss>:         1891 b           47 skpd (  2.5%)    0.001 s ( 0.000 ms/b)
<ss|sp>:         6344 b          144 skpd (  2.3%)    0.002 s ( 0.000 ms/b)
<ss|sd>:         4575 b          108 skpd (  2.4%)    0.001 s ( 0.000 ms/b)
<ss|sf>:         2013 b           50 skpd (  2.5%)    0.001 s ( 0.000 ms/b)
<ss|sg>:          671 b           17 skpd (  2.5%)    0.000 s ( 0.001 ms/b)
<ss|pp>:         3233 b           57 skpd (  1.8%)    0.001 s ( 0.000 ms/b)
<ss|pd>:         4209 b          102 skpd (  2.4%)    0.001 s ( 0.000 ms/b)
<ss|pf>:         1830 b           44 skpd (  2.4%)    0.001 s ( 0.001 ms/b)
<ss|pg>:          610 b           14 skpd (  2.3%)    0.001 s ( 0.001 ms/b)
<ss|dd>:         1708 b           41 skpd (  2.4%)    0.001 s ( 0.001 ms/b)
<ss|df>:         1281 b           34 skpd (  2.7%)    0.001 s ( 0.000 ms/b)
<ss|dg>:          427 b           13 skpd (  3.0%)    0.001 s ( 0.002 ms/b)
<ss|ff>:          366 b            8 skpd (  2.2%)    0.000 s ( 0.001 ms/b)
<ss|fg>:          183 b            6 skpd (  3.3%)    0.001 s ( 0.003 ms/b)
<ss|gg>:           61 b            1 skpd (  1.6%)    0.001 s ( 0.010 ms/b)
<sp|sp>:         5460 b           96 skpd (  1.8%)    0.002 s ( 0.000 ms/b)
<sp|sd>:         7800 b          140 skpd (  1.8%)    0.002 s ( 0.000 ms/b)
<sp|sf>:         3432 b           56 skpd (  1.6%)    0.001 s ( 0.000 ms/b)
<sp|sg>:         1144 b           18 skpd (  1.6%)    0.001 s ( 0.001 ms/b)
<sp|pp>:         5512 b           45 skpd (  0.8%)    0.003 s ( 0.001 ms/b)
<sp|pd>:         7176 b           89 skpd (  1.2%)    0.003 s ( 0.000 ms/b)
<sp|pf>:         3120 b           39 skpd (  1.2%)    0.002 s ( 0.001 ms/b)
<sp|pg>:         1040 b           11 skpd (  1.1%)    0.002 s ( 0.002 ms/b)
<sp|dd>:         2912 b           29 skpd (  1.0%)    0.004 s ( 0.001 ms/b)
<sp|df>:         2184 b           26 skpd (  1.2%)    0.002 s ( 0.001 ms/b)
<sp|dg>:          728 b            8 skpd (  1.1%)    0.002 s ( 0.003 ms/b)
<sp|ff>:          624 b            6 skpd (  1.0%)    0.001 s ( 0.002 ms/b)
<sp|fg>:          312 b            3 skpd (  1.0%)    0.001 s ( 0.005 ms/b)
<sp|gg>:          104 b            1 skpd (  1.0%)    0.002 s ( 0.019 ms/b)
<sd|sd>:         2850 b           50 skpd (  1.8%)    0.001 s ( 0.000 ms/b)
<sd|sf>:         2475 b           47 skpd (  1.9%)    0.001 s ( 0.000 ms/b)
<sd|sg>:          825 b           12 skpd (  1.5%)    0.001 s ( 0.002 ms/b)
<sd|pp>:         3975 b           27 skpd (  0.7%)    0.003 s ( 0.001 ms/b)
<sd|pd>:         5175 b           48 skpd (  0.9%)    0.004 s ( 0.001 ms/b)
<sd|pf>:         2250 b           23 skpd (  1.0%)    0.002 s ( 0.001 ms/b)
<sd|pg>:          750 b            4 skpd (  0.5%)    0.002 s ( 0.003 ms/b)
<sd|dd>:         2100 b           10 skpd (  0.5%)    0.005 s ( 0.002 ms/b)
<sd|df>:         1575 b           15 skpd (  1.0%)    0.002 s ( 0.001 ms/b)
<sd|dg>:          525 b            6 skpd (  1.1%)    0.003 s ( 0.006 ms/b)
<sd|ff>:          450 b            2 skpd (  0.4%)    0.002 s ( 0.003 ms/b)
<sd|fg>:          225 b            3 skpd (  1.3%)    0.002 s ( 0.010 ms/b)
<sd|gg>:           75 b            1 skpd (  1.3%)    0.003 s ( 0.041 ms/b)
<sf|sf>:          561 b           10 skpd (  1.8%)    0.000 s ( 0.001 ms/b)
<sf|sg>:          363 b            4 skpd (  1.1%)    0.001 s ( 0.002 ms/b)
<sf|pp>:         1749 b            7 skpd (  0.4%)    0.003 s ( 0.002 ms/b)
<sf|pd>:         2277 b           18 skpd (  0.8%)    0.003 s ( 0.001 ms/b)
<sf|pf>:          990 b            5 skpd (  0.5%)    0.002 s ( 0.002 ms/b)
<sf|pg>:          330 b            0 skpd (  0.0%)    0.002 s ( 0.007 ms/b)
<sf|dd>:          924 b            6 skpd (  0.6%)    0.004 s ( 0.004 ms/b)
<sf|df>:          693 b            4 skpd (  0.6%)    0.002 s ( 0.003 ms/b)
<sf|dg>:          231 b            1 skpd (  0.4%)    0.003 s ( 0.012 ms/b)
<sf|ff>:          198 b            0 skpd (  0.0%)    0.001 s ( 0.007 ms/b)
<sf|fg>:           99 b            0 skpd (  0.0%)    0.002 s ( 0.018 ms/b)
<sf|gg>:           33 b            0 skpd (  0.0%)    0.002 s ( 0.072 ms/b)
<sg|sg>:           66 b            0 skpd (  0.0%)    0.000 s ( 0.003 ms/b)
<sg|pp>:          583 b            2 skpd (  0.3%)    0.002 s ( 0.003 ms/b)
<sg|pd>:          759 b            5 skpd (  0.7%)    0.002 s ( 0.003 ms/b)
<sg|pf>:          330 b            1 skpd (  0.3%)    0.001 s ( 0.003 ms/b)
<sg|pg>:          110 b            0 skpd (  0.0%)    0.001 s ( 0.014 ms/b)
<sg|dd>:          308 b            1 skpd (  0.3%)    0.002 s ( 0.008 ms/b)
<sg|df>:          231 b            1 skpd (  0.4%)    0.001 s ( 0.005 ms/b)
<sg|dg>:           77 b            0 skpd (  0.0%)    0.002 s ( 0.025 ms/b)
<sg|ff>:           66 b            0 skpd (  0.0%)    0.001 s ( 0.010 ms/b)
<sg|fg>:           33 b            0 skpd (  0.0%)    0.001 s ( 0.035 ms/b)
<sg|gg>:           11 b            0 skpd (  0.0%)    0.002 s ( 0.137 ms/b)
<pp|pp>:         1431 b            1 skpd (  0.1%)    0.003 s ( 0.002 ms/b)
<pp|pd>:         3657 b            4 skpd (  0.1%)    0.004 s ( 0.001 ms/b)
<pp|pf>:         1590 b            1 skpd (  0.1%)    0.002 s ( 0.001 ms/b)
<pp|pg>:          530 b            0 skpd (  0.0%)    0.002 s ( 0.004 ms/b)
<pp|dd>:         1484 b            2 skpd (  0.1%)    0.004 s ( 0.003 ms/b)
<pp|df>:         1113 b            0 skpd (  0.0%)    0.002 s ( 0.002 ms/b)
<pp|dg>:          371 b            0 skpd (  0.0%)    0.003 s ( 0.008 ms/b)
<pp|ff>:          318 b            0 skpd (  0.0%)    0.002 s ( 0.005 ms/b)
<pp|fg>:          159 b            0 skpd (  0.0%)    0.002 s ( 0.013 ms/b)
<pp|gg>:           53 b            0 skpd (  0.0%)    0.003 s ( 0.056 ms/b)
<pd|pd>:         2415 b            6 skpd (  0.2%)    0.006 s ( 0.002 ms/b)
<pd|pf>:         2070 b            3 skpd (  0.1%)    0.005 s ( 0.002 ms/b)
<pd|pg>:          690 b            0 skpd (  0.0%)    0.005 s ( 0.007 ms/b)
<pd|dd>:         1932 b            3 skpd (  0.2%)    0.009 s ( 0.005 ms/b)
<pd|df>:         1449 b            1 skpd (  0.1%)    0.005 s ( 0.003 ms/b)
<pd|dg>:          483 b            0 skpd (  0.0%)    0.007 s ( 0.014 ms/b)
<pd|ff>:          414 b            0 skpd (  0.0%)    0.004 s ( 0.009 ms/b)
<pd|fg>:          207 b            0 skpd (  0.0%)    0.005 s ( 0.024 ms/b)
<pd|gg>:           69 b            0 skpd (  0.0%)    0.007 s ( 0.101 ms/b)
<pf|pf>:          465 b            0 skpd (  0.0%)    0.002 s ( 0.003 ms/b)
<pf|pg>:          300 b            0 skpd (  0.0%)    0.004 s ( 0.012 ms/b)
<pf|dd>:          840 b            1 skpd (  0.1%)    0.006 s ( 0.007 ms/b)
<pf|df>:          630 b            1 skpd (  0.2%)    0.003 s ( 0.005 ms/b)
<pf|dg>:          210 b            0 skpd (  0.0%)    0.005 s ( 0.023 ms/b)
<pf|ff>:          180 b            0 skpd (  0.0%)    0.003 s ( 0.016 ms/b)
<pf|fg>:           90 b            0 skpd (  0.0%)    0.004 s ( 0.041 ms/b)
<pf|gg>:           30 b            0 skpd (  0.0%)    0.005 s ( 0.156 ms/b)
<pg|pg>:           55 b            0 skpd (  0.0%)    0.001 s ( 0.018 ms/b)
<pg|dd>:          280 b            0 skpd (  0.0%)    0.004 s ( 0.013 ms/b)
<pg|df>:          210 b            0 skpd (  0.0%)    0.002 s ( 0.009 ms/b)
<pg|dg>:           70 b            0 skpd (  0.0%)    0.003 s ( 0.043 ms/b)
<pg|ff>:           60 b            0 skpd (  0.0%)    0.001 s ( 0.021 ms/b)
<pg|fg>:           30 b            0 skpd (  0.0%)    0.002 s ( 0.075 ms/b)
<pg|gg>:           10 b            0 skpd (  0.0%)    0.003 s ( 0.263 ms/b)
<dd|dd>:          406 b            1 skpd (  0.2%)    0.005 s ( 0.012 ms/b)
<dd|df>:          588 b            1 skpd (  0.2%)    0.003 s ( 0.005 ms/b)
<dd|dg>:          196 b            0 skpd (  0.0%)    0.005 s ( 0.024 ms/b)
<dd|ff>:          168 b            0 skpd (  0.0%)    0.003 s ( 0.015 ms/b)
<dd|fg>:           84 b            0 skpd (  0.0%)    0.004 s ( 0.043 ms/b)
<dd|gg>:           28 b            0 skpd (  0.0%)    0.005 s ( 0.178 ms/b)
<df|df>:          231 b            0 skpd (  0.0%)    0.003 s ( 0.013 ms/b)
<df|dg>:          147 b            0 skpd (  0.0%)    0.005 s ( 0.034 ms/b)
<df|ff>:          126 b            0 skpd (  0.0%)    0.003 s ( 0.027 ms/b)
<df|fg>:           63 b            0 skpd (  0.0%)    0.004 s ( 0.068 ms/b)
<df|gg>:           21 b            0 skpd (  0.0%)    0.006 s ( 0.273 ms/b)
<dg|dg>:           28 b            0 skpd (  0.0%)    0.002 s ( 0.056 ms/b)
<dg|ff>:           42 b            0 skpd (  0.0%)    0.001 s ( 0.034 ms/b)
<dg|fg>:           21 b            0 skpd (  0.0%)    0.002 s ( 0.118 ms/b)
<dg|gg>:            7 b            0 skpd (  0.0%)    0.003 s ( 0.421 ms/b)
<ff|ff>:           21 b            0 skpd (  0.0%)    0.001 s ( 0.054 ms/b)
<ff|fg>:           18 b            0 skpd (  0.0%)    0.002 s ( 0.108 ms/b)
<ff|gg>:            6 b            0 skpd (  0.0%)    0.003 s ( 0.517 ms/b)
<fg|fg>:            6 b            0 skpd (  0.0%)    0.001 s ( 0.249 ms/b)
<fg|gg>:            3 b            0 skpd (  0.0%)    0.002 s ( 0.699 ms/b)
<gg|gg>:            1 b            0 skpd (  0.0%)    0.001 s ( 1.211 ms/b)
Recanonicalizing the internal orbitals
Recanonicalizing the virtual orbitals
Time needed for Fock operator              ...            0.315 sec
Reference energy                           ...  -1307.979078552
Warning: for UHF the TrafoType has to be JK
Warning: for UHF the K(C)-option cannot be MO but must be AOX

-------------------------------
PARTIAL EXCHANGE TRANSFORMATION
-------------------------------

Transformation type                        ... two-operators
Generation of integrals (i,mue|j,nue)      ... ON
Generation of integrals (mue,kappa|nue,tau)... ON
Generation of integrals (i,mue|a,nue)      ... ON
Dimension of the basis                     ...  106
Number of internal alpha-MOs               ...   11 (  10-  20)
Number of internal beta-MOs                ...    8 (  10-  17)
Number of external alpha-MOs               ...   85 (  21- 105)
Number of external beta-MOs                ...   88 (  18- 105)
Pair cutoff                                ... 0.000e+00 Eh
Number of AO pairs in the trafo            ... 5671
Total Number of distinct AO pairs          ... 5671
Memory devoted for trafo                   ... 2500.0 MB 
Max. Number of MO pairs treated together   ... 29163      
Number Format for Storage                  ... Double (8 Byte)
Integral package used                      ... LIBINT

Starting integral evaluation:
    ... done with AO integral generation
Closing buffer AOK[aa] ( 0.00 GB; CompressionRatio= 0.99)
Closing buffer AOK[bb] ( 0.00 GB; CompressionRatio= 0.98)
Closing buffer AOK[ab] ( 0.00 GB; CompressionRatio= 0.98)
Closing buffer AOK[ba] ( 0.00 GB; CompressionRatio= 0.98)
Collecting buffer AOK 
Closing buffer IAAO1[aa] ( 0.00 GB; CompressionRatio= 1.00)
Closing buffer IAAO1[bb] ( 0.00 GB; CompressionRatio= 1.00)
Closing buffer IAAO1[ab] ( 0.00 GB; CompressionRatio= 1.00)
Closing buffer IAAO1[ba] ( 0.00 GB; CompressionRatio= 1.00)
Closing buffer IAAO2[aa] ( 0.00 GB; CompressionRatio= 1.00)
Closing buffer IAAO2[bb] ( 0.00 GB; CompressionRatio= 1.00)
Closing buffer IAAO2[ab] ( 0.00 GB; CompressionRatio= 1.00)
Closing buffer IAAO2[ba] ( 0.00 GB; CompressionRatio= 1.00)
Collecting buffer IAAO 
Closing buffer PRQS    ( 0.01 GB; CompressionRatio= 1.00)
Collecting buffer PRQS 
Number of alpha/alpha MO pairs in trafo    ...   66
Number of beta /beta  MO pairs in trafo    ...   36
Number of alpha/ beta MO pairs in trafo    ...   88
------------------------
SORTING OF (i,mue|j,nue)
------------------------

SORTING OF ALPHA/ALPHA PAIRS
IBATCH = 1 of  1
Closing buffer KAO[aa] ( 0.00 GB; CompressionRatio= 1.00)
Collecting buffer KAO 
SORTING OF BETA /BETA  PAIRS
IBATCH = 1 of  1
Closing buffer KAO[bb] ( 0.00 GB; CompressionRatio= 1.00)
Collecting buffer KAO 
SORTING OF ALPHA/BETA  PAIRS
IBATCH = 1 of  1
Closing buffer KAO[ab] ( 0.00 GB; CompressionRatio= 0.999866518354)
Collecting buffer KAO[ab] 
------------------------
SORTING OF (i,mue|a,nue)
------------------------

Number of alpha/alpha (i,a) pairs in trafo  ...  935
Number of beta /beta  (i,a) pairs in trafo  ...  704
Number of alpha/ beta (i,a) pairs in trafo  ...  968
Number of beta /alpha (i,a) pairs in trafo  ...  680
Setting up the alpha/alpha list             ... done
Setting up the beta /beta  list             ... done
Setting up the alpha/beta  list             ... done
Setting up the beta /alpha list             ... done
    ... Now sorting (i,mue|a,nue)integrals
    ... Integrals (i,b|a,c) will be made on the fly
SORTING OF ALPHA/ALPHA PAIRS
IBATCH = 1 of  1
Closing buffer IPAQ[aa]  0.00 GB; CompressionRatio= 1.00)
SORTING OF BETA /BETA  PAIRS
IBATCH = 1 of  1
Closing buffer IPAQ[bb]( 0.00 GB; CompressionRatio= 1.00)
SORTING OF ALPHA/BETA  PAIRS (NMatSort_ab=41)
IBATCH = 1 of  1
Closing buffer IPAQ[ab]( 0.00 GB; CompressionRatio= 1.00)
SORTING OF BETA/ALPHA  PAIRS
IBATCH = 1 of  1
Closing buffer IPAQ[ba]( 0.00 GB; CompressionRatio= 1.00)
N(AO-Batches) Done                         ...      8449 
N(AO-Batches) Skipped                      ...         0 
N(IJ)-pairs Skipped                        ...         0 
TOTAL TIME for half transformation         ...     1.394 sec
AO-integral generation                     ...     0.054 sec
Half transformation                        ...     0.014 sec
K-integral sorting                         ...     0.788 sec
<ss|**>: 
------------------------------
PARTIAL COULOMB TRANSFORMATION
------------------------------

Transformation type                        ... two-operators
Dimension of the basis                     ...  106
Number of internal alpha-MOs               ...   11 (10-20)
Number of internal beta-MOs                ...    8 (10-17)
Pair cutoff                                ... 0.000e+00 Eh
Number of AO pairs included in the trafo   ... 5671
Total Number of distinct AO pairs          ... 5671
Memory devoted for trafo                   ... 2500.0 MB 
Max. Number of MO pairs treated together   ... 57781      
Max. Number of MOs treated per batch       ...  545      
Number Format for Storage                  ... Double (8 Byte)
AO-integral source                         ... DIRECT
Integral package used                      ... LIBINT

Starting integral evaluation:
       31232 b        0 skpd     0.009 s (  0.000 ms/b)
<sp|**>: <sd|**>:        53248 b        0 skpd     0.018 s (  0.000 ms/b)
       38400 b        0 skpd     0.022 s (  0.001 ms/b)
<sf|**>:        16896 b        0 skpd     0.014 s (  0.001 ms/b)
<sg|**>:         5632 b        0 skpd     0.020 s (  0.004 ms/b)
<pp|**>:        27136 b        0 skpd     0.032 s (  0.001 ms/b)
<pd|**>:        35328 b        0 skpd     0.044 s (  0.001 ms/b)
<pf|**>:        15360 b        0 skpd     0.026 s (  0.002 ms/b)
<pg|**>:         5120 b        0 skpd     0.031 s (  0.006 ms/b)
<dd|**>:        14336 b        0 skpd     0.051 s (  0.004 ms/b)
<df|**>:        10752 b        0 skpd     0.025 s (  0.002 ms/b)
<dg|**>:         3584 b        0 skpd     0.039 s (  0.011 ms/b)
<ff|**>:         3072 b        0 skpd     0.018 s (  0.006 ms/b)
<fg|**>:         1536 b        0 skpd     0.025 s (  0.017 ms/b)
<gg|**>:          512 b        0 skpd     0.038 s (  0.073 ms/b)
Closing buffer AOJ[aa] ( 0.00 GB; CompressionRatio= 0.98)
Closing buffer AOJ[bb] ( 0.00 GB; CompressionRatio= 0.00)
Collecting buffer AOJ 
    ... done with AO integral generation
Number of Alpha-MO pairs included          ...   66
Number of Beta-MO pairs included           ...   36
    ... Now sorting integrals
SORTING ALPHA/ALPHA PAIRS
IBATCH = 1 of  1
Closing buffer JAO[aa] ( 0.00 GB; CompressionRatio= 1.00)
SORTING BETA/BETA PAIRS
IBATCH = 1 of  1
Closing buffer JAO[bb] ( 0.00 GB; CompressionRatio= 1.00)
Collecting buffer JAO 
TOTAL TIME for half transformation         ...     0.441 sec
AO-integral generation                     ...     0.404 sec
Half transformation                        ...     0.013 sec
J-integral sorting                         ...     0.017 sec

-------------------------- SECOND HALF TRANSFORMATION -------------------------
Formation of (ij|kl),(ij|ka), (ij|ab)      ... ok (     0.045 sec)
Formation of (ik|jl),(ik|ja), (ia|jb)      ... ok (     0.072 sec)


-----------------------
SPIN UNRESTRICTED GUESS
-----------------------

Entering MDCI_UHF_Guess, Tailored=0
Spin-components of the MP2 energy:
EMP2(aa)=     -0.092698539
EMP2(bb)=     -0.055007331
EMP2(ab)=     -0.342491217

Initial guess performed in     0.030 sec
E(0)                                       ...  -1307.979078552
E(MP2)                                     ...     -0.490197086
Initial E(tot)                             ...  -1308.469275639
<T|T>                                      ...      0.141293940
Number of pairs included                   ... 171

------------------------------------------------
                  UHF COUPLED CLUSTER ITERATIONS
------------------------------------------------

Number of amplitudes to be optimized       ...       966135

Iter       E(tot)           E(Corr)          Delta-E          Residual     Time      <S|S>**1/2
  0  -1308.469275639     -0.490197086      0.000000000      0.013103630    1.00      0.000000031
                           *** Turning on DIIS ***
  1  -1308.491014735     -0.511936183     -0.021739096      0.007981046    1.04      0.039935029
  2  -1308.501795043     -0.522716491     -0.010780308      0.007631137    1.11      0.055580784
  3  -1308.503909858     -0.524831306     -0.002114815      0.006880619    1.11      0.072891286
  4  -1308.505344647     -0.526266095     -0.001434789      0.006071639    1.10      0.090881297
  5  -1308.506477403     -0.527398850     -0.001132755      0.004949332    1.14      0.113651383
  6  -1308.507228123     -0.528149571     -0.000750721      0.003784642    1.11      0.135456604
  7  -1308.508038682     -0.528960130     -0.000810559      0.002321390    1.13      0.163156911
  8  -1308.508578894     -0.529500341     -0.000540212      0.001152283    1.11      0.186021844
  9  -1308.508718910     -0.529640358     -0.000140016      0.000770870    1.13      0.194079174
 10  -1308.508838673     -0.529760121     -0.000119763      0.000576288    1.12      0.199860950
 11  -1308.508882655     -0.529804103     -0.000043982      0.000317511    1.10      0.204054255
 12  -1308.508938010     -0.529859457     -0.000055354      0.000132485    1.10      0.207691638
 13  -1308.508951754     -0.529873201     -0.000013744      0.000046679    1.07      0.209200000
 14  -1308.508960683     -0.529882130     -0.000008929      0.000028150    1.07      0.209501410
 15  -1308.508965444     -0.529886892     -0.000004761      0.000019931    1.09      0.209646167
 16  -1308.508969829     -0.529891277     -0.000004385      0.000014297    1.07      0.209751242
 17  -1308.508972284     -0.529893732     -0.000002455      0.000009419    1.09      0.209845978
 18  -1308.508974064     -0.529895512     -0.000001780      0.000006079    1.09      0.209911557
 19  -1308.508975386     -0.529896834     -0.000001322      0.000003702    1.10      0.209958583
 20  -1308.508975896     -0.529897344     -0.000000510      0.000002821    1.11      0.209976592
 21  -1308.508976232     -0.529897679     -0.000000336      0.000002147    1.12      0.209990578
 22  -1308.508976493     -0.529897940     -0.000000261      0.000001460    1.12      0.210004530
 23  -1308.508976719     -0.529898167     -0.000000227      0.000000702    1.12      0.210019577
               --- The Coupled-Cluster iterations have converged ---

----------------------
COUPLED CLUSTER ENERGY
----------------------

E(0)                                       ...  -1307.979078552
E(CORR)                                    ...     -0.529898167
E(TOT)                                     ...  -1308.508976719
Singles norm <S|S>**1/2                    ...      0.210019577 ( 0.185534368, 0.024485209)  
T1 diagnostic                              ...      0.048181795                              

------------------
LARGEST AMPLITUDES
------------------
  20a-> 23a  -1a-> -1a       0.272595
  20a-> 31a  -1a-> -1a       0.111642
  20a-> 26a  -1a-> -1a       0.084715
  19a-> 25a  18a-> 24a       0.055742
  19a-> 24a  18a-> 25a       0.055742
  19a-> 24a  18a-> 30a       0.036935
  19a-> 30a  18a-> 24a       0.036935
  19a-> 25a  18a-> 29a       0.036935
  19a-> 29a  18a-> 25a       0.036935
  18a-> 27a  -1a-> -1a       0.035799
  19a-> 28a  -1a-> -1a       0.035799
  17b-> 40b  16b-> 39b       0.032623
  17b-> 39b  16b-> 40b       0.032623
  15b-> 30b  -1b-> -1b       0.027519
  16a-> 24a  -1a-> -1a       0.026409
  17a-> 25a  -1a-> -1a       0.026409

----------------------
UHF TRIPLES CORRECTION (Algorithm 1)
----------------------

Multiplier for the singles contribution    ...      1.000000000

SPIN-CASE Alpha-Alpha-Alpha:
10% done
20% done
30% done
40% done
50% done
60% done
70% done
80% done
90% done


SPIN-CASE Beta-Beta-Beta:
10% done
20% done
30% done
40% done
50% done
60% done
70% done
80% done
90% done


SPIN-CASE Alpha-Alpha-Beta:
10% done
20% done
30% done
40% done
50% done
60% done
70% done
80% done
90% done


SPIN-CASE Beta-Beta-Alpha:
10% done
20% done
30% done
40% done
50% done
60% done
70% done
80% done
90% done


Triples Correction (T)                     ...     -0.020782708
    alpha-alpha-alpha ... -0.001842508 (  8.9%)
    alpha-alpha-beta  ... -0.011354626 ( 54.6%)
    alpha-beta -beta  ... -0.007179057 ( 34.5%)
    beta -beta -beta  ... -0.000406517 (  2.0%)
Scaling of triples based on CCSD energies (Peterson et al. Molecular Physics 113, 1551 (2015))
E(T*) = f*E(T) where f = E(F12-CCSD)/E(CCSD) 
f = CCSD (with F12)/ CCSD (without F12)    ...      1.000000000
Scaled triples correction (T)              ...     -0.020782708

Final correlation energy                   ...     -0.550680875
E(CCSD)                                    ...  -1308.508976719
E(CCSD(T))                                 ...  -1308.529759427



        !!!!!!!!!!!!!!!!!!!!!!!!!!!!!!!!!!!!!!!!!!!!!!!!!!!!!!!!!!!!!!!!!!!!!!!!!! 
        !  Warning: Densities are linearized densities                           !
        !!!!!!!!!!!!!!!!!!!!!!!!!!!!!!!!!!!!!!!!!!!!!!!!!!!!!!!!!!!!!!!!!!!!!!!!!! 

NORM  =      1.289843212 sqrt=     1.135712645
W(HF) =      0.775288028
------------------------------------------------------------------------------
                           ORCA POPULATION ANALYSIS
------------------------------------------------------------------------------
Input electron density              ... 09_TiCl.mdcip
Input spin density                  ... 09_TiCl.mdcir
BaseName (.gbw .S,...)              ... 09_TiCl

                    ********************************
                    * MULLIKEN POPULATION ANALYSIS *
                    ********************************

------------------------------------------
MULLIKEN ATOMIC CHARGES AND SPIN DENSITIES
------------------------------------------
   0 Ti:    0.339215    3.061194
   1 Cl:   -0.339215   -0.061194
Sum of atomic charges       :   -0.0000000
Sum of atomic spin densities:    3.0000000

---------------------------------------------------
MULLIKEN REDUCED ORBITAL CHARGES AND SPIN DENSITIES
---------------------------------------------------
CHARGE
  0 Tis       :     6.831072  s :     6.831072
      pz      :     4.099104  p :    12.146197
      px      :     4.023547
      py      :     4.023547
      dz2     :     0.402018  d :     2.624990
      dxz     :     0.122521
      dyz     :     0.122521
      dx2y2   :     0.988965
      dxy     :     0.988965
      f0      :     0.012440  f :     0.054575
      f+1     :     0.012952
      f-1     :     0.012952
      f+2     :     0.003106
      f-2     :     0.003106
      f+3     :     0.005009
      f-3     :     0.005009
      g0      :     0.001034  g :     0.003950
      g+1     :     0.000783
      g-1     :     0.000783
      g+2     :     0.000195
      g-2     :     0.000195
      g+3     :     0.000207
      g-3     :     0.000207
      g+4     :     0.000272
      g-4     :     0.000272
  1 Cls       :     5.908853  s :     5.908853
      pz      :     3.665144  p :    11.296524
      px      :     3.815690
      py      :     3.815690
      dz2     :     0.028891  d :     0.122241
      dxz     :     0.025195
      dyz     :     0.025195
      dx2y2   :     0.021480
      dxy     :     0.021480
      f0      :     0.002245  f :     0.011597
      f+1     :     0.001791
      f-1     :     0.001791
      f+2     :     0.001528
      f-2     :     0.001528
      f+3     :     0.001357
      f-3     :     0.001357

SPIN
  0 Tis       :     0.734096  s :     0.734096
      pz      :     0.055948  p :     0.092958
      px      :     0.018505
      py      :     0.018505
      dz2     :     0.230469  d :     2.221062
      dxz     :     0.022026
      dyz     :     0.022026
      dx2y2   :     0.973271
      dxy     :     0.973271
      f0      :     0.000360  f :     0.012205
      f+1     :     0.000344
      f-1     :     0.000344
      f+2     :     0.001464
      f-2     :     0.001464
      f+3     :     0.004115
      f-3     :     0.004115
      g0      :     0.000059  g :     0.000872
      g+1     :     0.000008
      g-1     :     0.000008
      g+2     :     0.000061
      g-2     :     0.000061
      g+3     :     0.000125
      g-3     :     0.000125
      g+4     :     0.000212
      g-4     :     0.000212
  1 Cls       :    -0.002852  s :    -0.002852
      pz      :    -0.025309  p :    -0.061443
      px      :    -0.018067
      py      :    -0.018067
      dz2     :     0.001331  d :     0.002797
      dxz     :     0.000230
      dyz     :     0.000230
      dx2y2   :     0.000503
      dxy     :     0.000503
      f0      :     0.000193  f :     0.000304
      f+1     :     0.000013
      f-1     :     0.000013
      f+2     :     0.000054
      f-2     :     0.000054
      f+3     :    -0.000011
      f-3     :    -0.000011


                     *******************************
                     * LOEWDIN POPULATION ANALYSIS *
                     *******************************

-----------------------------------------
LOEWDIN ATOMIC CHARGES AND SPIN DENSITIES
-----------------------------------------
   0 Ti:   -0.232399    3.034582
   1 Cl:    0.232399   -0.034582

--------------------------------------------------
LOEWDIN REDUCED ORBITAL CHARGES AND SPIN DENSITIES
--------------------------------------------------
CHARGE
  0 Tis       :     6.815500  s :     6.815500
      pz      :     4.246856  p :    12.337055
      px      :     4.045100
      py      :     4.045100
      dz2     :     0.567665  d :     2.921890
      dxz     :     0.188435
      dyz     :     0.188435
      dx2y2   :     0.988677
      dxy     :     0.988677
      f0      :     0.056959  f :     0.148097
      f+1     :     0.037352
      f-1     :     0.037352
      f+2     :     0.003208
      f-2     :     0.003208
      f+3     :     0.005009
      f-3     :     0.005009
      g0      :     0.004325  g :     0.009858
      g+1     :     0.002082
      g-1     :     0.002082
      g+2     :     0.000204
      g-2     :     0.000204
      g+3     :     0.000207
      g-3     :     0.000207
      g+4     :     0.000272
      g-4     :     0.000272
  1 Cls       :     5.567794  s :     5.567794
      pz      :     3.652326  p :    11.063230
      px      :     3.705452
      py      :     3.705452
      dz2     :     0.036482  d :     0.124537
      dxz     :     0.022430
      dyz     :     0.022430
      dx2y2   :     0.021598
      dxy     :     0.021598
      f0      :     0.002895  f :     0.012040
      f+1     :     0.001628
      f-1     :     0.001628
      f+2     :     0.001587
      f-2     :     0.001587
      f+3     :     0.001357
      f-3     :     0.001357

SPIN
  0 Tis       :     0.685318  s :     0.685318
      pz      :     0.071052  p :     0.106893
      px      :     0.017921
      py      :     0.017921
      dz2     :     0.242986  d :     2.230385
      dxz     :     0.020781
      dyz     :     0.020781
      dx2y2   :     0.972919
      dxy     :     0.972919
      f0      :     0.000334  f :     0.011159
      f+1     :    -0.000183
      f-1     :    -0.000183
      f+2     :     0.001480
      f-2     :     0.001480
      f+3     :     0.004115
      f-3     :     0.004115
      g0      :     0.000062  g :     0.000827
      g+1     :    -0.000015
      g-1     :    -0.000015
      g+2     :     0.000060
      g-2     :     0.000060
      g+3     :     0.000125
      g-3     :     0.000125
      g+4     :     0.000212
      g-4     :     0.000212
  1 Cls       :     0.002153  s :     0.002153
      pz      :    -0.008395  p :    -0.039574
      px      :    -0.015589
      py      :    -0.015589
      dz2     :     0.000602  d :     0.002424
      dxz     :     0.000138
      dyz     :     0.000138
      dx2y2   :     0.000774
      dxy     :     0.000774
      f0      :     0.000183  f :     0.000414
      f+1     :     0.000006
      f-1     :     0.000006
      f+2     :     0.000120
      f-2     :     0.000120
      f+3     :    -0.000010
      f-3     :    -0.000010


                      *****************************
                      * MAYER POPULATION ANALYSIS *
                      *****************************

  NA   - Mulliken gross atomic population
  ZA   - Total nuclear charge
  QA   - Mulliken gross atomic charge
  VA   - Mayer's total valence
  BVA  - Mayer's bonded valence
  FA   - Mayer's free valence

  ATOM       NA         ZA         QA         VA         BVA        FA
  0 Ti    21.6608    22.0000     0.3392     4.6337     1.0727     3.5610
  1 Cl    17.3392    17.0000    -0.3392     1.7382     1.0727     0.6655

  Mayer bond orders larger than 0.100000
B(  0-Ti,  1-Cl) :   1.0727 



------------------------------------------------------------------------------- 
                                     TIMINGS                                   
------------------------------------------------------------------------------- 


Total execution time                   ...       31.476 sec

Fock Matrix Formation                  ...        0.315 sec (  1.0%)
Initial Guess                          ...        0.030 sec (  0.1%)
DIIS Solver                            ...        2.306 sec (  7.3%)
State Vector Update                    ...        0.094 sec (  0.3%)
Sigma-vector construction              ...       23.951 sec ( 76.1%)
  <0|H|D>                              ...        0.005 sec (  0.0% of sigma)
  <D|H|D>(0-ext Fock)                  ...        0.040 sec (  0.2% of sigma)
  <D|H|D>(0-ext)                       ...        0.163 sec (  0.7% of sigma)
  <D|H|D>(2-ext Fock)                  ...        0.012 sec (  0.0% of sigma)
  <D|H|D>(2-ext)                       ...        0.541 sec (  2.3% of sigma)
  <D|H|D>(4-ext)                       ...       12.356 sec ( 51.6% of sigma)
  <S|H|0>                              ...        1.126 sec (  4.7% of sigma)
  <S|H|S>                              ...        0.003 sec (  0.0% of sigma)
  <S|H|D>(1-ext)                       ...        0.011 sec (  0.0% of sigma)
  <D|H|S>(1-ext)                       ...        0.161 sec (  0.7% of sigma)
  Fock-dressing                        ...        3.960 sec ( 16.5% of sigma)
  (ik|jl)-dressing                     ...        0.210 sec (  0.9% of sigma)
  (ij|ab),(ia|jb)-dressing             ...        4.262 sec ( 17.8% of sigma)
  Pair energies                        ...        0.008 sec (  0.0% of sigma)
Total Time for computing (T)           ...        2.325 sec (  7.4% of ALL)
  I/O of integral and amplitudes       ...        0.397 sec ( 17.1% of (T))
  External N**7 contributions          ...        0.669 sec ( 28.8% of (T))
  Internal N**7 contributions          ...        0.336 sec ( 14.4% of (T))
  N**6 triples energy contributions    ...        0.875 sec ( 37.6% of (T))

----- Orbital basis set information -----
Your calculation utilizes the basis: def2-QZVPP
   F. Weigend and R. Ahlrichs, Phys. Chem. Chem. Phys. 7, 3297 (2005).

----- AuxJ basis set information -----
Your calculation utilizes the auxiliary basis: def2/J
   F. Weigend, Phys. Chem. Chem. Phys. 8, 1057 (2006).

----- AuxC basis set information -----
Your calculation utilizes the auxiliary basis: def2-QZVPP/C
  H-La, Hf-Rn : A. Hellweg, C. Hattig, S. Hofener and W. Klopper, Theor. Chem. Acc. 117, 587 (2007).
        Ce-Lu : J. Chmela and M. E. Harding, Mol. Phys. (2018).

----- AuxJK basis set information -----
Your calculation utilizes the auxiliary basis: def2/JK
   H-Ba, Hf-Rn: F. Weigend, J. Comput. Chem. 29, 167 (2008).

All done

                     -----------------------------------------
                     Extrapolated Energy 2 Basis=  def2-QZVPP
                     -----------------------------------------

---------------------------------
CARTESIAN COORDINATES (ANGSTROEM)
---------------------------------
  Ti     0.000000    0.000000   -0.116802
  Cl     0.000000    0.000000    2.116802

----------------------------
CARTESIAN COORDINATES (A.U.)
----------------------------
  NO LB      ZA    FRAG     MASS         X           Y           Z
   0 Ti   22.0000    0    47.900    0.000000    0.000000   -0.220724
   1 Cl   17.0000    0    35.453    0.000000    0.000000    4.000176

--------------------------------
INTERNAL COORDINATES (ANGSTROEM)
--------------------------------
 Ti     0   0   0     0.000000000000     0.00000000     0.00000000
 Cl     1   0   0     2.233604189120     0.00000000     0.00000000

---------------------------
INTERNAL COORDINATES (A.U.)
---------------------------
 Ti     0   0   0     0.000000000000     0.00000000     0.00000000
 Cl     1   0   0     4.220900209016     0.00000000     0.00000000

---------------------
BASIS SET INFORMATION
---------------------
There are 2 groups of distinct atoms

 Group   1 Type Ti  : 24s18p9d3f2g contracted to 11s6p5d3f2g pattern {114111111111/951111/51111/111/11}
 Group   2 Type Cl  : 20s14p4d2f1g contracted to 9s6p4d2f1g pattern {1031111111/821111/1111/11/1}

Atom   0Ti   basis set group =>   1
Atom   1Cl   basis set group =>   2
---------------------------------
AUXILIARY/J BASIS SET INFORMATION
---------------------------------
There are 2 groups of distinct atoms

 Group   1 Type Ti  : 19s5p5d3f3g contracted to 8s5p5d2f3g pattern {121111111/11111/11111/21/111}
 Group   2 Type Cl  : 14s5p5d2f1g contracted to 8s4p3d1f1g pattern {71111111/2111/311/2/1}

Atom   0Ti   basis set group =>   1
Atom   1Cl   basis set group =>   2
---------------------------------
AUXILIARY/C BASIS SET INFORMATION
---------------------------------
There are 2 groups of distinct atoms

 Group   1 Type Ti  : 15s13p11d8f7g5h2i contracted to 15s13p11d8f7g5h2i pattern {111111111111111/1111111111111/11111111111/11111111/1111111/11111/11}
 Group   2 Type Cl  : 12s10p9d6f3g1h contracted to 12s10p9d6f3g1h pattern {111111111111/1111111111/111111111/111111/111/1}

Atom   0Ti   basis set group =>   1
Atom   1Cl   basis set group =>   2
----------------------------------
AUXILIARY/JK BASIS SET INFORMATION
----------------------------------
There are 2 groups of distinct atoms

 Group   1 Type Ti  : 19s14p12d10f7g3h1i contracted to 16s13p11d9f5g3h1i pattern {4111111111111111/2111111111111/21111111111/211111111/31111/111/1}
 Group   2 Type Cl  : 16s12p10d4f1g contracted to 13s11p9d4f1g pattern {4111111111111/21111111111/211111111/1111/1}

Atom   0Ti   basis set group =>   1
Atom   1Cl   basis set group =>   2

Checking for AutoStart:
The File: 09_TiCl.gbw exists
Trying to determine its content:
     ... Fine, the file contains calculation information
     ... Fine, the calculation information was read
     ... Fine, the file contains a basis set
     ... Fine, the basis set was read
     ... Fine, the file contains a geometry
     ... Fine, the geometry was read
     ... Fine, the file contains a set of orbitals
     ... Fine, the orbitals can be read
     => possible old guess file was deleted
     => GBW file was renamed to GES file
     => GES file is set as startup file
[...]
 12  -1308.585149723     -0.577627496     -0.000067954      0.000111446    4.20      0.219221332
 13  -1308.585161131     -0.577638903     -0.000011407      0.000040853    4.19      0.220622714
 14  -1308.585173103     -0.577650876     -0.000011973      0.000021808    4.19      0.220978657
 15  -1308.585178125     -0.577655898     -0.000005022      0.000009647    4.17      0.221144167
 16  -1308.585180910     -0.577658682     -0.000002785      0.000005919    4.22      0.221212358
 17  -1308.585182387     -0.577660159     -0.000001477      0.000003506    4.21      0.221281727
 18  -1308.585182844     -0.577660616     -0.000000457      0.000002120    4.22      0.221311884
 19  -1308.585183339     -0.577661111     -0.000000495      0.000001149    4.25      0.221333835
 20  -1308.585183574     -0.577661346     -0.000000235      0.000000807    4.23      0.221342708
               --- The Coupled-Cluster iterations have converged ---

----------------------
COUPLED CLUSTER ENERGY
----------------------

E(0)                                       ...  -1308.007522228
E(CORR)                                    ...     -0.577661346
E(TOT)                                     ...  -1308.585183574
Singles norm <S|S>**1/2                    ...      0.221342708 ( 0.197863277, 0.023479431)  
T1 diagnostic                              ...      0.050779500                              

------------------
LARGEST AMPLITUDES
------------------
  20a-> 23a  -1a-> -1a       0.242384
  20a-> 25a  -1a-> -1a       0.180947
  20a-> 34a  -1a-> -1a       0.099086
  20a-> 35a  -1a-> -1a       0.080652
  19a-> 32a  18a-> 33a       0.034585
  19a-> 33a  18a-> 32a       0.034585
  19a-> 30a  18a-> 31a       0.028649
  19a-> 31a  18a-> 30a       0.028649
  20a-> 42a  -1a-> -1a       0.028608
  19a-> 30a  18a-> 33a       0.027017
  19a-> 33a  18a-> 30a       0.027017
  19a-> 32a  18a-> 31a       0.027017
  19a-> 31a  18a-> 32a       0.027017
  20a-> 49a  -1a-> -1a       0.026529
  17a-> 47a  16a-> 48a       0.024815
  17a-> 48a  16a-> 47a       0.024815

----------------------
UHF TRIPLES CORRECTION (Algorithm 1)
----------------------

Multiplier for the singles contribution    ...      1.000000000

SPIN-CASE Alpha-Alpha-Alpha:
10% done
20% done
30% done
40% done
50% done
60% done
70% done
80% done
90% done


SPIN-CASE Beta-Beta-Beta:
10% done
20% done
30% done
40% done
50% done
60% done
70% done
80% done
90% done


SPIN-CASE Alpha-Alpha-Beta:
10% done
20% done
30% done
40% done
50% done
60% done
70% done
80% done
90% done


SPIN-CASE Beta-Beta-Alpha:
10% done
20% done
30% done
40% done
50% done
60% done
70% done
80% done
90% done


Triples Correction (T)                     ...     -0.024395990
    alpha-alpha-alpha ... -0.002028155 (  8.3%)
    alpha-alpha-beta  ... -0.013232789 ( 54.2%)
    alpha-beta -beta  ... -0.008653998 ( 35.5%)
    beta -beta -beta  ... -0.000481048 (  2.0%)
Scaling of triples based on CCSD energies (Peterson et al. Molecular Physics 113, 1551 (2015))
E(T*) = f*E(T) where f = E(F12-CCSD)/E(CCSD) 
f = CCSD (with F12)/ CCSD (without F12)    ...      1.000000000
Scaled triples correction (T)              ...     -0.024395990

Final correlation energy                   ...     -0.602057336
E(CCSD)                                    ...  -1308.585183574
E(CCSD(T))                                 ...  -1308.609579564



        !!!!!!!!!!!!!!!!!!!!!!!!!!!!!!!!!!!!!!!!!!!!!!!!!!!!!!!!!!!!!!!!!!!!!!!!!! 
        !  Warning: Densities are linearized densities                           !
        !!!!!!!!!!!!!!!!!!!!!!!!!!!!!!!!!!!!!!!!!!!!!!!!!!!!!!!!!!!!!!!!!!!!!!!!!! 

NORM  =      1.307819530 sqrt=     1.143599375
W(HF) =      0.764631493
------------------------------------------------------------------------------
                           ORCA POPULATION ANALYSIS
------------------------------------------------------------------------------
Input electron density              ... 09_TiCl.mdcip
Input spin density                  ... 09_TiCl.mdcir
BaseName (.gbw .S,...)              ... 09_TiCl

                    ********************************
                    * MULLIKEN POPULATION ANALYSIS *
                    ********************************

------------------------------------------
MULLIKEN ATOMIC CHARGES AND SPIN DENSITIES
------------------------------------------
   0 Ti:    0.422404    3.063007
   1 Cl:   -0.422404   -0.063007
Sum of atomic charges       :    0.0000000
Sum of atomic spin densities:    3.0000000

---------------------------------------------------
MULLIKEN REDUCED ORBITAL CHARGES AND SPIN DENSITIES
---------------------------------------------------
CHARGE
  0 Tis       :     6.809481  s :     6.809481
      pz      :     4.075873  p :    12.104970
      px      :     4.014549
      py      :     4.014549
      dz2     :     0.396649  d :     2.598425
      dxz     :     0.111383
      dyz     :     0.111383
      dx2y2   :     0.989505
      dxy     :     0.989505
      f0      :     0.010740  f :     0.054907
      f+1     :     0.013055
      f-1     :     0.013055
      f+2     :     0.003464
      f-2     :     0.003464
      f+3     :     0.005564
      f-3     :     0.005564
      g0      :     0.002151  g :     0.009813
      g+1     :     0.002617
      g-1     :     0.002617
      g+2     :     0.000426
      g-2     :     0.000426
      g+3     :     0.000366
      g-3     :     0.000366
      g+4     :     0.000422
      g-4     :     0.000422
  1 Cls       :     5.934536  s :     5.934536
      pz      :     3.684462  p :    11.339349
      px      :     3.827444
      py      :     3.827444
      dz2     :     0.029618  d :     0.129220
      dxz     :     0.027260
      dyz     :     0.027260
      dx2y2   :     0.022541
      dxy     :     0.022541
      f0      :     0.003364  f :     0.016591
      f+1     :     0.002736
      f-1     :     0.002736
      f+2     :     0.002133
      f-2     :     0.002133
      f+3     :     0.001745
      f-3     :     0.001745
      g0      :     0.000411  g :     0.002708
      g+1     :     0.000339
      g-1     :     0.000339
      g+2     :     0.000297
      g-2     :     0.000297
      g+3     :     0.000264
      g-3     :     0.000264
      g+4     :     0.000248
      g-4     :     0.000248

SPIN
  0 Tis       :     0.742445  s :     0.742445
      pz      :     0.041980  p :     0.078294
      px      :     0.018157
      py      :     0.018157
      dz2     :     0.241770  d :     2.228490
      dxz     :     0.019708
      dyz     :     0.019708
      dx2y2   :     0.973652
      dxy     :     0.973652
      f0      :     0.000341  f :     0.012833
      f+1     :     0.000216
      f-1     :     0.000216
      f+2     :     0.001591
      f-2     :     0.001591
      f+3     :     0.004438
      f-3     :     0.004438
      g0      :     0.000047  g :     0.000945
      g+1     :    -0.000137
      g-1     :    -0.000137
      g+2     :     0.000092
      g-2     :     0.000092
      g+3     :     0.000188
      g-3     :     0.000188
      g+4     :     0.000306
      g-4     :     0.000306
  1 Cls       :    -0.005257  s :    -0.005257
      pz      :    -0.029295  p :    -0.062549
      px      :    -0.016627
      py      :    -0.016627
      dz2     :     0.001325  d :     0.003574
      dxz     :     0.000338
      dyz     :     0.000338
      dx2y2   :     0.000786
      dxy     :     0.000786
      f0      :     0.000588  f :     0.001119
      f+1     :     0.000063
      f-1     :     0.000063
      f+2     :     0.000209
      f-2     :     0.000209
      f+3     :    -0.000007
      f-3     :    -0.000007
      g0      :     0.000058  g :     0.000106
      g+1     :     0.000007
      g-1     :     0.000007
      g+2     :     0.000016
      g-2     :     0.000016
      g+3     :     0.000001
      g-3     :     0.000001
      g+4     :     0.000001
      g-4     :     0.000001


                     *******************************
                     * LOEWDIN POPULATION ANALYSIS *
                     *******************************

-----------------------------------------
LOEWDIN ATOMIC CHARGES AND SPIN DENSITIES
-----------------------------------------
   0 Ti:   -0.342517    3.014301
   1 Cl:    0.342517   -0.014301

--------------------------------------------------
LOEWDIN REDUCED ORBITAL CHARGES AND SPIN DENSITIES
--------------------------------------------------
CHARGE
  0 Tis       :     6.775713  s :     6.775713
      pz      :     4.232935  p :    12.320282
      px      :     4.043674
      py      :     4.043674
      dz2     :     0.585711  d :     2.940076
      dxz     :     0.188881
      dyz     :     0.188881
      dx2y2   :     0.988301
      dxy     :     0.988301
      f0      :     0.077025  f :     0.215433
      f+1     :     0.059934
      f-1     :     0.059934
      f+2     :     0.003705
      f-2     :     0.003705
      f+3     :     0.005565
      f-3     :     0.005565
      g0      :     0.028201  g :     0.091013
      g+1     :     0.029964
      g-1     :     0.029964
      g+2     :     0.000650
      g-2     :     0.000650
      g+3     :     0.000370
      g-3     :     0.000370
      g+4     :     0.000422
      g-4     :     0.000422
  1 Cls       :     5.509905  s :     5.509905
      pz      :     3.667222  p :    10.968749
      px      :     3.650763
      py      :     3.650763
      dz2     :     0.054010  d :     0.145725
      dxz     :     0.023088
      dyz     :     0.023088
      dx2y2   :     0.022770
      dxy     :     0.022770
      f0      :     0.015383  f :     0.029510
      f+1     :     0.002724
      f-1     :     0.002724
      f+2     :     0.002598
      f-2     :     0.002598
      f+3     :     0.001741
      f-3     :     0.001741
      g0      :     0.001180  g :     0.003594
      g+1     :     0.000353
      g-1     :     0.000353
      g+2     :     0.000342
      g-2     :     0.000342
      g+3     :     0.000264
      g-3     :     0.000264
      g+4     :     0.000248
      g-4     :     0.000248

SPIN
  0 Tis       :     0.664469  s :     0.664469
      pz      :     0.064735  p :     0.099856
      px      :     0.017560
      py      :     0.017560
      dz2     :     0.257305  d :     2.238853
      dxz     :     0.018418
      dyz     :     0.018418
      dx2y2   :     0.972356
      dxy     :     0.972356
      f0      :     0.000294  f :     0.011119
      f+1     :    -0.000686
      f-1     :    -0.000686
      f+2     :     0.001660
      f-2     :     0.001660
      f+3     :     0.004438
      f-3     :     0.004438
      g0      :     0.000042  g :     0.000004
      g+1     :    -0.000602
      g-1     :    -0.000602
      g+2     :     0.000089
      g-2     :     0.000089
      g+3     :     0.000187
      g-3     :     0.000187
      g+4     :     0.000306
      g-4     :     0.000306
  1 Cls       :     0.005068  s :     0.005068
      pz      :     0.000782  p :    -0.025258
      px      :    -0.013020
      py      :    -0.013020
      dz2     :     0.000617  d :     0.003608
      dxz     :     0.000051
      dyz     :     0.000051
      dx2y2   :     0.001444
      dxy     :     0.001444
      f0      :     0.000595  f :     0.002057
      f+1     :     0.000003
      f-1     :     0.000003
      f+2     :     0.000735
      f-2     :     0.000735
      f+3     :    -0.000007
      f-3     :    -0.000007
      g0      :     0.000095  g :     0.000224
      g+1     :     0.000001
      g-1     :     0.000001
      g+2     :     0.000062
      g-2     :     0.000062
      g+3     :     0.000001
      g-3     :     0.000001
      g+4     :     0.000001
      g-4     :     0.000001


                      *****************************
                      * MAYER POPULATION ANALYSIS *
                      *****************************

  NA   - Mulliken gross atomic population
  ZA   - Total nuclear charge
  QA   - Mulliken gross atomic charge
  VA   - Mayer's total valence
  BVA  - Mayer's bonded valence
  FA   - Mayer's free valence

  ATOM       NA         ZA         QA         VA         BVA        FA
  0 Ti    21.5776    22.0000     0.4224     4.5243     0.9585     3.5658
  1 Cl    17.4224    17.0000    -0.4224     1.6525     0.9585     0.6940

  Mayer bond orders larger than 0.100000
B(  0-Ti,  1-Cl) :   0.9585 



------------------------------------------------------------------------------- 
                                     TIMINGS                                   
------------------------------------------------------------------------------- 


Total execution time                   ...      113.753 sec

Fock Matrix Formation                  ...        1.107 sec (  1.0%)
Initial Guess                          ...        0.080 sec (  0.1%)
DIIS Solver                            ...        5.112 sec (  4.5%)
State Vector Update                    ...        0.230 sec (  0.2%)
Sigma-vector construction              ...       83.347 sec ( 73.3%)
  <0|H|D>                              ...        0.013 sec (  0.0% of sigma)
  <D|H|D>(0-ext Fock)                  ...        0.105 sec (  0.1% of sigma)
  <D|H|D>(0-ext)                       ...        0.462 sec (  0.6% of sigma)
  <D|H|D>(2-ext Fock)                  ...        0.037 sec (  0.0% of sigma)
  <D|H|D>(2-ext)                       ...        1.724 sec (  2.1% of sigma)
  <D|H|D>(4-ext)                       ...       46.017 sec ( 55.2% of sigma)
  <S|H|0>                              ...        4.414 sec (  5.3% of sigma)
  <S|H|S>                              ...        0.005 sec (  0.0% of sigma)
  <S|H|D>(1-ext)                       ...        0.023 sec (  0.0% of sigma)
  <D|H|S>(1-ext)                       ...        0.383 sec (  0.5% of sigma)
  Fock-dressing                        ...       15.010 sec ( 18.0% of sigma)
  (ik|jl)-dressing                     ...        0.524 sec (  0.6% of sigma)
  (ij|ab),(ia|jb)-dressing             ...       12.118 sec ( 14.5% of sigma)
  Pair energies                        ...        0.017 sec (  0.0% of sigma)
Total Time for computing (T)           ...       13.873 sec ( 12.2% of ALL)
  I/O of integral and amplitudes       ...        2.190 sec ( 15.8% of (T))
  External N**7 contributions          ...        5.252 sec ( 37.9% of (T))
  Internal N**7 contributions          ...        1.647 sec ( 11.9% of (T))
  N**6 triples energy contributions    ...        4.623 sec ( 33.3% of (T))


-------------------
EXTRAPOLATED ENERGY
-------------------


-----------------------------------------------------------------
                      EP1 - MDCI extrapolation:
-----------------------------------------------------------------
NOTE: We use as reference SCF energy, for the extrapolation, the one from the MDCI module and not the one 
from the SCF calculation. In case the first step is a DFT calculation these two might be different.

NOTE: For the SCF part we extrapolate based on the scheme proposed in J. Chem. Phys. 2008, 129, 184116
using the exponents from J. Chem. Theory Comput., 7, 33-43 (2011)

NOTE: For the correlation part we extrapolate based on the scheme proposed in J. Chem. Phys. 1997, 106, 9639
using the exponents from J. Chem. Theory Comput., 7, 33-43 (2011)


Alpha(3/4)     :  7.880 (SCF Extrapolation)
Beta(3/4)      :  2.970 (correlation extrapolation)

SCF energy with basis def2-TZVPP:                     -1307.979078552
SCF energy with basis def2-QZVPP:                     -1308.007522228
Extrapolated CBS SCF energy (3/4) :                   -1308.011440022 (-0.003917795) 

MDCI energy with basis def2-TZVPP:                       -0.550680875
MDCI energy with basis def2-QZVPP:                       -0.602057336
Extrapolated CBS correlation energy (3/4) :              -0.640113946 (-0.038056610)

Estimated CBS total energy (3/4) :                    -1308.651553968



-------------------------   --------------------
FINAL SINGLE POINT ENERGY     -1308.651553968077
-------------------------   --------------------


                            ***************************************
                            *     ORCA property calculations      *
                            ***************************************

                                    ---------------------
                                    Active property flags
                                    ---------------------
   (+) Dipole Moment


------------------------------------------------------------------------------
                       ORCA ELECTRIC PROPERTIES CALCULATION
------------------------------------------------------------------------------

Dipole Moment Calculation                       ... on
Quadrupole Moment Calculation                   ... off
Polarizability Calculation                      ... off
GBWName                                         ... 09_TiCl.gbw
Electron density file                           ... 09_TiCl.scfp
The origin for moment calculation is the CENTER OF MASS  = ( 0.000000,  0.000000  1.574575)

-------------
DIPOLE MOMENT
-------------
                                X             Y             Z
Electronic contribution:     -0.00000       0.00000      -2.94472
Nuclear contribution   :      0.00000       0.00000       1.73863
                        -----------------------------------------
Total Dipole Moment    :     -0.00000       0.00000      -1.20609
                        -----------------------------------------
Magnitude (a.u.)       :      1.20609
Magnitude (Debye)      :      3.06563



--------------------
Rotational spectrum 
--------------------
 
Rotational constants in cm-1:     0.000000     0.165851     0.165851 
Rotational constants in MHz :     0.000000  4972.077671  4972.077671 

 Dipole components along the rotational axes: 
x,y,z [a.u.] :    -1.206087     0.000000    -0.000000 
x,y,z [Debye]:    -3.065630     0.000000    -0.000000 

 

                           *** MDCI DENSITY ***

------------------------------------------------------------------------------
                       ORCA ELECTRIC PROPERTIES CALCULATION
------------------------------------------------------------------------------

Dipole Moment Calculation                       ... on
Quadrupole Moment Calculation                   ... off
Polarizability Calculation                      ... off
GBWName                                         ... 09_TiCl.gbw
Electron density file                           ... 09_TiCl.mdcip
The origin for moment calculation is the CENTER OF MASS  = ( 0.000000,  0.000000  1.574575)

-------------
DIPOLE MOMENT
-------------
                                X             Y             Z
Electronic contribution:     -0.00000      -0.00000      -3.50976
Nuclear contribution   :      0.00000       0.00000       1.73863
                        -----------------------------------------
Total Dipole Moment    :     -0.00000      -0.00000      -1.77112
                        -----------------------------------------
Magnitude (a.u.)       :      1.77112
Magnitude (Debye)      :      4.50183



--------------------
Rotational spectrum 
--------------------
 
Rotational constants in cm-1:     0.000000     0.165851     0.165851 
Rotational constants in MHz :     0.000000  4972.077671  4972.077671 

 Dipole components along the rotational axes: 
x,y,z [a.u.] :    -1.771122    -0.000000    -0.000000 
x,y,z [Debye]:    -4.501835    -0.000000    -0.000000 

 

Timings for individual modules:

Sum of individual times         ...      161.739 sec (=   2.696 min)
GTO integral calculation        ...        1.555 sec (=   0.026 min)   1.0 %
SCF iterations                  ...       13.114 sec (=   0.219 min)   8.1 %
MDCI module                     ...      147.070 sec (=   2.451 min)  90.9 %
                             ****ORCA TERMINATED NORMALLY****
TOTAL RUN TIME: 0 days 0 hours 2 minutes 42 seconds 652 msec
