
                                 *****************
                                 * O   R   C   A *
                                 *****************

           --- An Ab Initio, DFT and Semiempirical electronic structure package ---

                  #######################################################
                  #                        -***-                        #
                  #          Department of theory and spectroscopy      #
                  #               Directorship: Frank Neese             #
                  #        Max Planck Institute fuer Kohlenforschung    #
                  #                Kaiser Wilhelm Platz 1               #
                  #                 D-45470 Muelheim/Ruhr               #
                  #                      Germany                        #
                  #                                                     #
                  #                  All rights reserved                #
                  #                        -***-                        #
                  #######################################################


                         Program Version 4.2.0 -  RELEASE  -


 With contributions from (in alphabetic order):
   Daniel Aravena         : Magnetic Suceptibility
   Michael Atanasov       : Ab Initio Ligand Field Theory (pilot matlab implementation)
   Alexander A. Auer      : GIAO ZORA, VPT2
   Ute Becker             : Parallelization
   Giovanni Bistoni       : ED, misc. LED, open-shell LED, HFLED
   Martin Brehm           : Molecular dynamics
   Dmytro Bykov           : SCF Hessian
   Vijay G. Chilkuri      : MRCI spin determinant printing, contributions to CSF-ICE
   Dipayan Datta          : RHF DLPNO-CCSD density
   Achintya Kumar Dutta   : EOM-CC, STEOM-CC
   Dmitry Ganyushin       : Spin-Orbit,Spin-Spin,Magnetic field MRCI
   Miquel Garcia          : C-PCM Hessian, Gaussian charge scheme
   Yang Guo               : DLPNO-NEVPT2, CIM, IAO-localization
   Andreas Hansen         : Spin unrestricted coupled pair/coupled cluster methods
   Benjamin Helmich-Paris : CASSCF linear response (MC-RPA)
   Lee Huntington         : MR-EOM, pCC
   Robert Izsak           : Overlap fitted RIJCOSX, COSX-SCS-MP3, EOM
   Christian Kollmar      : KDIIS, OOCD, Brueckner-CCSD(T), CCSD density
   Simone Kossmann        : Meta GGA functionals, TD-DFT gradient, OOMP2, MP2 Hessian
   Martin Krupicka        : AUTO-CI
   Lucas Lang             : DCDCAS
   Dagmar Lenk            : GEPOL surface, SMD
   Dimitrios Liakos       : Extrapolation schemes; Compound Job, initial MDCI parallelization
   Dimitrios Manganas     : Further ROCIS development; embedding schemes
   Dimitrios Pantazis     : SARC Basis sets
   Taras Petrenko         : DFT Hessian,TD-DFT gradient, ASA, ECA, R-Raman, ABS, FL, XAS/XES, NRVS
   Peter Pinski           : DLPNO-MP2, DLPNO-MP2 Gradient
   Christoph Reimann      : Effective Core Potentials
   Marius Retegan         : Local ZFS, SOC
   Christoph Riplinger    : Optimizer, TS searches, QM/MM, DLPNO-CCSD(T), (RO)-DLPNO pert. Triples
   Tobias Risthaus        : Range-separated hybrids, TD-DFT gradient, RPA, STAB
   Michael Roemelt        : Original ROCIS implementation
   Masaaki Saitow         : Open-shell DLPNO-CCSD energy and density
   Barbara Sandhoefer     : DKH picture change effects
   Avijit Sen             : IP-ROCIS
   Kantharuban Sivalingam : CASSCF convergence, NEVPT2, FIC-MRCI
   Bernardo de Souza      : ESD, SOC TD-DFT
   Georgi Stoychev        : AutoAux, RI-MP2 NMR
   Willem Van den Heuvel  : Paramagnetic NMR
   Boris Wezisla          : Elementary symmetry handling
   Frank Wennmohs         : Technical directorship


 We gratefully acknowledge several colleagues who have allowed us to
 interface, adapt or use parts of their codes:
   Stefan Grimme, W. Hujo, H. Kruse,             : VdW corrections, initial TS optimization,
                  C. Bannwarth                     DFT functionals, gCP, sTDA/sTD-DF
   Ed Valeev, F. Pavosevic, A. Kumar             : LibInt (2-el integral package), F12 methods
   Garnet Chan, S. Sharma, J. Yang, R. Olivares  : DMRG
   Ulf Ekstrom                                   : XCFun DFT Library
   Mihaly Kallay                                 : mrcc  (arbitrary order and MRCC methods)
   Andreas Klamt, Michael Diedenhofen            : otool_cosmo (COSMO solvation model)
   Jiri Pittner, Ondrej Demel                    : Mk-CCSD
   Frank Weinhold                                : gennbo (NPA and NBO analysis)
   Christopher J. Cramer and Donald G. Truhlar   : smd solvation model
   Lars Goerigk                                  : TD-DFT with DH, B97 family of functionals
   V. Asgeirsson, H. Jonsson                     : NEB implementation
   FAccTs GmbH                                   : IRC, NEB, NEB-TS, Multilevel, MM, QM/MM, CI optimization
   S Lehtola, MJT Oliveira, MAL Marques          : LibXC Library


 Your calculation uses the libint2 library for the computation of 2-el integrals
 For citations please refer to: http://libint.valeyev.net

 Your ORCA version has been built with support for libXC version: 4.2.3
 For citations please refer to: https://tddft.org/programs/libxc/

 This ORCA versions uses:
   CBLAS   interface :  Fast vector & matrix operations
   LAPACKE interface :  Fast linear algebra routines
   SCALAPACK package :  Parallel linear algebra routines


----- Orbital basis set information -----
Your calculation utilizes the basis: def2-TZVPP
   F. Weigend and R. Ahlrichs, Phys. Chem. Chem. Phys. 7, 3297 (2005).

================================================================================
                                        WARNINGS
                       Please study these warnings very carefully!
================================================================================


WARNING: your system is open-shell and RHF/RKS was chosen
  ===> : WILL SWITCH to UHF/UKS


WARNING: MDCI localization with Augmented Hessian Foster-Boys
  ===> : Switching off randomization!

WARNING: Post HF methods need fully converged wavefunctions
  ===> : Setting SCFConvForced true
         You can overwrite this default with %scf ConvForced false 


INFO   : the flag for use of LIBINT has been found!

================================================================================
                                       INPUT FILE
================================================================================
NAME = 10_TiBr.in
|  1> #
|  2> # 10_TiBr ccsd(t)/cbs
|  3> #
|  4> ! ccsd(t) extrapolate(3/4,def2) verytightscf
|  5> 
|  6> *xyz 0 4
|  7>   Ti  0.00000000000000      0.00000000000000     -0.20373332414567
|  8>   Br  0.00000000000000      0.00000000000000      2.20373332414567
|  9> *
| 10> 
| 11> %maxcore 5000
| 12> %pal
| 13> nprocs 24
| 14> end
| 15> 
| 16> 
| 17>                          ****END OF INPUT****
================================================================================

                   *****************************************
                   * Extrapolated Single Point Calculation *
                   *****************************************

----- Orbital basis set information -----
Your calculation utilizes the basis: def2-TZVPP
   F. Weigend and R. Ahlrichs, Phys. Chem. Chem. Phys. 7, 3297 (2005).

----- AuxJ basis set information -----
Your calculation utilizes the auxiliary basis: def2/J
   F. Weigend, Phys. Chem. Chem. Phys. 8, 1057 (2006).

----- AuxC basis set information -----
Your calculation utilizes the auxiliary basis: def2-TZVPP/C
  H-La, Hf-Rn : A. Hellweg, C. Hattig, S. Hofener and W. Klopper, Theor. Chem. Acc. 117, 587 (2007).
        Ce-Lu : J. Chmela and M. E. Harding, Mol. Phys. (2018).

----- AuxJK basis set information -----
Your calculation utilizes the auxiliary basis: def2/JK
   H-Ba, Hf-Rn: F. Weigend, J. Comput. Chem. 29, 167 (2008).

All done

                     -----------------------------------------
                     Extrapolated Energy 1 Basis=  def2-TZVPP
                     -----------------------------------------

---------------------------------
CARTESIAN COORDINATES (ANGSTROEM)
---------------------------------
  Ti     0.000000    0.000000   -0.203733
  Br     0.000000    0.000000    2.203733

----------------------------
CARTESIAN COORDINATES (A.U.)
----------------------------
  NO LB      ZA    FRAG     MASS         X           Y           Z
   0 Ti   22.0000    0    47.900    0.000000    0.000000   -0.385000
   1 Br   35.0000    0    79.900    0.000000    0.000000    4.164452

--------------------------------
INTERNAL COORDINATES (ANGSTROEM)
--------------------------------
 Ti     0   0   0     0.000000000000     0.00000000     0.00000000
 Br     1   0   0     2.407466648291     0.00000000     0.00000000

---------------------------
INTERNAL COORDINATES (A.U.)
---------------------------
 Ti     0   0   0     0.000000000000     0.00000000     0.00000000
 Br     1   0   0     4.549452641820     0.00000000     0.00000000

---------------------
BASIS SET INFORMATION
---------------------
There are 2 groups of distinct atoms

 Group   1 Type Ti  : 17s12p7d2f1g contracted to 6s5p4d2f1g pattern {842111/63111/4111/11/1}
 Group   2 Type Br  : 17s13p8d1f contracted to 6s5p4d1f pattern {842111/64111/5111/1}

Atom   0Ti   basis set group =>   1
Atom   1Br   basis set group =>   2
---------------------------------
AUXILIARY/J BASIS SET INFORMATION
---------------------------------
There are 2 groups of distinct atoms

 Group   1 Type Ti  : 19s5p5d3f3g contracted to 8s5p5d2f3g pattern {121111111/11111/11111/21/111}
 Group   2 Type Br  : 19s5p5d3f1g contracted to 8s4p3d2f1g pattern {121111111/2111/311/21/1}

Atom   0Ti   basis set group =>   1
Atom   1Br   basis set group =>   2
---------------------------------
AUXILIARY/C BASIS SET INFORMATION
---------------------------------
There are 2 groups of distinct atoms

 Group   1 Type Ti  : 9s9p8d7f5g3h1i contracted to 9s9p8d7f5g3h1i pattern {111111111/111111111/11111111/1111111/11111/111/1}
 Group   2 Type Br  : 10s9p8d6f4g1h contracted to 10s9p8d5f4g1h pattern {1111111111/111111111/11111111/21111/1111/1}

Atom   0Ti   basis set group =>   1
Atom   1Br   basis set group =>   2
----------------------------------
AUXILIARY/JK BASIS SET INFORMATION
----------------------------------
There are 2 groups of distinct atoms

 Group   1 Type Ti  : 19s14p12d10f7g3h1i contracted to 16s13p11d9f5g3h1i pattern {4111111111111111/2111111111111/21111111111/211111111/31111/111/1}
 Group   2 Type Br  : 20s14p13d10f7g3h contracted to 17s13p12d9f6g3h pattern {41111111111111111/2111111111111/211111111111/211111111/211111/111}

Atom   0Ti   basis set group =>   1
Atom   1Br   basis set group =>   2


           ************************************************************
           *        Program running with 24 parallel MPI-processes    *
           *              working on a common directory               *
           ************************************************************
------------------------------------------------------------------------------
                           ORCA GTO INTEGRAL CALCULATION
------------------------------------------------------------------------------

                         BASIS SET STATISTICS AND STARTUP INFO

 # of primitive gaussian shells          ...   78
 # of primitive gaussian functions       ...  214
 # of contracted shells                  ...   34
 # of contracted basis functions         ...  112
 Highest angular momentum                ...    4
 Maximum contraction depth               ...    8
 Integral package used                   ... LIBINT
 Integral threshhold            Thresh   ...  1.000e-12
 Primitive cut-off              TCut     ...  1.000e-14


------------------------------ INTEGRAL EVALUATION ----------------------------


 * One electron integrals 
 Pre-screening matrix                    ... done
 Shell pair data                         ... done (   0.000 sec)



           ************************************************************
           *        Program running with 24 parallel MPI-processes    *
           *              working on a common directory               *
           ************************************************************
-------------------------------------------------------------------------------
                                 ORCA SCF
-------------------------------------------------------------------------------

------------
SCF SETTINGS
------------
Hamiltonian:
 Ab initio Hamiltonian  Method          .... Hartree-Fock(GTOs)


General Settings:
 Integral files         IntName         .... 10_TiBr
 Hartree-Fock type      HFTyp           .... UHF
 Total Charge           Charge          ....    0
 Multiplicity           Mult            ....    4
 Number of Electrons    NEL             ....   57
 Basis Dimension        Dim             ....  112
 Nuclear Repulsion      ENuc            ....    169.2511298880 Eh

Convergence Acceleration:
 DIIS                   CNVDIIS         .... on
   Start iteration      DIISMaxIt       ....    12
   Startup error        DIISStart       ....  0.200000
   # of expansion vecs  DIISMaxEq       ....     5
   Bias factor          DIISBfac        ....   1.050
   Max. coefficient     DIISMaxC        ....  10.000
 Newton-Raphson         CNVNR           .... off
 SOSCF                  CNVSOSCF        .... off
 Level Shifting         CNVShift        .... on
   Level shift para.    LevelShift      ....    0.2500
   Turn off err/grad.   ShiftErr        ....    0.0010
 Zerner damping         CNVZerner       .... off
 Static damping         CNVDamp         .... on
   Fraction old density DampFac         ....    0.7000
   Max. Damping (<1)    DampMax         ....    0.9800
   Min. Damping (>=0)   DampMin         ....    0.0000
   Turn off err/grad.   DampErr         ....    0.1000
 Fernandez-Rico         CNVRico         .... off

SCF Procedure:
 Maximum # iterations   MaxIter         ....   125
 SCF integral mode      SCFMode         .... Direct
   Integral package                     .... LIBINT
 Reset frequency        DirectResetFreq ....    20
 Integral Threshold     Thresh          ....  1.000e-12 Eh
 Primitive CutOff       TCut            ....  1.000e-14 Eh

Convergence Tolerance:
 Convergence Check Mode ConvCheckMode   .... Total+1el-Energy
 Convergence forced     ConvForced      .... 1
 Energy Change          TolE            ....  1.000e-09 Eh
 1-El. energy change                    ....  1.000e-06 Eh
 DIIS Error             TolErr          ....  1.000e-08


Diagonalization of the overlap matrix:
Smallest eigenvalue                        ... 3.237e-03
Time for diagonalization                   ...    0.022 sec
Threshold for overlap eigenvalues          ... 1.000e-08
Number of eigenvalues below threshold      ... 0
Time for construction of square roots      ...    0.001 sec
Total time needed                          ...    0.023 sec

-------------------
DFT GRID GENERATION
-------------------

General Integration Accuracy     IntAcc      ...  4.340
Radial Grid Type                 RadialGrid  ... Gauss-Chebyshev
Angular Grid (max. acc.)         AngularGrid ... Lebedev-110
Angular grid pruning method      GridPruning ... 3 (G Style)
Weight generation scheme         WeightScheme... Becke
Basis function cutoff            BFCut       ...    1.0000e-12
Integration weight cutoff        WCut        ...    1.0000e-14
Grids for H and He will be reduced by one unit

# of grid points (after initial pruning)     ...   5862 (   0.0 sec)
# of grid points (after weights+screening)   ...   5839 (   0.0 sec)
nearest neighbour list constructed           ...    0.0 sec
Grid point re-assignment to atoms done       ...    0.0 sec
Grid point division into batches done        ...    0.0 sec
Reduced shell lists constructed in    0.0 sec

Total number of grid points                  ...     5839
Total number of batches                      ...       92
Average number of points per batch           ...       63
Average number of grid points per atom       ...     2920
Average number of shells per batch           ...    10.40 (30.59%)
Average number of basis functions per batch  ...    36.00 (32.14%)
Average number of large shells per batch     ...     7.60 (73.08%)
Average number of large basis fcns per batch ...    25.20 (70.00%)
Maximum spatial batch extension              ...  18.98, 28.73, 16.44 au
Average spatial batch extension              ...   0.76,  1.04,  0.71 au

Time for grid setup =    0.030 sec

------------------------------
INITIAL GUESS: MODEL POTENTIAL
------------------------------
Loading Hartree-Fock densities                     ... done
Calculating cut-offs                               ... done
Setting up the integral package                    ... done
Initializing the effective Hamiltonian             ... done
Starting the Coulomb interaction                   ... done (   0.0 sec)
Reading the grid                                   ... done
Mapping shells                                     ... done
Starting the XC term evaluation                    ... done (   0.0 sec)
Transforming the Hamiltonian                       ... done (   0.0 sec)
Diagonalizing the Hamiltonian                      ... done (   0.0 sec)
Back transforming the eigenvectors                 ... done (   0.0 sec)
Now organizing SCF variables                       ... done
                      ------------------
                      INITIAL GUESS DONE (   0.1 sec)
                      ------------------
--------------
SCF ITERATIONS
--------------
ITER       Energy         Delta-E        Max-DP      RMS-DP      [F,P]     Damp
               ***  Starting incremental Fock matrix formation  ***
  0  -3420.7564696450   0.000000000000 0.02661806  0.00064367  0.1586461 0.7000
  1  -3420.7921392870  -0.035669642058 0.02372530  0.00051025  0.0996714 0.7000
                               ***Turning on DIIS***
  2  -3420.8152877527  -0.023148465681 0.06162304  0.00120900  0.0639244 0.0000
  3  -3420.7059235159   0.109364236794 0.02748019  0.00047285  0.0303805 0.0000
  4  -3420.9347310307  -0.228807514822 0.02399307  0.00024286  0.0101160 0.0000
  5  -3420.8598196231   0.074911407647 0.02132383  0.00019387  0.0050992 0.0000
  6  -3420.8753474738  -0.015527850772 0.01746417  0.00016117  0.0049155 0.0000
  7  -3420.8745895284   0.000757945473 0.01205905  0.00012426  0.0055272 0.0000
  8  -3420.8641066206   0.010482907788 0.00644599  0.00008146  0.0058148 0.0000
  9  -3420.8311746427   0.032931977883 0.00176412  0.00003024  0.0059089 0.0000
 10  -3420.7897453003   0.041429342424 0.00223637  0.00001939  0.0058622 0.0000
 11  -3420.7866088791   0.003136421140 0.00031287  0.00000589  0.0057630 0.0000
 12  -3420.8201719574  -0.033563078228 0.00541638  0.00005970  0.0057822 0.0000
 13  -3420.8576986194  -0.037526661990 0.00724016  0.00009047  0.0059342 0.0000
 14  -3420.9003885432  -0.042689923893 0.01141979  0.00014887  0.0060860 0.0000
 15  -3420.8944286601   0.005959883140 0.00868117  0.00012966  0.0062912 0.0000
 16  -3420.8661518409   0.028276819257 0.00444629  0.00008538  0.0063383 0.0000
 17  -3420.6954167798   0.170735061060 0.01411315  0.00016123  0.0062915 0.0000
 18  -3420.7971110624  -0.101694282580 0.00630097  0.00007831  0.0058699 0.0000
 19  -3420.8559893417  -0.058878279339 0.00898767  0.00011990  0.0061640 0.0000
               *** Restarting incremental Fock matrix formation ***
                                   *** Resetting DIIS ***
 20  -3420.8761886987  -0.020199356964 0.00516366  0.00009400  0.0063105 0.0000
 21  -3420.8828814390  -0.006692740325 0.00540424  0.00010371  0.0063308 0.0000
 22  -3420.8882257054  -0.005344266365 0.00542149  0.00010943  0.0063329 0.0000
 23  -3420.9188849407  -0.030659235339 0.00765326  0.00015026  0.0063306 0.0000
 24  -3420.9626877474  -0.043802806710 0.01060551  0.00021205  0.0063440 0.0000
 25  -3420.9157797630   0.046907984411 0.00630626  0.00014282  0.0062959 0.0000
 26  -3421.1553803075  -0.239600544536 0.02138643  0.00044487  0.0060310 0.0000
 27  -3420.8015700234   0.353810284102 0.01404216  0.00016484  0.0056883 0.0000
 28  -3421.0779456878  -0.276375664351 0.01943361  0.00040591  0.0051207 0.0000
 29  -3421.2234860345  -0.145540346683 0.02255124  0.00041815  0.0047549 0.0000
 30  -3421.0132566691   0.210229365368 0.01128063  0.00015583  0.0046014 0.0000
 31  -3421.1150903319  -0.101833662825 0.01834634  0.00032254  0.0025487 0.0000
 32  -3420.9710220193   0.144068312615 0.01000127  0.00010516  0.0034214 0.0000
 33  -3420.9501694011   0.020852618223 0.00660448  0.00011207  0.0012359 0.0000
 34  -3420.9324048064   0.017764594675 0.00878179  0.00012297  0.0008868 0.0000
 35  -3420.8839366001   0.048468206282 0.00222211  0.00002243  0.0002407 0.0000
 36  -3420.8842744558  -0.000337855695 0.00065153  0.00000789  0.0000971 0.0000
 37  -3420.8842042056   0.000070250227 0.00037624  0.00000492  0.0000466 0.0000
 38  -3420.8839668265   0.000237379081 0.00001944  0.00000064  0.0000057 0.0000
 39  -3420.8839743426  -0.000007516031 0.00001456  0.00000029  0.0000031 0.0000
               *** Restarting incremental Fock matrix formation ***
                                   *** Resetting DIIS ***
 40  -3420.8840419445  -0.000067601924 0.00000580  0.00000011  0.0000010 0.0000
 41  -3420.8840439706  -0.000002026115 0.00000291  0.00000007  0.0000006 0.0000
 42  -3420.8840429872   0.000000983351 0.00000231  0.00000007  0.0000004 0.0000
 43  -3420.8840414058   0.000001581475 0.00000079  0.00000002  0.0000002 0.0000
 44  -3420.8840428693  -0.000001463558 0.00000078  0.00000001  0.0000001 0.0000
 45  -3420.8840423878   0.000000481490 0.00000037  0.00000001  0.0000001 0.0000
 46  -3420.8840437493  -0.000001361499 0.00000043  0.00000001  0.0000001 0.0000
 47  -3420.8840432125   0.000000536838 0.00000026  0.00000001  0.0000000 0.0000
                            ***DIIS convergence achieved***

               *****************************************************
               *                     SUCCESS                       *
               *           SCF CONVERGED AFTER  48 CYCLES          *
               *****************************************************


----------------
TOTAL SCF ENERGY
----------------

Total Energy       :        -3420.88404248 Eh          -93086.98725 eV

Components:
Nuclear Repulsion  :          169.25112989 Eh            4605.55739 eV
Electronic Energy  :        -3590.13517237 Eh          -97692.54463 eV
One Electron Energy:        -5085.53087781 Eh         -138384.33051 eV
Two Electron Energy:         1495.39570544 Eh           40691.78588 eV

Virial components:
Potential Energy   :        -6841.72455019 Eh         -186172.78985 eV
Kinetic Energy     :         3420.84050771 Eh           93085.80261 eV
Virial Ratio       :            2.00001273


---------------
SCF CONVERGENCE
---------------

  Last Energy change         ...    7.2884e-07  Tolerance :   1.0000e-09
  Last MAX-Density change    ...    1.1732e-07  Tolerance :   1.0000e-08
  Last RMS-Density change    ...    2.0551e-09  Tolerance :   1.0000e-09
  Last DIIS Error            ...    1.6901e-08  Tolerance :   1.0000e-08

             **** THE GBW FILE WAS UPDATED (10_TiBr.gbw) ****
             **** DENSITY FILE WAS UPDATED (10_TiBr.scfp) ****
             **** ENERGY FILE WAS UPDATED (10_TiBr.en.tmp) ****
----------------------
UHF SPIN CONTAMINATION
----------------------

Expectation value of <S**2>     :     3.755307
Ideal value S*(S+1) for S=1.5   :     3.750000
Deviation                       :     0.005307

             **** THE GBW FILE WAS UPDATED (10_TiBr.gbw) ****
             **** DENSITY FILE WAS UPDATED (10_TiBr.scfp) ****
----------------
ORBITAL ENERGIES
----------------
                 SPIN UP ORBITALS
  NO   OCC          E(Eh)            E(eV) 
   0   1.0000    -489.975113    -13332.9007 
   1   1.0000    -183.285286     -4987.4462 
   2   1.0000     -65.118513     -1771.9648 
   3   1.0000     -58.472762     -1591.1248 
   4   1.0000     -58.472750     -1591.1244 
   5   1.0000     -58.472750     -1591.1244 
   6   1.0000     -21.450166      -583.6887 
   7   1.0000     -17.821339      -484.9433 
   8   1.0000     -17.817606      -484.8417 
   9   1.0000     -17.817606      -484.8417 
  10   1.0000      -9.792196      -266.4592 
  11   1.0000      -7.400733      -201.3842 
  12   1.0000      -7.399644      -201.3546 
  13   1.0000      -7.399644      -201.3546 
  14   1.0000      -3.141534       -85.4855 
  15   1.0000      -3.141026       -85.4717 
  16   1.0000      -3.141026       -85.4717 
  17   1.0000      -3.140253       -85.4506 
  18   1.0000      -3.140253       -85.4506 
  19   1.0000      -2.944861       -80.1338 
  20   1.0000      -1.909041       -51.9476 
  21   1.0000      -1.909041       -51.9476 
  22   1.0000      -1.833375       -49.8887 
  23   1.0000      -0.960271       -26.1303 
  24   1.0000      -0.445005       -12.1092 
  25   1.0000      -0.405717       -11.0401 
  26   1.0000      -0.405717       -11.0401 
  27   1.0000      -0.399918       -10.8823 
  28   1.0000      -0.399918       -10.8823 
  29   1.0000      -0.254111        -6.9147 
  30   0.0000       0.027387         0.7452 
  31   0.0000       0.027387         0.7452 
  32   0.0000       0.038068         1.0359 
  33   0.0000       0.114541         3.1168 
  34   0.0000       0.114541         3.1168 
  35   0.0000       0.127820         3.4782 
  36   0.0000       0.149342         4.0638 
  37   0.0000       0.149342         4.0638 
  38   0.0000       0.186476         5.0743 
  39   0.0000       0.200060         5.4439 
  40   0.0000       0.200060         5.4439 
  41   0.0000       0.206380         5.6159 
  42   0.0000       0.329463         8.9651 
  43   0.0000       0.329463         8.9651 
  44   0.0000       0.351518         9.5653 
  45   0.0000       0.428662        11.6645 
  46   0.0000       0.448359        12.2005 
  47   0.0000       0.448359        12.2005 
  48   0.0000       0.484357        13.1800 
  49   0.0000       0.484357        13.1800 
  50   0.0000       0.573353        15.6017 
  51   0.0000       0.573353        15.6017 
  52   0.0000       0.622824        16.9479 
  53   0.0000       0.622824        16.9479 
  54   0.0000       0.662010        18.0142 
  55   0.0000       0.720567        19.6076 
  56   0.0000       0.720567        19.6076 
  57   0.0000       0.762957        20.7611 
  58   0.0000       0.834547        22.7092 
  59   0.0000       0.834547        22.7092 
  60   0.0000       0.880996        23.9731 
  61   0.0000       0.880996        23.9731 
  62   0.0000       1.053339        28.6628 
  63   0.0000       1.053339        28.6628 
  64   0.0000       1.077187        29.3117 
  65   0.0000       1.281865        34.8813 
  66   0.0000       1.643211        44.7140 
  67   0.0000       1.643211        44.7140 
  68   0.0000       1.648660        44.8623 
  69   0.0000       1.654205        45.0132 
  70   0.0000       1.654205        45.0132 
  71   0.0000       1.679750        45.7083 
  72   0.0000       1.679750        45.7083 
  73   0.0000       1.785145        48.5763 
  74   0.0000       1.845133        50.2086 
  75   0.0000       1.846472        50.2450 
  76   0.0000       1.846472        50.2450 
  77   0.0000       1.866875        50.8002 
  78   0.0000       1.866875        50.8002 
  79   0.0000       1.974460        53.7278 
  80   0.0000       1.974460        53.7278 
  81   0.0000       2.059011        56.0285 
  82   0.0000       2.059011        56.0285 
  83   0.0000       2.159898        58.7738 
  84   0.0000       2.286850        62.2284 
  85   0.0000       2.325229        63.2727 
  86   0.0000       2.325229        63.2727 
  87   0.0000       2.385102        64.9019 
  88   0.0000       2.385102        64.9019 
  89   0.0000       2.678089        72.8745 
  90   0.0000       2.839762        77.2738 
  91   0.0000       2.839762        77.2738 
  92   0.0000       2.840076        77.2824 
  93   0.0000       2.840076        77.2824 
  94   0.0000       2.864295        77.9414 
  95   0.0000       2.864295        77.9414 
  96   0.0000       3.013522        82.0021 
  97   0.0000       3.013522        82.0021 
  98   0.0000       3.215344        87.4940 
  99   0.0000       3.238690        88.1292 
 100   0.0000       3.238690        88.1292 
 101   0.0000       3.296033        89.6896 
 102   0.0000       3.296033        89.6896 
 103   0.0000       3.415565        92.9422 
 104   0.0000       3.415565        92.9422 
 105   0.0000       3.648073        99.2691 
 106   0.0000       4.482440       121.9734 
 107   0.0000       4.482440       121.9734 
 108   0.0000       4.557778       124.0234 
 109   0.0000       4.557778       124.0234 
 110   0.0000       4.778530       130.0304 
 111   0.0000       8.118505       220.9157 

                 SPIN DOWN ORBITALS
  NO   OCC          E(Eh)            E(eV) 
   0   1.0000    -489.975274    -13332.9050 
   1   1.0000    -183.283610     -4987.4006 
   2   1.0000     -65.118577     -1771.9666 
   3   1.0000     -58.472991     -1591.1310 
   4   1.0000     -58.472991     -1591.1310 
   5   1.0000     -58.472818     -1591.1263 
   6   1.0000     -21.416018      -582.7595 
   7   1.0000     -17.812396      -484.6999 
   8   1.0000     -17.772941      -483.6263 
   9   1.0000     -17.772941      -483.6263 
  10   1.0000      -9.792471      -266.4667 
  11   1.0000      -7.400836      -201.3870 
  12   1.0000      -7.400224      -201.3703 
  13   1.0000      -7.400224      -201.3703 
  14   1.0000      -3.141614       -85.4877 
  15   1.0000      -3.141177       -85.4758 
  16   1.0000      -3.141177       -85.4758 
  17   1.0000      -3.140548       -85.4586 
  18   1.0000      -3.140548       -85.4586 
  19   1.0000      -2.815780       -76.6213 
  20   1.0000      -1.803433       -49.0739 
  21   1.0000      -1.689366       -45.9700 
  22   1.0000      -1.689366       -45.9700 
  23   1.0000      -0.962008       -26.1776 
  24   1.0000      -0.439294       -11.9538 
  25   1.0000      -0.401834       -10.9345 
  26   1.0000      -0.401834       -10.9345 
  27   0.0000       0.009945         0.2706 
  28   0.0000       0.084576         2.3014 
  29   0.0000       0.084576         2.3014 
  30   0.0000       0.091387         2.4868 
  31   0.0000       0.131174         3.5694 
  32   0.0000       0.131174         3.5694 
  33   0.0000       0.147311         4.0085 
  34   0.0000       0.147311         4.0085 
  35   0.0000       0.181361         4.9351 
  36   0.0000       0.217978         5.9315 
  37   0.0000       0.221319         6.0224 
  38   0.0000       0.221319         6.0224 
  39   0.0000       0.225180         6.1275 
  40   0.0000       0.268129         7.2961 
  41   0.0000       0.268129         7.2961 
  42   0.0000       0.361074         9.8253 
  43   0.0000       0.367884        10.0106 
  44   0.0000       0.367884        10.0106 
  45   0.0000       0.454345        12.3633 
  46   0.0000       0.460150        12.5213 
  47   0.0000       0.460150        12.5213 
  48   0.0000       0.487141        13.2558 
  49   0.0000       0.487141        13.2558 
  50   0.0000       0.585099        15.9214 
  51   0.0000       0.585099        15.9214 
  52   0.0000       0.680055        18.5052 
  53   0.0000       0.742194        20.1961 
  54   0.0000       0.742194        20.1961 
  55   0.0000       0.753002        20.4902 
  56   0.0000       0.753002        20.4902 
  57   0.0000       0.789637        21.4871 
  58   0.0000       0.903350        24.5814 
  59   0.0000       0.903350        24.5814 
  60   0.0000       0.916161        24.9300 
  61   0.0000       0.916161        24.9300 
  62   0.0000       1.071316        29.1520 
  63   0.0000       1.071316        29.1520 
  64   0.0000       1.089016        29.6336 
  65   0.0000       1.285151        34.9707 
  66   0.0000       1.641920        44.6789 
  67   0.0000       1.641920        44.6789 
  68   0.0000       1.657432        45.1010 
  69   0.0000       1.657432        45.1010 
  70   0.0000       1.669619        45.4326 
  71   0.0000       1.738738        47.3135 
  72   0.0000       1.738738        47.3135 
  73   0.0000       1.795409        48.8556 
  74   0.0000       1.844988        50.2047 
  75   0.0000       1.844988        50.2047 
  76   0.0000       1.866859        50.7998 
  77   0.0000       1.868215        50.8367 
  78   0.0000       1.868215        50.8367 
  79   0.0000       1.973585        53.7040 
  80   0.0000       1.973585        53.7040 
  81   0.0000       2.063567        56.1525 
  82   0.0000       2.063567        56.1525 
  83   0.0000       2.210838        60.1600 
  84   0.0000       2.295988        62.4770 
  85   0.0000       2.413885        65.6852 
  86   0.0000       2.413885        65.6852 
  87   0.0000       2.445804        66.5537 
  88   0.0000       2.445804        66.5537 
  89   0.0000       2.695715        73.3541 
  90   0.0000       2.880590        78.3848 
  91   0.0000       2.880590        78.3848 
  92   0.0000       2.892467        78.7080 
  93   0.0000       2.892467        78.7080 
  94   0.0000       2.907050        79.1048 
  95   0.0000       2.907050        79.1048 
  96   0.0000       3.037153        82.6451 
  97   0.0000       3.037153        82.6451 
  98   0.0000       3.238069        88.1123 
  99   0.0000       3.366026        91.5942 
 100   0.0000       3.366026        91.5942 
 101   0.0000       3.402460        92.5856 
 102   0.0000       3.402460        92.5856 
 103   0.0000       3.453753        93.9814 
 104   0.0000       3.453753        93.9814 
 105   0.0000       3.672592        99.9363 
 106   0.0000       4.481805       121.9561 
 107   0.0000       4.481805       121.9561 
 108   0.0000       4.557807       124.0242 
 109   0.0000       4.557807       124.0242 
 110   0.0000       4.779665       130.0613 
 111   0.0000       8.118163       220.9064 

                    ********************************
                    * MULLIKEN POPULATION ANALYSIS *
                    ********************************

--------------------------------------------
MULLIKEN ATOMIC CHARGES AND SPIN POPULATIONS
--------------------------------------------
   0 Ti:    0.434173    3.045886
   1 Br:   -0.434173   -0.045886
Sum of atomic charges         :   -0.0000000
Sum of atomic spin populations:    3.0000000

-----------------------------------------------------
MULLIKEN REDUCED ORBITAL CHARGES AND SPIN POPULATIONS
-----------------------------------------------------
CHARGE
  0 Tis       :     6.888630  s :     6.888630
      pz      :     4.283249  p :    12.350250
      px      :     4.033500
      py      :     4.033500
      dz2     :     0.173514  d :     2.295446
      dxz     :     0.061393
      dyz     :     0.061393
      dx2y2   :     0.999573
      dxy     :     0.999573
      f0      :     0.012069  f :     0.030105
      f+1     :     0.008972
      f-1     :     0.008972
      f+2     :     0.000046
      f-2     :     0.000046
      f+3     :     0.000000
      f-3     :     0.000000
      g0      :     0.000704  g :     0.001396
      g+1     :     0.000346
      g-1     :     0.000346
      g+2     :    -0.000000
      g-2     :    -0.000000
      g+3     :     0.000000
      g-3     :     0.000000
      g+4     :     0.000000
      g-4     :     0.000000
  1 Brs       :     7.922052  s :     7.922052
      pz      :     5.711503  p :    17.492038
      px      :     5.890267
      py      :     5.890267
      dz2     :     2.007612  d :    10.018667
      dxz     :     2.005200
      dyz     :     2.005200
      dx2y2   :     2.000328
      dxy     :     2.000328
      f0      :     0.000667  f :     0.001417
      f+1     :     0.000321
      f-1     :     0.000321
      f+2     :     0.000053
      f-2     :     0.000053
      f+3     :     0.000000
      f-3     :     0.000000

SPIN
  0 Tis       :     0.778310  s :     0.778310
      pz      :     0.187816  p :     0.203596
      px      :     0.007890
      py      :     0.007890
      dz2     :     0.049839  d :     2.064271
      dxz     :     0.007636
      dyz     :     0.007636
      dx2y2   :     0.999580
      dxy     :     0.999580
      f0      :     0.000003  f :    -0.000220
      f+1     :    -0.000161
      f-1     :    -0.000161
      f+2     :     0.000050
      f-2     :     0.000050
      f+3     :     0.000000
      f-3     :     0.000000
      g0      :    -0.000013  g :    -0.000072
      g+1     :    -0.000030
      g-1     :    -0.000030
      g+2     :    -0.000000
      g-2     :    -0.000000
      g+3     :     0.000000
      g-3     :     0.000000
      g+4     :     0.000000
      g-4     :     0.000000
  1 Brs       :    -0.001290  s :    -0.001290
      pz      :    -0.015396  p :    -0.047505
      px      :    -0.016054
      py      :    -0.016054
      dz2     :     0.000623  d :     0.002622
      dxz     :     0.000683
      dyz     :     0.000683
      dx2y2   :     0.000317
      dxy     :     0.000317
      f0      :     0.000107  f :     0.000287
      f+1     :     0.000037
      f-1     :     0.000037
      f+2     :     0.000053
      f-2     :     0.000053
      f+3     :     0.000000
      f-3     :     0.000000


                     *******************************
                     * LOEWDIN POPULATION ANALYSIS *
                     *******************************

-------------------------------------------
LOEWDIN ATOMIC CHARGES AND SPIN POPULATIONS
-------------------------------------------
   0 Ti:   -0.159336    3.022538
   1 Br:    0.159336   -0.022538

----------------------------------------------------
LOEWDIN REDUCED ORBITAL CHARGES AND SPIN POPULATIONS
----------------------------------------------------
CHARGE
  0 Tis       :     6.876619  s :     6.876619
      pz      :     4.447449  p :    12.565790
      px      :     4.059171
      py      :     4.059171
      dz2     :     0.336627  d :     2.608084
      dxz     :     0.136531
      dyz     :     0.136531
      dx2y2   :     0.999198
      dxy     :     0.999198
      f0      :     0.047161  f :     0.104148
      f+1     :     0.028428
      f-1     :     0.028428
      f+2     :     0.000065
      f-2     :     0.000065
      f+3     :     0.000000
      f-3     :     0.000000
      g0      :     0.002524  g :     0.004695
      g+1     :     0.001086
      g-1     :     0.001086
      g+2     :     0.000000
      g-2     :     0.000000
      g+3     :     0.000000
      g-3     :     0.000000
      g+4     :     0.000000
      g-4     :     0.000000
  1 Brs       :     7.568714  s :     7.568714
      pz      :     5.697324  p :    17.242758
      px      :     5.772717
      py      :     5.772717
      dz2     :     2.022626  d :    10.027909
      dxz     :     2.002009
      dyz     :     2.002009
      dx2y2   :     2.000633
      dxy     :     2.000633
      f0      :     0.000956  f :     0.001282
      f+1     :     0.000059
      f-1     :     0.000059
      f+2     :     0.000104
      f-2     :     0.000104
      f+3     :     0.000000
      f-3     :     0.000000

SPIN
  0 Tis       :     0.730443  s :     0.730443
      pz      :     0.211386  p :     0.226156
      px      :     0.007385
      py      :     0.007385
      dz2     :     0.055062  d :     2.066575
      dxz     :     0.006562
      dyz     :     0.006562
      dx2y2   :     0.999195
      dxy     :     0.999195
      f0      :     0.000414  f :    -0.000566
      f+1     :    -0.000552
      f-1     :    -0.000552
      f+2     :     0.000062
      f-2     :     0.000062
      f+3     :     0.000000
      f-3     :     0.000000
      g0      :     0.000015  g :    -0.000070
      g+1     :    -0.000043
      g-1     :    -0.000043
      g+2     :     0.000000
      g-2     :     0.000000
      g+3     :     0.000000
      g-3     :     0.000000
      g+4     :     0.000000
      g-4     :     0.000000
  1 Brs       :     0.001346  s :     0.001346
      pz      :    -0.000600  p :    -0.028118
      px      :    -0.013759
      py      :    -0.013759
      dz2     :     0.001896  d :     0.003958
      dxz     :     0.000392
      dyz     :     0.000392
      dx2y2   :     0.000640
      dxy     :     0.000640
      f0      :     0.000038  f :     0.000276
      f+1     :     0.000015
      f-1     :     0.000015
      f+2     :     0.000104
      f-2     :     0.000104
      f+3     :     0.000000
      f-3     :     0.000000


                      *****************************
                      * MAYER POPULATION ANALYSIS *
                      *****************************

  NA   - Mulliken gross atomic population
  ZA   - Total nuclear charge
  QA   - Mulliken gross atomic charge
  VA   - Mayer's total valence
  BVA  - Mayer's bonded valence
  FA   - Mayer's free valence

  ATOM       NA         ZA         QA         VA         BVA        FA
  0 Ti    21.5658    22.0000     0.4342     4.0012     1.0044     2.9967
  1 Br    35.4342    35.0000    -0.4342     1.0056     1.0044     0.0011

  Mayer bond orders larger than 0.100000
B(  0-Ti,  1-Br) :   1.0044 

-------
TIMINGS
-------

Total SCF time: 0 days 0 hours 0 min 8 sec 

Total time                  ....       8.794 sec
Sum of individual times     ....       8.492 sec  ( 96.6%)

Fock matrix formation       ....       8.117 sec  ( 92.3%)
Diagonalization             ....       0.137 sec  (  1.6%)
Density matrix formation    ....       0.024 sec  (  0.3%)
Population analysis         ....       0.006 sec  (  0.1%)
Initial guess               ....       0.107 sec  (  1.2%)
Orbital Transformation      ....       0.000 sec  (  0.0%)
Orbital Orthonormalization  ....       0.000 sec  (  0.0%)
DIIS solution               ....       0.072 sec  (  0.8%)


           ************************************************************
           *        Program running with 24 parallel MPI-processes    *
           *              working on a common directory               *
           ************************************************************


------------------------------------------------------------------------------- 
                              ORCA-MATRIX DRIVEN CI                            
------------------------------------------------------------------------------- 

--------------------------------
AUTOMATIC CHOICE OF INCORE LEVEL
--------------------------------

Memory available                           ...   2500.00 MB
Memory needed for S+T                      ...     20.93 MB
Memory needed for J+K                      ...     42.03 MB
Memory needed for DIIS                     ...    293.03 MB
Memory needed for 3-ext                    ...     67.31 MB
Memory needed for 4-ext                    ...    174.57 MB
Memory needed for triples                  ...     21.03 MB
 -> Final InCoreLevel    ... 5
 -> check shows that triples correction can be computed


Wavefunction type
-----------------
Correlation treatment                      ...      CCSD     
Single excitations                         ... ON
Orbital optimization                       ... OFF
Calculation of Z vector                    ... OFF
Calculation of Brueckner orbitals          ... OFF
Perturbative triple excitations            ... ON
Calculation of F12 correction              ... OFF
Frozen core treatment                      ... chemical core (28 el)
Reference Wavefunction                     ... UHF
  Alpha-MOs occ    :    14 ...   29 ( 16 MO's/ 16 electrons)
  Beta-MOs occ     :    14 ...   26 ( 13 MO's/ 13 electrons)
  Alpha-MOs virt   :    30 ...  111 ( 82 MO's              )
  Beta-MOs virt    :    27 ...  111 ( 85 MO's              )
Number of AO's                             ...    112
Number of electrons                        ...     57
Number of correlated electrons             ...     29

Algorithmic settings
--------------------
Integral transformation                    ... AO direct full transformation
K(C) Formation                             ... FULL-MO TRAFO
Maximum number of iterations               ...        50
Convergence tolerance (max. residuum)      ... 1.000e-06
Level shift for amplitude update           ... 2.000e-01
Maximum number of DIIS vectors             ...         7
DIIS turned on at iteration                ...         0
Damping before turning on DIIS             ...     0.500
Damping after turning on DIIS              ...     0.000
Pair specific amplitude update             ... OFF
Natural orbital iterations                 ... OFF
Perturbative natural orbital generation    ... OFF
Printlevel                                 ... 2

Memory handling:
----------------
Maximum memory for working arrays          ...   2500 MB
Data storage in matrix containers          ... UNCOMPRESSED
Data type for integral storage             ... DOUBLE
In-Core Storage of quantities:
   Amplitudes+Sigma Vector      ... YES
   J+K operators                ... YES
   DIIS vectors                 ... YES
   3-external integrals         ... YES
   4-external integrals         ... YES


Initializing the integral package          ... done
Warning: reference  - re-canonicalizations have been set to INT 1 VIRT 1

--------------------------
UNRESTRICTED FOCK OPERATOR
--------------------------

<ss|ss>:         2556 b          120 skpd (  4.7%)    0.001 s ( 0.000 ms/b)
<ss|sp>:         8094 b          407 skpd (  5.0%)    0.002 s ( 0.000 ms/b)
<ss|sd>:         6674 b          321 skpd (  4.8%)    0.002 s ( 0.000 ms/b)
<ss|sf>:         2556 b          107 skpd (  4.2%)    0.001 s ( 0.000 ms/b)
<ss|sg>:          852 b           34 skpd (  4.0%)    0.001 s ( 0.001 ms/b)
<ss|pp>:         3834 b          172 skpd (  4.5%)    0.002 s ( 0.000 ms/b)
<ss|pd>:         5609 b          256 skpd (  4.6%)    0.002 s ( 0.000 ms/b)
<ss|pf>:         2130 b           94 skpd (  4.4%)    0.001 s ( 0.000 ms/b)
<ss|pg>:          710 b           31 skpd (  4.4%)    0.001 s ( 0.001 ms/b)
<ss|dd>:         2556 b          101 skpd (  4.0%)    0.003 s ( 0.001 ms/b)
<ss|df>:         1704 b           76 skpd (  4.5%)    0.001 s ( 0.001 ms/b)
<ss|dg>:          568 b           25 skpd (  4.4%)    0.001 s ( 0.002 ms/b)
<ss|ff>:          426 b           18 skpd (  4.2%)    0.000 s ( 0.001 ms/b)
<ss|fg>:          213 b            9 skpd (  4.2%)    0.001 s ( 0.003 ms/b)
<ss|gg>:           71 b            3 skpd (  4.2%)    0.001 s ( 0.012 ms/b)
<sp|sp>:         6555 b          296 skpd (  4.5%)    0.002 s ( 0.000 ms/b)
<sp|sd>:        10716 b          529 skpd (  4.9%)    0.005 s ( 0.000 ms/b)
<sp|sf>:         4104 b          156 skpd (  3.8%)    0.001 s ( 0.000 ms/b)
<sp|sg>:         1368 b           45 skpd (  3.3%)    0.002 s ( 0.001 ms/b)
<sp|pp>:         6156 b          223 skpd (  3.6%)    0.004 s ( 0.001 ms/b)
<sp|pd>:         9006 b          286 skpd (  3.2%)    0.006 s ( 0.001 ms/b)
<sp|pf>:         3420 b           96 skpd (  2.8%)    0.002 s ( 0.001 ms/b)
<sp|pg>:         1140 b           30 skpd (  2.6%)    0.003 s ( 0.002 ms/b)
<sp|dd>:         4104 b          107 skpd (  2.6%)    0.008 s ( 0.002 ms/b)
<sp|df>:         2736 b           81 skpd (  3.0%)    0.003 s ( 0.001 ms/b)
<sp|dg>:          912 b           30 skpd (  3.3%)    0.004 s ( 0.004 ms/b)
<sp|ff>:          684 b           15 skpd (  2.2%)    0.001 s ( 0.002 ms/b)
<sp|fg>:          342 b           10 skpd (  2.9%)    0.002 s ( 0.006 ms/b)
<sp|gg>:          114 b            2 skpd (  1.8%)    0.003 s ( 0.024 ms/b)
<sd|sd>:         4465 b          211 skpd (  4.7%)    0.004 s ( 0.001 ms/b)
<sd|sf>:         3384 b          148 skpd (  4.4%)    0.002 s ( 0.001 ms/b)
<sd|sg>:         1128 b           46 skpd (  4.1%)    0.002 s ( 0.002 ms/b)
<sd|pp>:         5076 b          205 skpd (  4.0%)    0.006 s ( 0.001 ms/b)
<sd|pd>:         7426 b          245 skpd (  3.3%)    0.009 s ( 0.001 ms/b)
<sd|pf>:         2820 b           93 skpd (  3.3%)    0.003 s ( 0.001 ms/b)
<sd|pg>:          940 b           28 skpd (  3.0%)    0.004 s ( 0.005 ms/b)
<sd|dd>:         3384 b           63 skpd (  1.9%)    0.012 s ( 0.004 ms/b)
<sd|df>:         2256 b           51 skpd (  2.3%)    0.005 s ( 0.002 ms/b)
<sd|dg>:          752 b           17 skpd (  2.3%)    0.007 s ( 0.009 ms/b)
<sd|ff>:          564 b           16 skpd (  2.8%)    0.002 s ( 0.005 ms/b)
<sd|fg>:          282 b            8 skpd (  2.8%)    0.003 s ( 0.013 ms/b)
<sd|gg>:           94 b            3 skpd (  3.2%)    0.005 s ( 0.053 ms/b)
<sf|sf>:          666 b           31 skpd (  4.7%)    0.001 s ( 0.001 ms/b)
<sf|sg>:          432 b           12 skpd (  2.8%)    0.001 s ( 0.002 ms/b)
<sf|pp>:         1944 b           59 skpd (  3.0%)    0.003 s ( 0.002 ms/b)
<sf|pd>:         2844 b           76 skpd (  2.7%)    0.005 s ( 0.002 ms/b)
<sf|pf>:         1080 b           26 skpd (  2.4%)    0.002 s ( 0.002 ms/b)
<sf|pg>:          360 b            7 skpd (  1.9%)    0.002 s ( 0.007 ms/b)
<sf|dd>:         1296 b           20 skpd (  1.5%)    0.007 s ( 0.006 ms/b)
<sf|df>:          864 b           22 skpd (  2.5%)    0.003 s ( 0.003 ms/b)
<sf|dg>:          288 b            7 skpd (  2.4%)    0.004 s ( 0.014 ms/b)
<sf|ff>:          216 b            4 skpd (  1.9%)    0.002 s ( 0.008 ms/b)
<sf|fg>:          108 b            3 skpd (  2.8%)    0.002 s ( 0.021 ms/b)
<sf|gg>:           36 b            1 skpd (  2.8%)    0.003 s ( 0.085 ms/b)
<sg|sg>:           78 b            2 skpd (  2.6%)    0.000 s ( 0.005 ms/b)
<sg|pp>:          648 b           17 skpd (  2.6%)    0.002 s ( 0.004 ms/b)
<sg|pd>:          948 b           18 skpd (  1.9%)    0.003 s ( 0.003 ms/b)
<sg|pf>:          360 b            5 skpd (  1.4%)    0.001 s ( 0.003 ms/b)
<sg|pg>:          120 b            0 skpd (  0.0%)    0.002 s ( 0.015 ms/b)
<sg|dd>:          432 b            3 skpd (  0.7%)    0.005 s ( 0.011 ms/b)
<sg|df>:          288 b            1 skpd (  0.3%)    0.002 s ( 0.007 ms/b)
<sg|dg>:           96 b            0 skpd (  0.0%)    0.003 s ( 0.031 ms/b)
<sg|ff>:           72 b            0 skpd (  0.0%)    0.001 s ( 0.013 ms/b)
<sg|fg>:           36 b            0 skpd (  0.0%)    0.001 s ( 0.041 ms/b)
<sg|gg>:           12 b            0 skpd (  0.0%)    0.002 s ( 0.164 ms/b)
<pp|pp>:         1485 b           45 skpd (  3.0%)    0.004 s ( 0.003 ms/b)
<pp|pd>:         4266 b           91 skpd (  2.1%)    0.007 s ( 0.002 ms/b)
<pp|pf>:         1620 b           34 skpd (  2.1%)    0.003 s ( 0.002 ms/b)
<pp|pg>:          540 b           10 skpd (  1.9%)    0.003 s ( 0.007 ms/b)
<pp|dd>:         1944 b           36 skpd (  1.9%)    0.009 s ( 0.005 ms/b)
<pp|df>:         1296 b           25 skpd (  1.9%)    0.004 s ( 0.003 ms/b)
<pp|dg>:          432 b            9 skpd (  2.1%)    0.005 s ( 0.013 ms/b)
<pp|ff>:          324 b            6 skpd (  1.9%)    0.002 s ( 0.007 ms/b)
<pp|fg>:          162 b            3 skpd (  1.9%)    0.003 s ( 0.019 ms/b)
<pp|gg>:           54 b            1 skpd (  1.9%)    0.004 s ( 0.079 ms/b)
<pd|pd>:         3160 b           38 skpd (  1.2%)    0.012 s ( 0.004 ms/b)
<pd|pf>:         2370 b           28 skpd (  1.2%)    0.007 s ( 0.003 ms/b)
<pd|pg>:          790 b           10 skpd (  1.3%)    0.009 s ( 0.011 ms/b)
<pd|dd>:         2844 b           14 skpd (  0.5%)    0.024 s ( 0.008 ms/b)
<pd|df>:         1896 b           15 skpd (  0.8%)    0.010 s ( 0.005 ms/b)
<pd|dg>:          632 b            5 skpd (  0.8%)    0.014 s ( 0.023 ms/b)
<pd|ff>:          474 b            3 skpd (  0.6%)    0.006 s ( 0.012 ms/b)
<pd|fg>:          237 b            3 skpd (  1.3%)    0.008 s ( 0.034 ms/b)
<pd|gg>:           79 b            0 skpd (  0.0%)    0.011 s ( 0.144 ms/b)
<pf|pf>:          465 b            3 skpd (  0.6%)    0.002 s ( 0.003 ms/b)
<pf|pg>:          300 b            0 skpd (  0.0%)    0.005 s ( 0.015 ms/b)
<pf|dd>:         1080 b            2 skpd (  0.2%)    0.011 s ( 0.011 ms/b)
<pf|df>:          720 b            2 skpd (  0.3%)    0.005 s ( 0.007 ms/b)
<pf|dg>:          240 b            1 skpd (  0.4%)    0.007 s ( 0.030 ms/b)
<pf|ff>:          180 b            0 skpd (  0.0%)    0.004 s ( 0.020 ms/b)
<pf|fg>:           90 b            0 skpd (  0.0%)    0.005 s ( 0.052 ms/b)
<pf|gg>:           30 b            0 skpd (  0.0%)    0.006 s ( 0.208 ms/b)
<pg|pg>:           55 b            0 skpd (  0.0%)    0.001 s ( 0.023 ms/b)
<pg|dd>:          360 b            0 skpd (  0.0%)    0.008 s ( 0.021 ms/b)
<pg|df>:          240 b            0 skpd (  0.0%)    0.003 s ( 0.013 ms/b)
<pg|dg>:           80 b            0 skpd (  0.0%)    0.005 s ( 0.063 ms/b)
<pg|ff>:           60 b            0 skpd (  0.0%)    0.002 s ( 0.027 ms/b)
<pg|fg>:           30 b            0 skpd (  0.0%)    0.003 s ( 0.091 ms/b)
<pg|gg>:           10 b            0 skpd (  0.0%)    0.003 s ( 0.346 ms/b)
<dd|dd>:          666 b            1 skpd (  0.2%)    0.017 s ( 0.026 ms/b)
<dd|df>:          864 b            0 skpd (  0.0%)    0.008 s ( 0.009 ms/b)
<dd|dg>:          288 b            0 skpd (  0.0%)    0.011 s ( 0.038 ms/b)
<dd|ff>:          216 b            0 skpd (  0.0%)    0.005 s ( 0.022 ms/b)
<dd|fg>:          108 b            0 skpd (  0.0%)    0.007 s ( 0.063 ms/b)
<dd|gg>:           36 b            0 skpd (  0.0%)    0.010 s ( 0.270 ms/b)
<df|df>:          300 b            0 skpd (  0.0%)    0.004 s ( 0.014 ms/b)
<df|dg>:          192 b            0 skpd (  0.0%)    0.008 s ( 0.041 ms/b)
<df|ff>:          144 b            0 skpd (  0.0%)    0.005 s ( 0.035 ms/b)
<df|fg>:           72 b            0 skpd (  0.0%)    0.006 s ( 0.089 ms/b)
<df|gg>:           24 b            0 skpd (  0.0%)    0.009 s ( 0.360 ms/b)
<dg|dg>:           36 b            0 skpd (  0.0%)    0.003 s ( 0.072 ms/b)
<dg|ff>:           48 b            0 skpd (  0.0%)    0.002 s ( 0.045 ms/b)
<dg|fg>:           24 b            0 skpd (  0.0%)    0.004 s ( 0.146 ms/b)
<dg|gg>:            8 b            0 skpd (  0.0%)    0.004 s ( 0.562 ms/b)
<ff|ff>:           21 b            0 skpd (  0.0%)    0.001 s ( 0.063 ms/b)
<ff|fg>:           18 b            0 skpd (  0.0%)    0.002 s ( 0.127 ms/b)
<ff|gg>:            6 b            0 skpd (  0.0%)    0.003 s ( 0.580 ms/b)
<fg|fg>:            6 b            0 skpd (  0.0%)    0.002 s ( 0.292 ms/b)
<fg|gg>:            3 b            0 skpd (  0.0%)    0.002 s ( 0.809 ms/b)
<gg|gg>:            1 b            0 skpd (  0.0%)    0.001 s ( 1.341 ms/b)
Recanonicalizing the internal orbitals
Recanonicalizing the virtual orbitals
Time needed for Fock operator              ...            0.572 sec
Reference energy                           ...  -3420.884041945
Warning: for UHF the TrafoType has to be JK
Warning: for UHF the K(C)-option cannot be MO but must be AOX

-------------------------------
PARTIAL EXCHANGE TRANSFORMATION
-------------------------------

Transformation type                        ... two-operators
Generation of integrals (i,mue|j,nue)      ... ON
Generation of integrals (mue,kappa|nue,tau)... ON
Generation of integrals (i,mue|a,nue)      ... ON
Dimension of the basis                     ...  112
Number of internal alpha-MOs               ...   16 (  14-  29)
Number of internal beta-MOs                ...   13 (  14-  26)
Number of external alpha-MOs               ...   82 (  30- 111)
Number of external beta-MOs                ...   85 (  27- 111)
Pair cutoff                                ... 0.000e+00 Eh
Number of AO pairs in the trafo            ... 6328
Total Number of distinct AO pairs          ... 6328
Memory devoted for trafo                   ... 2500.0 MB 
Max. Number of MO pairs treated together   ... 26122      
Number Format for Storage                  ... Double (8 Byte)
Integral package used                      ... LIBINT

Starting integral evaluation:
    ... done with AO integral generation
Closing buffer AOK[aa] ( 0.00 GB; CompressionRatio= 0.99)
Closing buffer AOK[bb] ( 0.00 GB; CompressionRatio= 0.99)
Closing buffer AOK[ab] ( 0.00 GB; CompressionRatio= 0.99)
Closing buffer AOK[ba] ( 0.00 GB; CompressionRatio= 0.99)
Collecting buffer AOK 
Closing buffer IAAO1[aa] ( 0.00 GB; CompressionRatio= 1.00)
Closing buffer IAAO1[bb] ( 0.00 GB; CompressionRatio= 1.00)
Closing buffer IAAO1[ab] ( 0.00 GB; CompressionRatio= 1.00)
Closing buffer IAAO1[ba] ( 0.00 GB; CompressionRatio= 1.00)
Closing buffer IAAO2[aa] ( 0.00 GB; CompressionRatio= 1.00)
Closing buffer IAAO2[bb] ( 0.00 GB; CompressionRatio= 1.00)
Closing buffer IAAO2[ab] ( 0.00 GB; CompressionRatio= 1.00)
Closing buffer IAAO2[ba] ( 0.00 GB; CompressionRatio= 1.00)
Collecting buffer IAAO 
Closing buffer PRQS    ( 0.01 GB; CompressionRatio= 1.00)
Collecting buffer PRQS 
Number of alpha/alpha MO pairs in trafo    ...  136
Number of beta /beta  MO pairs in trafo    ...   91
Number of alpha/ beta MO pairs in trafo    ...  208
------------------------
SORTING OF (i,mue|j,nue)
------------------------

SORTING OF ALPHA/ALPHA PAIRS
IBATCH = 1 of  1
Closing buffer KAO[aa] ( 0.00 GB; CompressionRatio= 1.00)
Collecting buffer KAO 
SORTING OF BETA /BETA  PAIRS
IBATCH = 1 of  1
Closing buffer KAO[bb] ( 0.00 GB; CompressionRatio= 1.00)
Collecting buffer KAO 
SORTING OF ALPHA/BETA  PAIRS
IBATCH = 1 of  1
Closing buffer KAO[ab] ( 0.00 GB; CompressionRatio= 0.999880435216)
Collecting buffer KAO[ab] 
------------------------
SORTING OF (i,mue|a,nue)
------------------------

Number of alpha/alpha (i,a) pairs in trafo  ... 1312
Number of beta /beta  (i,a) pairs in trafo  ... 1105
Number of alpha/ beta (i,a) pairs in trafo  ... 1360
Number of beta /alpha (i,a) pairs in trafo  ... 1066
Setting up the alpha/alpha list             ... done
Setting up the beta /beta  list             ... done
Setting up the alpha/beta  list             ... done
Setting up the beta /alpha list             ... done
    ... Now sorting (i,mue|a,nue)integrals
    ... Integrals (i,b|a,c) will be made on the fly
SORTING OF ALPHA/ALPHA PAIRS
IBATCH = 1 of  1
Closing buffer IPAQ[aa]  0.00 GB; CompressionRatio= 1.00)
SORTING OF BETA /BETA  PAIRS
IBATCH = 1 of  1
Closing buffer IPAQ[bb]( 0.00 GB; CompressionRatio= 1.00)
SORTING OF ALPHA/BETA  PAIRS (NMatSort_ab=57)
IBATCH = 1 of  1
Closing buffer IPAQ[ab]( 0.00 GB; CompressionRatio= 1.00)
SORTING OF BETA/ALPHA  PAIRS
IBATCH = 1 of  1
Closing buffer IPAQ[ba]( 0.00 GB; CompressionRatio= 1.00)
N(AO-Batches) Done                         ...     11930 
N(AO-Batches) Skipped                      ...         0 
N(IJ)-pairs Skipped                        ...         0 
TOTAL TIME for half transformation         ...     2.165 sec
AO-integral generation                     ...     0.154 sec
Half transformation                        ...     0.030 sec
K-integral sorting                         ...     1.121 sec
<ss|**>: 
------------------------------
PARTIAL COULOMB TRANSFORMATION
------------------------------

Transformation type                        ... two-operators
Dimension of the basis                     ...  112
Number of internal alpha-MOs               ...   16 (14-29)
Number of internal beta-MOs                ...   13 (14-26)
Pair cutoff                                ... 0.000e+00 Eh
Number of AO pairs included in the trafo   ... 6327
Total Number of distinct AO pairs          ... 6328
Memory devoted for trafo                   ... 2500.0 MB 
Max. Number of MO pairs treated together   ... 51782      
Max. Number of MOs treated per batch       ...  462      
Number Format for Storage                  ... Double (8 Byte)
AO-integral source                         ... DIRECT
Integral package used                      ... LIBINT

Starting integral evaluation:
<sp|**>:        41038 b        0 skpd     0.016 s (  0.000 ms/b)
<sd|**>:        65892 b        0 skpd     0.026 s (  0.000 ms/b)
       54332 b        0 skpd     0.048 s (  0.001 ms/b)
<sf|**>:        20808 b        0 skpd     0.019 s (  0.001 ms/b)
<sg|**>:         6936 b        0 skpd     0.027 s (  0.004 ms/b)
<pp|**>:        31212 b        0 skpd     0.041 s (  0.001 ms/b)
<pd|**>:        45662 b        0 skpd     0.084 s (  0.002 ms/b)
<pf|**>:        17340 b        0 skpd     0.034 s (  0.002 ms/b)
<pg|**>:         5780 b        0 skpd     0.042 s (  0.007 ms/b)
<dd|**>:        20808 b        0 skpd     0.102 s (  0.005 ms/b)
<df|**>:        13872 b        0 skpd     0.040 s (  0.003 ms/b)
<dg|**>:         4624 b        0 skpd     0.061 s (  0.013 ms/b)
<ff|**>:         3468 b        0 skpd     0.021 s (  0.006 ms/b)
<fg|**>:         1734 b        0 skpd     0.032 s (  0.018 ms/b)
<gg|**>:          578 b        0 skpd     0.046 s (  0.079 ms/b)
Closing buffer AOJ[aa] ( 0.00 GB; CompressionRatio= 0.99)
Closing buffer AOJ[bb] ( 0.00 GB; CompressionRatio= 0.00)
Collecting buffer AOJ 
    ... done with AO integral generation
Number of Alpha-MO pairs included          ...  136
Number of Beta-MO pairs included           ...   91
    ... Now sorting integrals
SORTING ALPHA/ALPHA PAIRS
IBATCH = 1 of  1
Closing buffer JAO[aa] ( 0.00 GB; CompressionRatio= 1.00)
SORTING BETA/BETA PAIRS
IBATCH = 1 of  1
Closing buffer JAO[bb] ( 0.00 GB; CompressionRatio= 1.00)
Collecting buffer JAO 
TOTAL TIME for half transformation         ...     0.679 sec
AO-integral generation                     ...     0.635 sec
Half transformation                        ...     0.016 sec
J-integral sorting                         ...     0.021 sec

-------------------------- SECOND HALF TRANSFORMATION -------------------------
Formation of (ij|kl),(ij|ka), (ij|ab)      ... ok (     0.102 sec)
Formation of (ik|jl),(ik|ja), (ia|jb)      ... ok (     0.158 sec)


-----------------------
SPIN UNRESTRICTED GUESS
-----------------------

Entering MDCI_UHF_Guess, Tailored=0
Spin-components of the MP2 energy:
EMP2(aa)=     -0.110528506
EMP2(bb)=     -0.073019771
EMP2(ab)=     -0.389142197

Initial guess performed in     0.067 sec
E(0)                                       ...  -3420.884041945
E(MP2)                                     ...     -0.572690474
Initial E(tot)                             ...  -3421.456732419
<T|T>                                      ...      0.148285506
Number of pairs included                   ... 406

------------------------------------------------
                  UHF COUPLED CLUSTER ITERATIONS
------------------------------------------------

Number of amplitudes to be optimized       ...      2136144

Iter       E(tot)           E(Corr)          Delta-E          Residual     Time      <S|S>**1/2
  0  -3421.456732419     -0.572690474      0.000000000      0.018171679    1.73      0.000000051
                           *** Turning on DIIS ***
  1  -3421.466852684     -0.582810739     -0.010120264      0.008281524    1.86      0.042014499
  2  -3421.478083443     -0.594041498     -0.011230760      0.008068395    1.89      0.055831262
  3  -3421.481009554     -0.596967609     -0.002926110      0.007320263    1.93      0.074643955
  4  -3421.482349654     -0.598307709     -0.001340100      0.006684175    1.92      0.090652593
  5  -3421.483604893     -0.599562948     -0.001255239      0.005599643    1.98      0.115369860
  6  -3421.484505536     -0.600463591     -0.000900643      0.004498520    2.00      0.139128503
  7  -3421.485427146     -0.601385201     -0.000921611      0.003083510    2.03      0.169799202
  8  -3421.486149490     -0.602107545     -0.000722344      0.001767809    2.02      0.199205511
  9  -3421.486471098     -0.602429153     -0.000321608      0.001160720    1.95      0.213341588
 10  -3421.486632079     -0.602590134     -0.000160981      0.000791198    1.94      0.222603237
 11  -3421.486751127     -0.602709182     -0.000119048      0.000515722    1.94      0.229705469
 12  -3421.486833363     -0.602791418     -0.000082236      0.000229214    2.05      0.235127150
 13  -3421.486889218     -0.602847273     -0.000055855      0.000063212    2.03      0.238662009
 14  -3421.486892044     -0.602850099     -0.000002826      0.000037649    2.01      0.238947648
 15  -3421.486897431     -0.602855486     -0.000005386      0.000028755    1.99      0.239122897
 16  -3421.486900666     -0.602858721     -0.000003235      0.000023632    1.95      0.239237196
 17  -3421.486905990     -0.602864045     -0.000005324      0.000016624    1.95      0.239390420
 18  -3421.486909838     -0.602867892     -0.000003848      0.000010852    2.00      0.239514449
 19  -3421.486912716     -0.602870771     -0.000002878      0.000006399    1.98      0.239608474
 20  -3421.486914363     -0.602872418     -0.000001647      0.000003854    1.95      0.239663132
 21  -3421.486914990     -0.602873045     -0.000000627      0.000002814    1.95      0.239685901
 22  -3421.486915453     -0.602873508     -0.000000463      0.000001844    1.94      0.239707030
 23  -3421.486915824     -0.602873879     -0.000000371      0.000001189    1.93      0.239726739
 24  -3421.486915947     -0.602874002     -0.000000123      0.000000521    1.96      0.239738939
               --- The Coupled-Cluster iterations have converged ---

----------------------
COUPLED CLUSTER ENERGY
----------------------

E(0)                                       ...  -3420.884041945
E(CORR)                                    ...     -0.602874002
E(TOT)                                     ...  -3421.486915947
Singles norm <S|S>**1/2                    ...      0.239738939 ( 0.211810485, 0.027928454)  
T1 diagnostic                              ...      0.044518403                              

------------------
LARGEST AMPLITUDES
------------------
  29a-> 32a  -1a-> -1a       0.331164
  29a-> 38a  -1a-> -1a       0.128046
  29a-> 35a  -1a-> -1a       0.095788
  26a-> 33a  25a-> 34a       0.060699
  26a-> 34a  25a-> 33a       0.060699
  29a-> 41a  -1a-> -1a       0.041134
  25a-> 36a  -1a-> -1a       0.037411
  26a-> 37a  -1a-> -1a       0.037411
  26a-> 33a  25a-> 40a       0.037128
  26a-> 40a  25a-> 33a       0.037128
  26a-> 34a  25a-> 39a       0.037128
  26a-> 39a  25a-> 34a       0.037128
  29a-> 44a  -1a-> -1a       0.030956
  28a-> 48a  26b-> 49b       0.030068
  27a-> 49a  25b-> 48b       0.030068
  28a-> 49a  26b-> 48b       0.030068

----------------------
UHF TRIPLES CORRECTION (Algorithm 1)
----------------------

Multiplier for the singles contribution    ...      1.000000000

SPIN-CASE Alpha-Alpha-Alpha:
10% done
20% done
30% done
40% done
50% done
60% done
70% done
80% done
90% done


SPIN-CASE Beta-Beta-Beta:
10% done
20% done
30% done
40% done
50% done
60% done
70% done
80% done
90% done


SPIN-CASE Alpha-Alpha-Beta:
10% done
20% done
30% done
40% done
50% done
60% done
70% done
80% done
90% done


SPIN-CASE Beta-Beta-Alpha:
10% done
20% done
30% done
40% done
50% done
60% done
70% done
80% done
90% done


Triples Correction (T)                     ...     -0.021453201
    alpha-alpha-alpha ... -0.001966532 (  9.2%)
    alpha-alpha-beta  ... -0.011621655 ( 54.2%)
    alpha-beta -beta  ... -0.007356373 ( 34.3%)
    beta -beta -beta  ... -0.000508642 (  2.4%)
Scaling of triples based on CCSD energies (Peterson et al. Molecular Physics 113, 1551 (2015))
E(T*) = f*E(T) where f = E(F12-CCSD)/E(CCSD) 
f = CCSD (with F12)/ CCSD (without F12)    ...      1.000000000
Scaled triples correction (T)              ...     -0.021453201

Final correlation energy                   ...     -0.624327203
E(CCSD)                                    ...  -3421.486915947
E(CCSD(T))                                 ...  -3421.508369148



        !!!!!!!!!!!!!!!!!!!!!!!!!!!!!!!!!!!!!!!!!!!!!!!!!!!!!!!!!!!!!!!!!!!!!!!!!! 
        !  Warning: Densities are linearized densities                           !
        !!!!!!!!!!!!!!!!!!!!!!!!!!!!!!!!!!!!!!!!!!!!!!!!!!!!!!!!!!!!!!!!!!!!!!!!!! 

NORM  =      1.342132487 sqrt=     1.158504418
W(HF) =      0.745082925
------------------------------------------------------------------------------
                           ORCA POPULATION ANALYSIS
------------------------------------------------------------------------------
Input electron density              ... 10_TiBr.mdcip
Input spin density                  ... 10_TiBr.mdcir
BaseName (.gbw .S,...)              ... 10_TiBr

                    ********************************
                    * MULLIKEN POPULATION ANALYSIS *
                    ********************************

------------------------------------------
MULLIKEN ATOMIC CHARGES AND SPIN DENSITIES
------------------------------------------
   0 Ti:    0.328148    3.067798
   1 Br:   -0.328148   -0.067798
Sum of atomic charges       :   -0.0000000
Sum of atomic spin densities:    3.0000000

---------------------------------------------------
MULLIKEN REDUCED ORBITAL CHARGES AND SPIN DENSITIES
---------------------------------------------------
CHARGE
  0 Tis       :     6.814344  s :     6.814344
      pz      :     4.094241  p :    12.142284
      px      :     4.024022
      py      :     4.024022
      dz2     :     0.455956  d :     2.662770
      dxz     :     0.115324
      dyz     :     0.115324
      dx2y2   :     0.988083
      dxy     :     0.988083
      f0      :     0.011808  f :     0.049029
      f+1     :     0.010492
      f-1     :     0.010492
      f+2     :     0.003074
      f-2     :     0.003074
      f+3     :     0.005046
      f-3     :     0.005046
      g0      :     0.000920  g :     0.003425
      g+1     :     0.000586
      g-1     :     0.000586
      g+2     :     0.000187
      g-2     :     0.000187
      g+3     :     0.000206
      g-3     :     0.000206
      g+4     :     0.000273
      g-4     :     0.000273
  1 Brs       :     7.913733  s :     7.913733
      pz      :     5.633197  p :    17.289495
      px      :     5.828149
      py      :     5.828149
      dz2     :     2.024299  d :    10.108729
      dxz     :     2.023005
      dyz     :     2.023005
      dx2y2   :     2.019210
      dxy     :     2.019210
      f0      :     0.003137  f :     0.016190
      f+1     :     0.002484
      f-1     :     0.002484
      f+2     :     0.002130
      f-2     :     0.002130
      f+3     :     0.001912
      f-3     :     0.001912

SPIN
  0 Tis       :     0.691468  s :     0.691468
      pz      :     0.040242  p :     0.079880
      px      :     0.019819
      py      :     0.019819
      dz2     :     0.292091  d :     2.282869
      dxz     :     0.023089
      dyz     :     0.023089
      dx2y2   :     0.972300
      dxy     :     0.972300
      f0      :     0.000573  f :     0.012633
      f+1     :     0.000405
      f-1     :     0.000405
      f+2     :     0.001474
      f-2     :     0.001474
      f+3     :     0.004151
      f-3     :     0.004151
      g0      :     0.000090  g :     0.000949
      g+1     :     0.000029
      g-1     :     0.000029
      g+2     :     0.000064
      g-2     :     0.000064
      g+3     :     0.000125
      g-3     :     0.000125
      g+4     :     0.000212
      g-4     :     0.000212
  1 Brs       :    -0.002706  s :    -0.002706
      pz      :    -0.029296  p :    -0.068245
      px      :    -0.019475
      py      :    -0.019475
      dz2     :     0.000950  d :     0.002681
      dxz     :     0.000341
      dyz     :     0.000341
      dx2y2   :     0.000525
      dxy     :     0.000525
      f0      :     0.000326  f :     0.000472
      f+1     :     0.000023
      f-1     :     0.000023
      f+2     :     0.000068
      f-2     :     0.000068
      f+3     :    -0.000017
      f-3     :    -0.000017


                     *******************************
                     * LOEWDIN POPULATION ANALYSIS *
                     *******************************

-----------------------------------------
LOEWDIN ATOMIC CHARGES AND SPIN DENSITIES
-----------------------------------------
   0 Ti:   -0.220108    3.034486
   1 Br:    0.220108   -0.034486

--------------------------------------------------
LOEWDIN REDUCED ORBITAL CHARGES AND SPIN DENSITIES
--------------------------------------------------
CHARGE
  0 Tis       :     6.788546  s :     6.788546
      pz      :     4.241409  p :    12.335491
      px      :     4.047041
      py      :     4.047041
      dz2     :     0.622393  d :     2.969418
      dxz     :     0.185910
      dyz     :     0.185910
      dx2y2   :     0.987603
      dxy     :     0.987603
      f0      :     0.046648  f :     0.120032
      f+1     :     0.028470
      f-1     :     0.028470
      f+2     :     0.003177
      f-2     :     0.003177
      f+3     :     0.005046
      f-3     :     0.005046
      g0      :     0.002723  g :     0.006620
      g+1     :     0.001277
      g-1     :     0.001277
      g+2     :     0.000192
      g-2     :     0.000192
      g+3     :     0.000206
      g-3     :     0.000206
      g+4     :     0.000273
      g-4     :     0.000273
  1 Brs       :     7.569578  s :     7.569578
      pz      :     5.635661  p :    17.073157
      px      :     5.718748
      py      :     5.718748
      dz2     :     2.041042  d :    10.120769
      dxz     :     2.020341
      dyz     :     2.020341
      dx2y2   :     2.019523
      dxy     :     2.019523
      f0      :     0.003635  f :     0.016388
      f+1     :     0.002275
      f-1     :     0.002275
      f+2     :     0.002189
      f-2     :     0.002189
      f+3     :     0.001912
      f-3     :     0.001912

SPIN
  0 Tis       :     0.638546  s :     0.638546
      pz      :     0.053894  p :     0.091846
      px      :     0.018976
      py      :     0.018976
      dz2     :     0.304994  d :     2.291487
      dxz     :     0.021535
      dyz     :     0.021535
      dx2y2   :     0.971712
      dxy     :     0.971712
      f0      :     0.000441  f :     0.011679
      f+1     :    -0.000027
      f-1     :    -0.000027
      f+2     :     0.001495
      f-2     :     0.001495
      f+3     :     0.004151
      f-3     :     0.004151
      g0      :     0.000097  g :     0.000928
      g+1     :     0.000015
      g-1     :     0.000015
      g+2     :     0.000063
      g-2     :     0.000063
      g+3     :     0.000125
      g-3     :     0.000125
      g+4     :     0.000212
      g-4     :     0.000212
  1 Brs       :     0.001629  s :     0.001629
      pz      :    -0.006942  p :    -0.040034
      px      :    -0.016546
      py      :    -0.016546
      dz2     :     0.000827  d :     0.003396
      dxz     :     0.000261
      dyz     :     0.000261
      dx2y2   :     0.001023
      dxy     :     0.001023
      f0      :     0.000251  f :     0.000523
      f+1     :     0.000016
      f-1     :     0.000016
      f+2     :     0.000137
      f-2     :     0.000137
      f+3     :    -0.000017
      f-3     :    -0.000017


                      *****************************
                      * MAYER POPULATION ANALYSIS *
                      *****************************

  NA   - Mulliken gross atomic population
  ZA   - Total nuclear charge
  QA   - Mulliken gross atomic charge
  VA   - Mayer's total valence
  BVA  - Mayer's bonded valence
  FA   - Mayer's free valence

  ATOM       NA         ZA         QA         VA         BVA        FA
  0 Ti    21.6719    22.0000     0.3281     4.6217     1.0727     3.5491
  1 Br    35.3281    35.0000    -0.3281     1.7654     1.0727     0.6928

  Mayer bond orders larger than 0.100000
B(  0-Ti,  1-Br) :   1.0727 



------------------------------------------------------------------------------- 
                                     TIMINGS                                   
------------------------------------------------------------------------------- 


Total execution time                   ...       60.143 sec

Fock Matrix Formation                  ...        0.572 sec (  1.0%)
Initial Guess                          ...        0.067 sec (  0.1%)
DIIS Solver                            ...        4.930 sec (  8.2%)
State Vector Update                    ...        0.225 sec (  0.4%)
Sigma-vector construction              ...       43.694 sec ( 72.7%)
  <0|H|D>                              ...        0.010 sec (  0.0% of sigma)
  <D|H|D>(0-ext Fock)                  ...        0.114 sec (  0.3% of sigma)
  <D|H|D>(0-ext)                       ...        0.781 sec (  1.8% of sigma)
  <D|H|D>(2-ext Fock)                  ...        0.023 sec (  0.1% of sigma)
  <D|H|D>(2-ext)                       ...        1.659 sec (  3.8% of sigma)
  <D|H|D>(4-ext)                       ...       17.744 sec ( 40.6% of sigma)
  <S|H|0>                              ...        3.415 sec (  7.8% of sigma)
  <S|H|S>                              ...        0.005 sec (  0.0% of sigma)
  <S|H|D>(1-ext)                       ...        0.028 sec (  0.1% of sigma)
  <D|H|S>(1-ext)                       ...        0.356 sec (  0.8% of sigma)
  Fock-dressing                        ...        7.294 sec ( 16.7% of sigma)
  (ik|jl)-dressing                     ...        1.110 sec (  2.5% of sigma)
  (ij|ab),(ia|jb)-dressing             ...        8.858 sec ( 20.3% of sigma)
  Pair energies                        ...        0.018 sec (  0.0% of sigma)
Total Time for computing (T)           ...        6.640 sec ( 11.0% of ALL)
  I/O of integral and amplitudes       ...        1.241 sec ( 18.7% of (T))
  External N**7 contributions          ...        1.754 sec ( 26.4% of (T))
  Internal N**7 contributions          ...        0.950 sec ( 14.3% of (T))
  N**6 triples energy contributions    ...        2.507 sec ( 37.8% of (T))

----- Orbital basis set information -----
Your calculation utilizes the basis: def2-QZVPP
   F. Weigend and R. Ahlrichs, Phys. Chem. Chem. Phys. 7, 3297 (2005).

----- AuxJ basis set information -----
Your calculation utilizes the auxiliary basis: def2/J
   F. Weigend, Phys. Chem. Chem. Phys. 8, 1057 (2006).

----- AuxC basis set information -----
Your calculation utilizes the auxiliary basis: def2-QZVPP/C
  H-La, Hf-Rn : A. Hellweg, C. Hattig, S. Hofener and W. Klopper, Theor. Chem. Acc. 117, 587 (2007).
        Ce-Lu : J. Chmela and M. E. Harding, Mol. Phys. (2018).

----- AuxJK basis set information -----
Your calculation utilizes the auxiliary basis: def2/JK
   H-Ba, Hf-Rn: F. Weigend, J. Comput. Chem. 29, 167 (2008).

All done

                     -----------------------------------------
                     Extrapolated Energy 2 Basis=  def2-QZVPP
                     -----------------------------------------

---------------------------------
CARTESIAN COORDINATES (ANGSTROEM)
---------------------------------
  Ti     0.000000    0.000000   -0.203733
  Br     0.000000    0.000000    2.203733

----------------------------
CARTESIAN COORDINATES (A.U.)
----------------------------
  NO LB      ZA    FRAG     MASS         X           Y           Z
   0 Ti   22.0000    0    47.900    0.000000    0.000000   -0.385000
   1 Br   35.0000    0    79.900    0.000000    0.000000    4.164452

--------------------------------
INTERNAL COORDINATES (ANGSTROEM)
--------------------------------
 Ti     0   0   0     0.000000000000     0.00000000     0.00000000
 Br     1   0   0     2.407466648291     0.00000000     0.00000000

---------------------------
INTERNAL COORDINATES (A.U.)
---------------------------
 Ti     0   0   0     0.000000000000     0.00000000     0.00000000
 Br     1   0   0     4.549452641820     0.00000000     0.00000000

---------------------
BASIS SET INFORMATION
---------------------
There are 2 groups of distinct atoms

 Group   1 Type Ti  : 24s18p9d3f2g contracted to 11s6p5d3f2g pattern {114111111111/951111/51111/111/11}
 Group   2 Type Br  : 24s20p10d4f1g contracted to 11s7p4d4f1g pattern {114111111111/10511111/7111/1111/1}

Atom   0Ti   basis set group =>   1
Atom   1Br   basis set group =>   2
---------------------------------
AUXILIARY/J BASIS SET INFORMATION
---------------------------------
There are 2 groups of distinct atoms

[...]
 13  -3421.876058747     -0.927059060     -0.000063052      0.000069182   10.35      0.249816556
 14  -3421.876057261     -0.927057574      0.000001486      0.000036668   10.11      0.249937377
 15  -3421.876061445     -0.927061758     -0.000004184      0.000017250   10.25      0.250108653
 16  -3421.876064197     -0.927064510     -0.000002752      0.000014071   10.18      0.250178907
 17  -3421.876069120     -0.927069432     -0.000004922      0.000008971   10.23      0.250339815
 18  -3421.876073471     -0.927073784     -0.000004351      0.000004300   10.37      0.250481133
 19  -3421.876075015     -0.927075328     -0.000001544      0.000002262   10.36      0.250540982
 20  -3421.876075801     -0.927076114     -0.000000786      0.000001280   10.27      0.250568187
 21  -3421.876076076     -0.927076389     -0.000000275      0.000000896   10.03      0.250577774
               --- The Coupled-Cluster iterations have converged ---

----------------------
COUPLED CLUSTER ENERGY
----------------------

E(0)                                       ...  -3420.948999687
E(CORR)                                    ...     -0.927076389
E(TOT)                                     ...  -3421.876076076
Singles norm <S|S>**1/2                    ...      0.250577774 ( 0.224110890, 0.026466884)  
T1 diagnostic                              ...      0.046531124                              

------------------
LARGEST AMPLITUDES
------------------
  29a-> 32a  -1a-> -1a       0.294529
  29a-> 34a  -1a-> -1a       0.215785
  29a-> 43a  -1a-> -1a       0.107793
  29a-> 44a  -1a-> -1a       0.089778
  29a-> 45a  -1a-> -1a       0.041512
  26a-> 38a  25a-> 37a       0.037335
  26a-> 37a  25a-> 38a       0.037335
  29a-> 58a  -1a-> -1a       0.035511
  26a-> 42a  25a-> 37a       0.028513
  26a-> 37a  25a-> 42a       0.028513
  26a-> 38a  25a-> 41a       0.028513
  26a-> 41a  25a-> 38a       0.028513
  29a-> 33a  -1a-> -1a       0.028256
  26a-> 40a  -1a-> -1a       0.026310
  25a-> 39a  -1a-> -1a       0.026310
  26a-> 41a  25a-> 42a       0.025499

----------------------
UHF TRIPLES CORRECTION (Algorithm 1)
----------------------

Multiplier for the singles contribution    ...      1.000000000

SPIN-CASE Alpha-Alpha-Alpha:
10% done
20% done
30% done
40% done
50% done
60% done
70% done
80% done
90% done


SPIN-CASE Beta-Beta-Beta:
10% done
20% done
30% done
40% done
50% done
60% done
70% done
80% done
90% done


SPIN-CASE Alpha-Alpha-Beta:
10% done
20% done
30% done
40% done
50% done
60% done
70% done
80% done
90% done


SPIN-CASE Beta-Beta-Alpha:
10% done
20% done
30% done
40% done
50% done
60% done
70% done
80% done
90% done


Triples Correction (T)                     ...     -0.027439625
    alpha-alpha-alpha ... -0.002297120 (  8.4%)
    alpha-alpha-beta  ... -0.014523598 ( 52.9%)
    alpha-beta -beta  ... -0.009886271 ( 36.0%)
    beta -beta -beta  ... -0.000732636 (  2.7%)
Scaling of triples based on CCSD energies (Peterson et al. Molecular Physics 113, 1551 (2015))
E(T*) = f*E(T) where f = E(F12-CCSD)/E(CCSD) 
f = CCSD (with F12)/ CCSD (without F12)    ...      1.000000000
Scaled triples correction (T)              ...     -0.027439625

Final correlation energy                   ...     -0.954516013
E(CCSD)                                    ...  -3421.876076076
E(CCSD(T))                                 ...  -3421.903515700



        !!!!!!!!!!!!!!!!!!!!!!!!!!!!!!!!!!!!!!!!!!!!!!!!!!!!!!!!!!!!!!!!!!!!!!!!!! 
        !  Warning: Densities are linearized densities                           !
        !!!!!!!!!!!!!!!!!!!!!!!!!!!!!!!!!!!!!!!!!!!!!!!!!!!!!!!!!!!!!!!!!!!!!!!!!! 

NORM  =      1.370436749 sqrt=     1.170656546
W(HF) =      0.729694385
------------------------------------------------------------------------------
                           ORCA POPULATION ANALYSIS
------------------------------------------------------------------------------
Input electron density              ... 10_TiBr.mdcip
Input spin density                  ... 10_TiBr.mdcir
BaseName (.gbw .S,...)              ... 10_TiBr

                    ********************************
                    * MULLIKEN POPULATION ANALYSIS *
                    ********************************

------------------------------------------
MULLIKEN ATOMIC CHARGES AND SPIN DENSITIES
------------------------------------------
   0 Ti:    0.397842    3.065791
   1 Br:   -0.397842   -0.065791
Sum of atomic charges       :   -0.0000000
Sum of atomic spin densities:    3.0000000

---------------------------------------------------
MULLIKEN REDUCED ORBITAL CHARGES AND SPIN DENSITIES
---------------------------------------------------
CHARGE
  0 Tis       :     6.782045  s :     6.782045
      pz      :     4.068223  p :    12.106635
      px      :     4.019206
      py      :     4.019206
      dz2     :     0.453884  d :     2.651814
      dxz     :     0.109859
      dyz     :     0.109859
      dx2y2   :     0.989105
      dxy     :     0.989105
      f0      :     0.010016  f :     0.052717
      f+1     :     0.012256
      f-1     :     0.012256
      f+2     :     0.003493
      f-2     :     0.003493
      f+3     :     0.005601
      f-3     :     0.005601
      g0      :     0.001962  g :     0.008947
      g+1     :     0.002274
      g-1     :     0.002274
      g+2     :     0.000428
      g-2     :     0.000428
      g+3     :     0.000367
      g-3     :     0.000367
      g+4     :     0.000424
      g-4     :     0.000424
  1 Brs       :     7.945765  s :     7.945765
      pz      :     5.655732  p :    17.318350
      px      :     5.831309
      py      :     5.831309
      dz2     :     2.022424  d :    10.092089
      dxz     :     2.019448
      dyz     :     2.019448
      dx2y2   :     2.015385
      dxy     :     2.015385
      f0      :     0.006689  f :     0.037703
      f+1     :     0.005785
      f-1     :     0.005785
      f+2     :     0.005094
      f-2     :     0.005094
      f+3     :     0.004628
      f-3     :     0.004628
      g0      :     0.000612  g :     0.003935
      g+1     :     0.000487
      g-1     :     0.000487
      g+2     :     0.000432
      g-2     :     0.000432
      g+3     :     0.000382
      g-3     :     0.000382
      g+4     :     0.000361
      g-4     :     0.000361

SPIN
  0 Tis       :     0.689083  s :     0.689083
      pz      :     0.028982  p :     0.067751
      px      :     0.019384
      py      :     0.019384
      dz2     :     0.307551  d :     2.294531
      dxz     :     0.020389
      dyz     :     0.020389
      dx2y2   :     0.973101
      dxy     :     0.973101
      f0      :     0.000549  f :     0.013279
      f+1     :     0.000292
      f-1     :     0.000292
      f+2     :     0.001601
      f-2     :     0.001601
      f+3     :     0.004473
      f-3     :     0.004473
      g0      :     0.000134  g :     0.001147
      g+1     :    -0.000085
      g-1     :    -0.000085
      g+2     :     0.000097
      g-2     :     0.000097
      g+3     :     0.000187
      g-3     :     0.000187
      g+4     :     0.000307
      g-4     :     0.000307
  1 Brs       :    -0.003425  s :    -0.003425
      pz      :    -0.031381  p :    -0.066885
      px      :    -0.017752
      py      :    -0.017752
      dz2     :     0.001237  d :     0.002991
      dxz     :     0.000302
      dyz     :     0.000302
      dx2y2   :     0.000575
      dxy     :     0.000575
      f0      :     0.000768  f :     0.001362
      f+1     :     0.000064
      f-1     :     0.000064
      f+2     :     0.000247
      f-2     :     0.000247
      f+3     :    -0.000014
      f-3     :    -0.000014
      g0      :     0.000096  g :     0.000167
      g+1     :     0.000008
      g-1     :     0.000008
      g+2     :     0.000026
      g-2     :     0.000026
      g+3     :     0.000001
      g-3     :     0.000001
      g+4     :     0.000000
      g-4     :     0.000000


                     *******************************
                     * LOEWDIN POPULATION ANALYSIS *
                     *******************************

-----------------------------------------
LOEWDIN ATOMIC CHARGES AND SPIN DENSITIES
-----------------------------------------
   0 Ti:   -0.384240    3.021925
   1 Br:    0.384240   -0.021925

--------------------------------------------------
LOEWDIN REDUCED ORBITAL CHARGES AND SPIN DENSITIES
--------------------------------------------------
CHARGE
  0 Tis       :     6.769255  s :     6.769255
      pz      :     4.241268  p :    12.346233
      px      :     4.052482
      py      :     4.052482
      dz2     :     0.645054  d :     3.007382
      dxz     :     0.192932
      dyz     :     0.192932
      dx2y2   :     0.988232
      dxy     :     0.988232
      f0      :     0.066566  f :     0.190199
      f+1     :     0.052486
      f-1     :     0.052486
      f+2     :     0.003729
      f-2     :     0.003729
      f+3     :     0.005601
      f-3     :     0.005601
      g0      :     0.022218  g :     0.071171
      g+1     :     0.023041
      g-1     :     0.023041
      g+2     :     0.000641
      g-2     :     0.000641
      g+3     :     0.000370
      g-3     :     0.000370
      g+4     :     0.000424
      g-4     :     0.000424
  1 Brs       :     7.533813  s :     7.533813
      pz      :     5.616382  p :    16.934720
      px      :     5.659169
      py      :     5.659169
      dz2     :     2.033884  d :    10.093396
      dxz     :     2.014477
      dyz     :     2.014477
      dx2y2   :     2.015279
      dxy     :     2.015279
      f0      :     0.017423  f :     0.048905
      f+1     :     0.005551
      f-1     :     0.005551
      f+2     :     0.005565
      f-2     :     0.005565
      f+3     :     0.004624
      f-3     :     0.004624
      g0      :     0.001490  g :     0.004926
      g+1     :     0.000485
      g-1     :     0.000485
      g+2     :     0.000491
      g-2     :     0.000491
      g+3     :     0.000381
      g-3     :     0.000381
      g+4     :     0.000361
      g-4     :     0.000361

SPIN
  0 Tis       :     0.619769  s :     0.619769
      pz      :     0.046543  p :     0.084243
      px      :     0.018850
      py      :     0.018850
      dz2     :     0.323434  d :     2.305914
      dxz     :     0.019126
      dyz     :     0.019126
      dx2y2   :     0.972113
      dxy     :     0.972113
      f0      :     0.000352  f :     0.011607
      f+1     :    -0.000501
      f-1     :    -0.000501
      f+2     :     0.001657
      f-2     :     0.001657
      f+3     :     0.004472
      f-3     :     0.004472
      g0      :     0.000113  g :     0.000392
      g+1     :    -0.000448
      g-1     :    -0.000448
      g+2     :     0.000094
      g-2     :     0.000094
      g+3     :     0.000187
      g-3     :     0.000187
      g+4     :     0.000307
      g-4     :     0.000307
  1 Brs       :     0.004907  s :     0.004907
      pz      :    -0.002899  p :    -0.031717
      px      :    -0.014409
      py      :    -0.014409
      dz2     :     0.000586  d :     0.002355
      dxz     :    -0.000022
      dyz     :    -0.000022
      dx2y2   :     0.000906
      dxy     :     0.000906
      f0      :     0.000640  f :     0.002203
      f+1     :     0.000005
      f-1     :     0.000005
      f+2     :     0.000790
      f-2     :     0.000790
      f+3     :    -0.000013
      f-3     :    -0.000013
      g0      :     0.000149  g :     0.000327
      g+1     :     0.000001
      g-1     :     0.000001
      g+2     :     0.000087
      g-2     :     0.000087
      g+3     :     0.000001
      g-3     :     0.000001
      g+4     :     0.000000
      g-4     :     0.000000


                      *****************************
                      * MAYER POPULATION ANALYSIS *
                      *****************************

  NA   - Mulliken gross atomic population
  ZA   - Total nuclear charge
  QA   - Mulliken gross atomic charge
  VA   - Mayer's total valence
  BVA  - Mayer's bonded valence
  FA   - Mayer's free valence

  ATOM       NA         ZA         QA         VA         BVA        FA
  0 Ti    21.6022    22.0000     0.3978     4.5319     0.9907     3.5412
  1 Br    35.3978    35.0000    -0.3978     1.7705     0.9907     0.7798

  Mayer bond orders larger than 0.100000
B(  0-Ti,  1-Br) :   0.9907 



------------------------------------------------------------------------------- 
                                     TIMINGS                                   
------------------------------------------------------------------------------- 


Total execution time                   ...      293.664 sec

Fock Matrix Formation                  ...        2.051 sec (  0.7%)
Initial Guess                          ...        0.213 sec (  0.1%)
DIIS Solver                            ...       15.469 sec (  5.3%)
State Vector Update                    ...        0.665 sec (  0.2%)
Sigma-vector construction              ...      205.851 sec ( 70.1%)
  <0|H|D>                              ...        0.034 sec (  0.0% of sigma)
  <D|H|D>(0-ext Fock)                  ...        0.401 sec (  0.2% of sigma)
  <D|H|D>(0-ext)                       ...        2.687 sec (  1.3% of sigma)
  <D|H|D>(2-ext Fock)                  ...        0.101 sec (  0.0% of sigma)
  <D|H|D>(2-ext)                       ...        7.490 sec (  3.6% of sigma)
  <D|H|D>(4-ext)                       ...       89.185 sec ( 43.3% of sigma)
  <S|H|0>                              ...       30.949 sec ( 15.0% of sigma)
  <S|H|S>                              ...        0.008 sec (  0.0% of sigma)
  <S|H|D>(1-ext)                       ...        0.077 sec (  0.0% of sigma)
  <D|H|S>(1-ext)                       ...        1.044 sec (  0.5% of sigma)
  Fock-dressing                        ...       32.831 sec ( 15.9% of sigma)
  (ik|jl)-dressing                     ...        3.177 sec (  1.5% of sigma)
  (ij|ab),(ia|jb)-dressing             ...       31.615 sec ( 15.4% of sigma)
  Pair energies                        ...        0.048 sec (  0.0% of sigma)
Total Time for computing (T)           ...       51.371 sec ( 17.5% of ALL)
  I/O of integral and amplitudes       ...        6.356 sec ( 12.4% of (T))
  External N**7 contributions          ...       19.391 sec ( 37.7% of (T))
  Internal N**7 contributions          ...        5.942 sec ( 11.6% of (T))
  N**6 triples energy contributions    ...       18.032 sec ( 35.1% of (T))


-------------------
EXTRAPOLATED ENERGY
-------------------


-----------------------------------------------------------------
                      EP1 - MDCI extrapolation:
-----------------------------------------------------------------
NOTE: We use as reference SCF energy, for the extrapolation, the one from the MDCI module and not the one 
from the SCF calculation. In case the first step is a DFT calculation these two might be different.

NOTE: For the SCF part we extrapolate based on the scheme proposed in J. Chem. Phys. 2008, 129, 184116
using the exponents from J. Chem. Theory Comput., 7, 33-43 (2011)

NOTE: For the correlation part we extrapolate based on the scheme proposed in J. Chem. Phys. 1997, 106, 9639
using the exponents from J. Chem. Theory Comput., 7, 33-43 (2011)


Alpha(3/4)     :  7.880 (SCF Extrapolation)
Beta(3/4)      :  2.970 (correlation extrapolation)

SCF energy with basis def2-TZVPP:                     -3420.884041945
SCF energy with basis def2-QZVPP:                     -3420.948999687
Extrapolated CBS SCF energy (3/4) :                   -3420.957946881 (-0.008947194) 

MDCI energy with basis def2-TZVPP:                       -0.624327203
MDCI energy with basis def2-QZVPP:                       -0.954516013
Extrapolated CBS correlation energy (3/4) :              -1.199100136 (-0.244584122)

Estimated CBS total energy (3/4) :                    -3422.157047017



-------------------------   --------------------
FINAL SINGLE POINT ENERGY     -3422.157047016895
-------------------------   --------------------


                            ***************************************
                            *     ORCA property calculations      *
                            ***************************************

                                    ---------------------
                                    Active property flags
                                    ---------------------
   (+) Dipole Moment


------------------------------------------------------------------------------
                       ORCA ELECTRIC PROPERTIES CALCULATION
------------------------------------------------------------------------------

Dipole Moment Calculation                       ... on
Quadrupole Moment Calculation                   ... off
Polarizability Calculation                      ... off
GBWName                                         ... 10_TiBr.gbw
Electron density file                           ... 10_TiBr.scfp
The origin for moment calculation is the CENTER OF MASS  = ( 0.000000,  0.000000  2.459298)

-------------
DIPOLE MOMENT
-------------
                                X             Y             Z
Electronic contribution:     -0.00000      -0.00000       1.57596
Nuclear contribution   :      0.00000       0.00000      -2.89414
                        -----------------------------------------
Total Dipole Moment    :     -0.00000      -0.00000      -1.31818
                        -----------------------------------------
Magnitude (a.u.)       :      1.31818
Magnitude (Debye)      :      3.35055



--------------------
Rotational spectrum 
--------------------
 
Rotational constants in cm-1:     0.000000     0.097124     0.097124 
Rotational constants in MHz :     0.000000  2911.693161  2911.693161 

 Dipole components along the rotational axes: 
x,y,z [a.u.] :    -1.318179    -0.000000    -0.000000 
x,y,z [Debye]:    -3.350546    -0.000000    -0.000000 

 

                           *** MDCI DENSITY ***

------------------------------------------------------------------------------
                       ORCA ELECTRIC PROPERTIES CALCULATION
------------------------------------------------------------------------------

Dipole Moment Calculation                       ... on
Quadrupole Moment Calculation                   ... off
Polarizability Calculation                      ... off
GBWName                                         ... 10_TiBr.gbw
Electron density file                           ... 10_TiBr.mdcip
The origin for moment calculation is the CENTER OF MASS  = ( 0.000000,  0.000000  2.459298)

-------------
DIPOLE MOMENT
-------------
                                X             Y             Z
Electronic contribution:      0.00000       0.00000       0.87909
Nuclear contribution   :      0.00000       0.00000      -2.89414
                        -----------------------------------------
Total Dipole Moment    :      0.00000       0.00000      -2.01505
                        -----------------------------------------
Magnitude (a.u.)       :      2.01505
Magnitude (Debye)      :      5.12184



--------------------
Rotational spectrum 
--------------------
 
Rotational constants in cm-1:     0.000000     0.097124     0.097124 
Rotational constants in MHz :     0.000000  2911.693161  2911.693161 

 Dipole components along the rotational axes: 
x,y,z [a.u.] :    -2.015047     0.000000     0.000000 
x,y,z [Debye]:    -5.121842     0.000000     0.000000 

 

Timings for individual modules:

Sum of individual times         ...      379.741 sec (=   6.329 min)
GTO integral calculation        ...        2.203 sec (=   0.037 min)   0.6 %
SCF iterations                  ...       20.676 sec (=   0.345 min)   5.4 %
MDCI module                     ...      356.861 sec (=   5.948 min)  94.0 %
                             ****ORCA TERMINATED NORMALLY****
TOTAL RUN TIME: 0 days 0 hours 6 minutes 21 seconds 67 msec
