
                                 *****************
                                 * O   R   C   A *
                                 *****************

           --- An Ab Initio, DFT and Semiempirical electronic structure package ---

                  #######################################################
                  #                        -***-                        #
                  #          Department of theory and spectroscopy      #
                  #               Directorship: Frank Neese             #
                  #        Max Planck Institute fuer Kohlenforschung    #
                  #                Kaiser Wilhelm Platz 1               #
                  #                 D-45470 Muelheim/Ruhr               #
                  #                      Germany                        #
                  #                                                     #
                  #                  All rights reserved                #
                  #                        -***-                        #
                  #######################################################


                         Program Version 4.2.0 -  RELEASE  -


 With contributions from (in alphabetic order):
   Daniel Aravena         : Magnetic Suceptibility
   Michael Atanasov       : Ab Initio Ligand Field Theory (pilot matlab implementation)
   Alexander A. Auer      : GIAO ZORA, VPT2
   Ute Becker             : Parallelization
   Giovanni Bistoni       : ED, misc. LED, open-shell LED, HFLED
   Martin Brehm           : Molecular dynamics
   Dmytro Bykov           : SCF Hessian
   Vijay G. Chilkuri      : MRCI spin determinant printing, contributions to CSF-ICE
   Dipayan Datta          : RHF DLPNO-CCSD density
   Achintya Kumar Dutta   : EOM-CC, STEOM-CC
   Dmitry Ganyushin       : Spin-Orbit,Spin-Spin,Magnetic field MRCI
   Miquel Garcia          : C-PCM Hessian, Gaussian charge scheme
   Yang Guo               : DLPNO-NEVPT2, CIM, IAO-localization
   Andreas Hansen         : Spin unrestricted coupled pair/coupled cluster methods
   Benjamin Helmich-Paris : CASSCF linear response (MC-RPA)
   Lee Huntington         : MR-EOM, pCC
   Robert Izsak           : Overlap fitted RIJCOSX, COSX-SCS-MP3, EOM
   Christian Kollmar      : KDIIS, OOCD, Brueckner-CCSD(T), CCSD density
   Simone Kossmann        : Meta GGA functionals, TD-DFT gradient, OOMP2, MP2 Hessian
   Martin Krupicka        : AUTO-CI
   Lucas Lang             : DCDCAS
   Dagmar Lenk            : GEPOL surface, SMD
   Dimitrios Liakos       : Extrapolation schemes; Compound Job, initial MDCI parallelization
   Dimitrios Manganas     : Further ROCIS development; embedding schemes
   Dimitrios Pantazis     : SARC Basis sets
   Taras Petrenko         : DFT Hessian,TD-DFT gradient, ASA, ECA, R-Raman, ABS, FL, XAS/XES, NRVS
   Peter Pinski           : DLPNO-MP2, DLPNO-MP2 Gradient
   Christoph Reimann      : Effective Core Potentials
   Marius Retegan         : Local ZFS, SOC
   Christoph Riplinger    : Optimizer, TS searches, QM/MM, DLPNO-CCSD(T), (RO)-DLPNO pert. Triples
   Tobias Risthaus        : Range-separated hybrids, TD-DFT gradient, RPA, STAB
   Michael Roemelt        : Original ROCIS implementation
   Masaaki Saitow         : Open-shell DLPNO-CCSD energy and density
   Barbara Sandhoefer     : DKH picture change effects
   Avijit Sen             : IP-ROCIS
   Kantharuban Sivalingam : CASSCF convergence, NEVPT2, FIC-MRCI
   Bernardo de Souza      : ESD, SOC TD-DFT
   Georgi Stoychev        : AutoAux, RI-MP2 NMR
   Willem Van den Heuvel  : Paramagnetic NMR
   Boris Wezisla          : Elementary symmetry handling
   Frank Wennmohs         : Technical directorship


 We gratefully acknowledge several colleagues who have allowed us to
 interface, adapt or use parts of their codes:
   Stefan Grimme, W. Hujo, H. Kruse,             : VdW corrections, initial TS optimization,
                  C. Bannwarth                     DFT functionals, gCP, sTDA/sTD-DF
   Ed Valeev, F. Pavosevic, A. Kumar             : LibInt (2-el integral package), F12 methods
   Garnet Chan, S. Sharma, J. Yang, R. Olivares  : DMRG
   Ulf Ekstrom                                   : XCFun DFT Library
   Mihaly Kallay                                 : mrcc  (arbitrary order and MRCC methods)
   Andreas Klamt, Michael Diedenhofen            : otool_cosmo (COSMO solvation model)
   Jiri Pittner, Ondrej Demel                    : Mk-CCSD
   Frank Weinhold                                : gennbo (NPA and NBO analysis)
   Christopher J. Cramer and Donald G. Truhlar   : smd solvation model
   Lars Goerigk                                  : TD-DFT with DH, B97 family of functionals
   V. Asgeirsson, H. Jonsson                     : NEB implementation
   FAccTs GmbH                                   : IRC, NEB, NEB-TS, Multilevel, MM, QM/MM, CI optimization
   S Lehtola, MJT Oliveira, MAL Marques          : LibXC Library


 Your calculation uses the libint2 library for the computation of 2-el integrals
 For citations please refer to: http://libint.valeyev.net

 Your ORCA version has been built with support for libXC version: 4.2.3
 For citations please refer to: https://tddft.org/programs/libxc/

 This ORCA versions uses:
   CBLAS   interface :  Fast vector & matrix operations
   LAPACKE interface :  Fast linear algebra routines
   SCALAPACK package :  Parallel linear algebra routines


----- Orbital basis set information -----
Your calculation utilizes the basis: def2-TZVPP
   F. Weigend and R. Ahlrichs, Phys. Chem. Chem. Phys. 7, 3297 (2005).

================================================================================
                                        WARNINGS
                       Please study these warnings very carefully!
================================================================================


WARNING: your system is open-shell and RHF/RKS was chosen
  ===> : WILL SWITCH to UHF/UKS


WARNING: MDCI localization with Augmented Hessian Foster-Boys
  ===> : Switching off randomization!

WARNING: Post HF methods need fully converged wavefunctions
  ===> : Setting SCFConvForced true
         You can overwrite this default with %scf ConvForced false 


INFO   : the flag for use of LIBINT has been found!

================================================================================
                                       INPUT FILE
================================================================================
NAME = 11_TiO.in
|  1> #
|  2> # 11_TiO ccsd(t)/cbs
|  3> #
|  4> ! ccsd(t) extrapolate(3/4,def2) verytightscf
|  5> 
|  6> *xyz 0 3
|  7>   Ti  0.00000000000000      0.00000000000000      0.18878211244980
|  8>   O   0.00000000000000      0.00000000000000      1.81121788755020
|  9> *
| 10> 
| 11> %maxcore 5000
| 12> %pal
| 13> nprocs 24
| 14> end
| 15> 
| 16> 
| 17>                          ****END OF INPUT****
================================================================================

                   *****************************************
                   * Extrapolated Single Point Calculation *
                   *****************************************

----- Orbital basis set information -----
Your calculation utilizes the basis: def2-TZVPP
   F. Weigend and R. Ahlrichs, Phys. Chem. Chem. Phys. 7, 3297 (2005).

----- AuxJ basis set information -----
Your calculation utilizes the auxiliary basis: def2/J
   F. Weigend, Phys. Chem. Chem. Phys. 8, 1057 (2006).

----- AuxC basis set information -----
Your calculation utilizes the auxiliary basis: def2-TZVPP/C
  H-La, Hf-Rn : A. Hellweg, C. Hattig, S. Hofener and W. Klopper, Theor. Chem. Acc. 117, 587 (2007).
        Ce-Lu : J. Chmela and M. E. Harding, Mol. Phys. (2018).

----- AuxJK basis set information -----
Your calculation utilizes the auxiliary basis: def2/JK
   H-Ba, Hf-Rn: F. Weigend, J. Comput. Chem. 29, 167 (2008).

All done

                     -----------------------------------------
                     Extrapolated Energy 1 Basis=  def2-TZVPP
                     -----------------------------------------

---------------------------------
CARTESIAN COORDINATES (ANGSTROEM)
---------------------------------
  Ti     0.000000    0.000000    0.188782
  O      0.000000    0.000000    1.811218

----------------------------
CARTESIAN COORDINATES (A.U.)
----------------------------
  NO LB      ZA    FRAG     MASS         X           Y           Z
   0 Ti   22.0000    0    47.900    0.000000    0.000000    0.356746
   1 O     8.0000    0    15.999    0.000000    0.000000    3.422706

--------------------------------
INTERNAL COORDINATES (ANGSTROEM)
--------------------------------
 Ti     0   0   0     0.000000000000     0.00000000     0.00000000
 O      1   0   0     1.622435775100     0.00000000     0.00000000

---------------------------
INTERNAL COORDINATES (A.U.)
---------------------------
 Ti     0   0   0     0.000000000000     0.00000000     0.00000000
 O      1   0   0     3.065959284816     0.00000000     0.00000000

---------------------
BASIS SET INFORMATION
---------------------
There are 2 groups of distinct atoms

 Group   1 Type Ti  : 17s12p7d2f1g contracted to 6s5p4d2f1g pattern {842111/63111/4111/11/1}
 Group   2 Type O   : 11s6p2d1f contracted to 5s3p2d1f pattern {62111/411/11/1}

Atom   0Ti   basis set group =>   1
Atom   1O    basis set group =>   2
---------------------------------
AUXILIARY/J BASIS SET INFORMATION
---------------------------------
There are 2 groups of distinct atoms

 Group   1 Type Ti  : 19s5p5d3f3g contracted to 8s5p5d2f3g pattern {121111111/11111/11111/21/111}
 Group   2 Type O   : 12s5p4d2f1g contracted to 6s4p3d1f1g pattern {711111/2111/211/2/1}

Atom   0Ti   basis set group =>   1
Atom   1O    basis set group =>   2
---------------------------------
AUXILIARY/C BASIS SET INFORMATION
---------------------------------
There are 2 groups of distinct atoms

 Group   1 Type Ti  : 9s9p8d7f5g3h1i contracted to 9s9p8d7f5g3h1i pattern {111111111/111111111/11111111/1111111/11111/111/1}
 Group   2 Type O   : 8s6p5d3f1g contracted to 8s6p4d3f1g pattern {11111111/111111/2111/111/1}

Atom   0Ti   basis set group =>   1
Atom   1O    basis set group =>   2
----------------------------------
AUXILIARY/JK BASIS SET INFORMATION
----------------------------------
There are 2 groups of distinct atoms

 Group   1 Type Ti  : 19s14p12d10f7g3h1i contracted to 16s13p11d9f5g3h1i pattern {4111111111111111/2111111111111/21111111111/211111111/31111/111/1}
 Group   2 Type O   : 14s10p6d2f1g contracted to 10s8p4d2f1g pattern {5111111111/31111111/3111/11/1}

Atom   0Ti   basis set group =>   1
Atom   1O    basis set group =>   2


           ************************************************************
           *        Program running with 24 parallel MPI-processes    *
           *              working on a common directory               *
           ************************************************************
------------------------------------------------------------------------------
                           ORCA GTO INTEGRAL CALCULATION
------------------------------------------------------------------------------

                         BASIS SET STATISTICS AND STARTUP INFO

 # of primitive gaussian shells          ...   59
 # of primitive gaussian functions       ...  157
 # of contracted shells                  ...   29
 # of contracted basis functions         ...   95
 Highest angular momentum                ...    4
 Maximum contraction depth               ...    8
 Integral package used                   ... LIBINT
 Integral threshhold            Thresh   ...  1.000e-12
 Primitive cut-off              TCut     ...  1.000e-14


------------------------------ INTEGRAL EVALUATION ----------------------------


 * One electron integrals 
 Pre-screening matrix                    ... done
 Shell pair data                         ... done (   0.000 sec)



           ************************************************************
           *        Program running with 24 parallel MPI-processes    *
           *              working on a common directory               *
           ************************************************************
-------------------------------------------------------------------------------
                                 ORCA SCF
-------------------------------------------------------------------------------

------------
SCF SETTINGS
------------
Hamiltonian:
 Ab initio Hamiltonian  Method          .... Hartree-Fock(GTOs)


General Settings:
 Integral files         IntName         .... 11_TiO
 Hartree-Fock type      HFTyp           .... UHF
 Total Charge           Charge          ....    0
 Multiplicity           Mult            ....    3
 Number of Electrons    NEL             ....   30
 Basis Dimension        Dim             ....   95
 Nuclear Repulsion      ENuc            ....     57.4045457393 Eh

Convergence Acceleration:
 DIIS                   CNVDIIS         .... on
   Start iteration      DIISMaxIt       ....    12
   Startup error        DIISStart       ....  0.200000
   # of expansion vecs  DIISMaxEq       ....     5
   Bias factor          DIISBfac        ....   1.050
   Max. coefficient     DIISMaxC        ....  10.000
 Newton-Raphson         CNVNR           .... off
 SOSCF                  CNVSOSCF        .... off
 Level Shifting         CNVShift        .... on
   Level shift para.    LevelShift      ....    0.2500
   Turn off err/grad.   ShiftErr        ....    0.0010
 Zerner damping         CNVZerner       .... off
 Static damping         CNVDamp         .... on
   Fraction old density DampFac         ....    0.7000
   Max. Damping (<1)    DampMax         ....    0.9800
   Min. Damping (>=0)   DampMin         ....    0.0000
   Turn off err/grad.   DampErr         ....    0.1000
 Fernandez-Rico         CNVRico         .... off

SCF Procedure:
 Maximum # iterations   MaxIter         ....   125
 SCF integral mode      SCFMode         .... Direct
   Integral package                     .... LIBINT
 Reset frequency        DirectResetFreq ....    20
 Integral Threshold     Thresh          ....  1.000e-12 Eh
 Primitive CutOff       TCut            ....  1.000e-14 Eh

Convergence Tolerance:
 Convergence Check Mode ConvCheckMode   .... Total+1el-Energy
 Convergence forced     ConvForced      .... 1
 Energy Change          TolE            ....  1.000e-09 Eh
 1-El. energy change                    ....  1.000e-06 Eh
 DIIS Error             TolErr          ....  1.000e-08


Diagonalization of the overlap matrix:
Smallest eigenvalue                        ... 1.594e-03
Time for diagonalization                   ...    0.002 sec
Threshold for overlap eigenvalues          ... 1.000e-08
Number of eigenvalues below threshold      ... 0
Time for construction of square roots      ...    0.002 sec
Total time needed                          ...    0.004 sec

-------------------
DFT GRID GENERATION
-------------------

General Integration Accuracy     IntAcc      ...  4.340
Radial Grid Type                 RadialGrid  ... Gauss-Chebyshev
Angular Grid (max. acc.)         AngularGrid ... Lebedev-110
Angular grid pruning method      GridPruning ... 3 (G Style)
Weight generation scheme         WeightScheme... Becke
Basis function cutoff            BFCut       ...    1.0000e-12
Integration weight cutoff        WCut        ...    1.0000e-14
Grids for H and He will be reduced by one unit

# of grid points (after initial pruning)     ...   4688 (   0.0 sec)
# of grid points (after weights+screening)   ...   4661 (   0.0 sec)
nearest neighbour list constructed           ...    0.0 sec
Grid point re-assignment to atoms done       ...    0.0 sec
Grid point division into batches done        ...    0.0 sec
Reduced shell lists constructed in    0.0 sec

Total number of grid points                  ...     4661
Total number of batches                      ...       73
Average number of points per batch           ...       63
Average number of grid points per atom       ...     2330
Average number of shells per batch           ...     9.60 (33.10%)
Average number of basis functions per batch  ...    33.60 (35.37%)
Average number of large shells per batch     ...     7.20 (75.00%)
Average number of large basis fcns per batch ...    23.20 (69.05%)
Maximum spatial batch extension              ...  19.25, 28.73, 15.77 au
Average spatial batch extension              ...   1.01,  1.32,  0.86 au

Time for grid setup =    0.024 sec

------------------------------
INITIAL GUESS: MODEL POTENTIAL
------------------------------
Loading Hartree-Fock densities                     ... done
Calculating cut-offs                               ... done
Setting up the integral package                    ... done
Initializing the effective Hamiltonian             ... done
Starting the Coulomb interaction                   ... done (   0.0 sec)
Reading the grid                                   ... done
Mapping shells                                     ... done
Starting the XC term evaluation                    ... done (   0.0 sec)
Transforming the Hamiltonian                       ... done (   0.0 sec)
Diagonalizing the Hamiltonian                      ... done (   0.0 sec)
Back transforming the eigenvectors                 ... done (   0.0 sec)
Now organizing SCF variables                       ... done
                      ------------------
                      INITIAL GUESS DONE (   0.1 sec)
                      ------------------
--------------
SCF ITERATIONS
--------------
ITER       Energy         Delta-E        Max-DP      RMS-DP      [F,P]     Damp
               ***  Starting incremental Fock matrix formation  ***
  0   -922.9927596834   0.000000000000 0.03159497  0.00101368  0.4779728 0.7000
  1   -923.0951122939  -0.102352610481 0.02034284  0.00070292  0.2587683 0.7000
                               ***Turning on DIIS***
  2   -923.1429182976  -0.047806003717 0.01022660  0.00037474  0.1660564 0.7000
  3   -923.5564203363  -0.413502038612 0.00499200  0.00018032  0.1247591 0.7000
  4   -923.6239464299  -0.067526093605 0.00926347  0.00043183  0.0880536 0.0000
  5   -923.2857751874   0.338171242441 0.00267793  0.00010351  0.0100329 0.0000
  6   -923.2548827883   0.030892399097 0.00156007  0.00005850  0.0037787 0.0000
  7   -923.2464859441   0.008396844227 0.00176521  0.00006762  0.0012114 0.0000
  8   -923.2419615295   0.004524414630 0.00195358  0.00008216  0.0007651 0.0000
  9   -923.2426605559  -0.000699026471 0.00114140  0.00004441  0.0004950 0.0000
 10   -923.2431801337  -0.000519577772 0.00107339  0.00003873  0.0002845 0.0000
 11   -923.2409914795   0.002188654177 0.00169823  0.00005993  0.0002332 0.0000
 12   -923.2413367072  -0.000345227688 0.00157336  0.00005389  0.0001621 0.0000
 13   -923.2399636048   0.001373102384 0.00223984  0.00007618  0.0001102 0.0000
 14   -923.2421160686  -0.002152463771 0.00005040  0.00000206  0.0000395 0.0000
 15   -923.2425077266  -0.000391657986 0.00055555  0.00001923  0.0001199 0.0000
 16   -923.2421376894   0.000370037203 0.00008786  0.00000303  0.0000815 0.0000
 17   -923.2425884189  -0.000450729490 0.00046988  0.00001666  0.0000313 0.0000
 18   -923.2424811546   0.000107264287 0.00020959  0.00000745  0.0000095 0.0000
 19   -923.2423221151   0.000159039460 0.00000165  0.00000006  0.0000035 0.0000
               *** Restarting incremental Fock matrix formation ***
                                   *** Resetting DIIS ***
 20   -923.2422979015   0.000024213640 0.00000445  0.00000015  0.0000019 0.0000
 21   -923.2423009919  -0.000003090417 0.00000263  0.00000009  0.0000016 0.0000
 22   -923.2422917524   0.000009239514 0.00000596  0.00000021  0.0000014 0.0000
 23   -923.2422966822  -0.000004929786 0.00000688  0.00000024  0.0000008 0.0000
 24   -923.2422976596  -0.000000977416 0.00000410  0.00000015  0.0000004 0.0000
 25   -923.2422976220   0.000000037614 0.00000110  0.00000004  0.0000001 0.0000
 26   -923.2422981296  -0.000000507575 0.00000080  0.00000003  0.0000001 0.0000
 27   -923.2422977361   0.000000393419 0.00000011  0.00000000  0.0000001 0.0000
 28   -923.2422980066  -0.000000270429 0.00000012  0.00000000  0.0000001 0.0000
 29   -923.2422981998  -0.000000193204 0.00000027  0.00000001  0.0000001 0.0000
 30   -923.2422983199  -0.000000120088 0.00000033  0.00000001  0.0000001 0.0000
 31   -923.2422982072   0.000000112635 0.00000020  0.00000001  0.0000000 0.0000
                            ***DIIS convergence achieved***

               *****************************************************
               *                     SUCCESS                       *
               *           SCF CONVERGED AFTER  32 CYCLES          *
               *****************************************************


----------------
TOTAL SCF ENERGY
----------------

Total Energy       :         -923.24229792 Eh          -25122.70014 eV

Components:
Nuclear Repulsion  :           57.40454574 Eh            1562.05710 eV
Electronic Energy  :         -980.64684365 Eh          -26684.75724 eV
One Electron Energy:        -1385.08849929 Eh          -37690.17420 eV
Two Electron Energy:          404.44165563 Eh           11005.41695 eV

Virial components:
Potential Energy   :        -1846.42148089 Eh          -50243.68283 eV
Kinetic Energy     :          923.17918297 Eh           25120.98269 eV
Virial Ratio       :            2.00006837


---------------
SCF CONVERGENCE
---------------

  Last Energy change         ...    2.9180e-07  Tolerance :   1.0000e-09
  Last MAX-Density change    ...    4.6766e-08  Tolerance :   1.0000e-08
  Last RMS-Density change    ...    1.6384e-09  Tolerance :   1.0000e-09
  Last DIIS Error            ...    1.3791e-08  Tolerance :   1.0000e-08

             **** THE GBW FILE WAS UPDATED (11_TiO.gbw) ****
             **** DENSITY FILE WAS UPDATED (11_TiO.scfp) ****
             **** ENERGY FILE WAS UPDATED (11_TiO.en.tmp) ****
----------------------
UHF SPIN CONTAMINATION
----------------------

Expectation value of <S**2>     :     2.038200
Ideal value S*(S+1) for S=1.0   :     2.000000
Deviation                       :     0.038200

             **** THE GBW FILE WAS UPDATED (11_TiO.gbw) ****
             **** DENSITY FILE WAS UPDATED (11_TiO.scfp) ****
----------------
ORBITAL ENERGIES
----------------
                 SPIN UP ORBITALS
  NO   OCC          E(Eh)            E(eV) 
   0   1.0000    -183.158868     -4984.0062 
   1   1.0000     -21.309037      -579.8484 
   2   1.0000     -20.395116      -554.9793 
   3   1.0000     -17.683579      -481.1946 
   4   1.0000     -17.678876      -481.0667 
   5   1.0000     -17.678876      -481.0667 
   6   1.0000      -2.806074       -76.3572 
   7   1.0000      -1.780257       -48.4433 
   8   1.0000      -1.780257       -48.4433 
   9   1.0000      -1.737619       -47.2830 
  10   1.0000      -1.038071       -28.2473 
  11   1.0000      -0.353767        -9.6265 
  12   1.0000      -0.344504        -9.3744 
  13   1.0000      -0.344504        -9.3744 
  14   1.0000      -0.277063        -7.5393 
  15   1.0000      -0.277063        -7.5393 
  16   0.0000      -0.019716        -0.5365 
  17   0.0000       0.059172         1.6102 
  18   0.0000       0.059172         1.6102 
  19   0.0000       0.084591         2.3018 
  20   0.0000       0.160353         4.3634 
  21   0.0000       0.168929         4.5968 
  22   0.0000       0.168929         4.5968 
  23   0.0000       0.197568         5.3761 
  24   0.0000       0.197568         5.3761 
  25   0.0000       0.234696         6.3864 
  26   0.0000       0.273549         7.4436 
  27   0.0000       0.273549         7.4436 
  28   0.0000       0.284211         7.7338 
  29   0.0000       0.421549        11.4709 
  30   0.0000       0.421549        11.4709 
  31   0.0000       0.559989        15.2381 
  32   0.0000       0.679203        18.4821 
  33   0.0000       0.679203        18.4821 
  34   0.0000       0.706413        19.2225 
  35   0.0000       0.747966        20.3532 
  36   0.0000       0.747966        20.3532 
  37   0.0000       0.774105        21.0645 
  38   0.0000       0.838213        22.8089 
  39   0.0000       0.838213        22.8089 
  40   0.0000       0.881877        23.9971 
  41   0.0000       0.881877        23.9971 
  42   0.0000       0.896426        24.3930 
  43   0.0000       0.896426        24.3930 
  44   0.0000       1.015290        27.6274 
  45   0.0000       1.107714        30.1424 
  46   0.0000       1.107714        30.1424 
  47   0.0000       1.189135        32.3580 
  48   0.0000       1.745922        47.5089 
  49   0.0000       1.745922        47.5089 
  50   0.0000       1.836691        49.9789 
  51   0.0000       1.948476        53.0207 
  52   0.0000       1.975972        53.7689 
  53   0.0000       1.975972        53.7689 
  54   0.0000       2.194241        59.7083 
  55   0.0000       2.194241        59.7083 
  56   0.0000       2.431988        66.1778 
  57   0.0000       2.431988        66.1778 
  58   0.0000       2.530713        68.8642 
  59   0.0000       2.600592        70.7657 
  60   0.0000       2.600592        70.7657 
  61   0.0000       2.724350        74.1333 
  62   0.0000       2.917948        79.4014 
  63   0.0000       2.917948        79.4014 
  64   0.0000       2.926066        79.6223 
  65   0.0000       2.926066        79.6223 
  66   0.0000       3.052639        83.0665 
  67   0.0000       3.052639        83.0665 
  68   0.0000       3.119664        84.8904 
  69   0.0000       3.119664        84.8904 
  70   0.0000       3.244811        88.2958 
  71   0.0000       3.355044        91.2954 
  72   0.0000       3.355044        91.2954 
  73   0.0000       3.387954        92.1909 
  74   0.0000       3.387954        92.1909 
  75   0.0000       3.401848        92.5690 
  76   0.0000       3.401848        92.5690 
  77   0.0000       3.476108        94.5897 
  78   0.0000       3.523110        95.8687 
  79   0.0000       3.758718       102.2799 
  80   0.0000       3.758718       102.2799 
  81   0.0000       4.627024       125.9077 
  82   0.0000       5.741509       156.2344 
  83   0.0000       5.741509       156.2344 
  84   0.0000       5.892260       160.3365 
  85   0.0000       5.892260       160.3365 
  86   0.0000       6.199046       168.6846 
  87   0.0000       6.199046       168.6846 
  88   0.0000       6.703923       182.4230 
  89   0.0000       7.000748       190.5000 
  90   0.0000       7.000748       190.5000 
  91   0.0000       7.400794       201.3859 
  92   0.0000       7.400794       201.3859 
  93   0.0000       7.644456       208.0162 
  94   0.0000      45.193836      1229.7868 

                 SPIN DOWN ORBITALS
  NO   OCC          E(Eh)            E(eV) 
   0   1.0000    -183.160227     -4984.0431 
   1   1.0000     -21.281481      -579.0985 
   2   1.0000     -20.408186      -555.3350 
   3   1.0000     -17.676426      -481.0000 
   4   1.0000     -17.640761      -480.0295 
   5   1.0000     -17.640761      -480.0295 
   6   1.0000      -2.691652       -73.2436 
   7   1.0000      -1.707540       -46.4645 
   8   1.0000      -1.575208       -42.8636 
   9   1.0000      -1.575208       -42.8636 
  10   1.0000      -1.074900       -29.2495 
  11   1.0000      -0.383468       -10.4347 
  12   1.0000      -0.372921       -10.1477 
  13   1.0000      -0.372921       -10.1477 
  14   0.0000      -0.009251        -0.2517 
  15   0.0000       0.071277         1.9395 
  16   0.0000       0.071277         1.9395 
  17   0.0000       0.095239         2.5916 
  18   0.0000       0.146134         3.9765 
  19   0.0000       0.146134         3.9765 
  20   0.0000       0.178180         4.8485 
  21   0.0000       0.197770         5.3816 
  22   0.0000       0.197770         5.3816 
  23   0.0000       0.239800         6.5253 
  24   0.0000       0.308567         8.3965 
  25   0.0000       0.308567         8.3965 
  26   0.0000       0.314807         8.5663 
  27   0.0000       0.333868         9.0850 
  28   0.0000       0.333868         9.0850 
  29   0.0000       0.456262        12.4155 
  30   0.0000       0.456262        12.4155 
  31   0.0000       0.576126        15.6772 
  32   0.0000       0.736367        20.0376 
  33   0.0000       0.771046        20.9812 
  34   0.0000       0.771046        20.9812 
  35   0.0000       0.780524        21.2391 
  36   0.0000       0.798543        21.7295 
  37   0.0000       0.798543        21.7295 
  38   0.0000       0.830107        22.5883 
  39   0.0000       0.830107        22.5883 
  40   0.0000       0.926615        25.2145 
  41   0.0000       0.926615        25.2145 
  42   0.0000       0.942221        25.6391 
  43   0.0000       0.942221        25.6391 
  44   0.0000       1.013495        27.5786 
  45   0.0000       1.120610        30.4934 
  46   0.0000       1.120610        30.4934 
  47   0.0000       1.198534        32.6138 
  48   0.0000       1.795352        48.8540 
  49   0.0000       1.795352        48.8540 
  50   0.0000       1.845936        50.2305 
  51   0.0000       1.968991        53.5790 
  52   0.0000       1.970102        53.6092 
  53   0.0000       1.970102        53.6092 
  54   0.0000       2.197674        59.8017 
  55   0.0000       2.197674        59.8017 
  56   0.0000       2.540829        69.1395 
  57   0.0000       2.540829        69.1395 
  58   0.0000       2.572687        70.0064 
  59   0.0000       2.622208        71.3539 
  60   0.0000       2.622208        71.3539 
  61   0.0000       2.720685        74.0336 
  62   0.0000       2.964002        80.6546 
  63   0.0000       2.964002        80.6546 
  64   0.0000       2.980209        81.0956 
  65   0.0000       2.980209        81.0956 
  66   0.0000       3.076064        83.7040 
  67   0.0000       3.076064        83.7040 
  68   0.0000       3.112765        84.7026 
  69   0.0000       3.112765        84.7026 
  70   0.0000       3.270196        88.9866 
  71   0.0000       3.427354        93.2630 
  72   0.0000       3.427354        93.2630 
  73   0.0000       3.470106        94.4264 
  74   0.0000       3.470106        94.4264 
  75   0.0000       3.470569        94.4390 
  76   0.0000       3.507007        95.4305 
  77   0.0000       3.507007        95.4305 
  78   0.0000       3.529388        96.0395 
  79   0.0000       3.766111       102.4811 
  80   0.0000       3.766111       102.4811 
  81   0.0000       4.625339       125.8619 
  82   0.0000       5.731877       155.9723 
  83   0.0000       5.731877       155.9723 
  84   0.0000       5.882748       160.0777 
  85   0.0000       5.882748       160.0777 
  86   0.0000       6.189833       168.4339 
  87   0.0000       6.189833       168.4339 
  88   0.0000       6.694443       182.1651 
  89   0.0000       6.981331       189.9717 
  90   0.0000       6.981331       189.9717 
  91   0.0000       7.382517       200.8885 
  92   0.0000       7.382517       200.8885 
  93   0.0000       7.629334       207.6047 
  94   0.0000      45.186100      1229.5763 

                    ********************************
                    * MULLIKEN POPULATION ANALYSIS *
                    ********************************

--------------------------------------------
MULLIKEN ATOMIC CHARGES AND SPIN POPULATIONS
--------------------------------------------
   0 Ti:    0.807203    2.253682
   1 O :   -0.807203   -0.253682
Sum of atomic charges         :   -0.0000000
Sum of atomic spin populations:    2.0000000

-----------------------------------------------------
MULLIKEN REDUCED ORBITAL CHARGES AND SPIN POPULATIONS
-----------------------------------------------------
CHARGE
  0 Tis       :     6.025855  s :     6.025855
      pz      :     4.032985  p :    12.149750
      px      :     4.058382
      py      :     4.058382
      dz2     :     0.418803  d :     2.956974
      dxz     :     0.270628
      dyz     :     0.270628
      dx2y2   :     0.998457
      dxy     :     0.998457
      f0      :     0.007096  f :     0.053437
      f+1     :     0.022161
      f-1     :     0.022161
      f+2     :     0.001009
      f-2     :     0.001009
      f+3     :     0.000000
      f-3     :     0.000000
      g0      :     0.001956  g :     0.006782
      g+1     :     0.002413
      g-1     :     0.002413
      g+2     :     0.000000
      g-2     :     0.000000
      g+3     :     0.000000
      g-3     :     0.000000
      g+4     :     0.000000
      g-4     :     0.000000
  1 O s       :     3.941322  s :     3.941322
      pz      :     1.565709  p :     4.847327
      px      :     1.640809
      py      :     1.640809
      dz2     :     0.005771  d :     0.017544
      dxz     :     0.005391
      dyz     :     0.005391
      dx2y2   :     0.000495
      dxy     :     0.000495
      f0      :     0.000503  f :     0.001010
      f+1     :     0.000215
      f-1     :     0.000215
      f+2     :     0.000038
      f-2     :     0.000038
      f+3     :     0.000000
      f-3     :     0.000000

SPIN
  0 Tis       :     0.000666  s :     0.000666
      pz      :     0.004455  p :     0.031986
      px      :     0.013766
      py      :     0.013766
      dz2     :     0.104771  d :     2.220088
      dxz     :     0.059201
      dyz     :     0.059201
      dx2y2   :     0.998457
      dxy     :     0.998457
      f0      :    -0.000345  f :     0.001812
      f+1     :     0.000069
      f-1     :     0.000069
      f+2     :     0.001009
      f-2     :     0.001009
      f+3     :    -0.000000
      f-3     :    -0.000000
      g0      :    -0.000316  g :    -0.000869
      g+1     :    -0.000277
      g-1     :    -0.000277
      g+2     :     0.000000
      g-2     :     0.000000
      g+3     :    -0.000000
      g-3     :    -0.000000
      g+4     :     0.000000
      g-4     :     0.000000
  1 O s       :    -0.004711  s :    -0.004711
      pz      :    -0.105731  p :    -0.252540
      px      :    -0.073404
      py      :    -0.073404
      dz2     :     0.001151  d :     0.003412
      dxz     :     0.000635
      dyz     :     0.000635
      dx2y2   :     0.000495
      dxy     :     0.000495
      f0      :     0.000060  f :     0.000156
      f+1     :     0.000010
      f-1     :     0.000010
      f+2     :     0.000038
      f-2     :     0.000038
      f+3     :    -0.000000
      f-3     :     0.000000


                     *******************************
                     * LOEWDIN POPULATION ANALYSIS *
                     *******************************

-------------------------------------------
LOEWDIN ATOMIC CHARGES AND SPIN POPULATIONS
-------------------------------------------
   0 Ti:    0.210008    2.212754
   1 O :   -0.210008   -0.212754

----------------------------------------------------
LOEWDIN REDUCED ORBITAL CHARGES AND SPIN POPULATIONS
----------------------------------------------------
CHARGE
  0 Tis       :     6.026190  s :     6.026190
      pz      :     4.129978  p :    12.280521
      px      :     4.075272
      py      :     4.075272
      dz2     :     0.577219  d :     3.234273
      dxz     :     0.330960
      dyz     :     0.330960
      dx2y2   :     0.997567
      dxy     :     0.997567
      f0      :     0.075900  f :     0.210184
      f+1     :     0.066024
      f-1     :     0.066024
      f+2     :     0.001118
      f-2     :     0.001118
      f+3     :     0.000000
      f-3     :     0.000000
      g0      :     0.015507  g :     0.038824
      g+1     :     0.011653
      g-1     :     0.011653
      g+2     :     0.000005
      g-2     :     0.000005
      g+3     :     0.000000
      g-3     :     0.000000
      g+4     :     0.000000
      g-4     :     0.000000
  1 O s       :     3.529299  s :     3.529299
      pz      :     1.604399  p :     4.627801
      px      :     1.511701
      py      :     1.511701
      dz2     :     0.038426  d :     0.049002
      dxz     :     0.004103
      dyz     :     0.004103
      dx2y2   :     0.001185
      dxy     :     0.001185
      f0      :     0.003081  f :     0.003906
      f+1     :     0.000288
      f-1     :     0.000288
      f+2     :     0.000125
      f-2     :     0.000125
      f+3     :     0.000000
      f-3     :     0.000000

SPIN
  0 Tis       :    -0.001775  s :    -0.001775
      pz      :     0.003807  p :     0.027050
      px      :     0.011621
      py      :     0.011621
      dz2     :     0.097068  d :     2.199544
      dxz     :     0.053671
      dyz     :     0.053671
      dx2y2   :     0.997567
      dxy     :     0.997567
      f0      :    -0.002041  f :    -0.008220
      f+1     :    -0.004208
      f-1     :    -0.004208
      f+2     :     0.001118
      f-2     :     0.001118
      f+3     :    -0.000000
      f-3     :    -0.000000
      g0      :    -0.001451  g :    -0.003845
      g+1     :    -0.001202
      g-1     :    -0.001202
      g+2     :     0.000005
      g-2     :     0.000005
      g+3     :    -0.000000
      g-3     :    -0.000000
      g+4     :     0.000000
      g-4     :     0.000000
  1 O s       :    -0.006201  s :    -0.006201
      pz      :    -0.089275  p :    -0.210277
      px      :    -0.060501
      py      :    -0.060501
      dz2     :    -0.000082  d :     0.003515
      dxz     :     0.000614
      dyz     :     0.000614
      dx2y2   :     0.001185
      dxy     :     0.001185
      f0      :    -0.000051  f :     0.000208
      f+1     :     0.000005
      f-1     :     0.000005
      f+2     :     0.000125
      f-2     :     0.000125
      f+3     :    -0.000000
      f-3     :     0.000000


                      *****************************
                      * MAYER POPULATION ANALYSIS *
                      *****************************

  NA   - Mulliken gross atomic population
  ZA   - Total nuclear charge
  QA   - Mulliken gross atomic charge
  VA   - Mayer's total valence
  BVA  - Mayer's bonded valence
  FA   - Mayer's free valence

  ATOM       NA         ZA         QA         VA         BVA        FA
  0 Ti    21.1928    22.0000     0.8072     3.9519     1.9256     2.0263
  1 O      8.8072     8.0000    -0.8072     1.9508     1.9256     0.0251

  Mayer bond orders larger than 0.100000
B(  0-Ti,  1-O ) :   1.9256 

-------
TIMINGS
-------

Total SCF time: 0 days 0 hours 0 min 4 sec 

Total time                  ....       4.646 sec
Sum of individual times     ....       4.350 sec  ( 93.6%)

Fock matrix formation       ....       4.077 sec  ( 87.8%)
Diagonalization             ....       0.085 sec  (  1.8%)
Density matrix formation    ....       0.014 sec  (  0.3%)
Population analysis         ....       0.004 sec  (  0.1%)
Initial guess               ....       0.108 sec  (  2.3%)
Orbital Transformation      ....       0.000 sec  (  0.0%)
Orbital Orthonormalization  ....       0.000 sec  (  0.0%)
DIIS solution               ....       0.039 sec  (  0.8%)


           ************************************************************
           *        Program running with 24 parallel MPI-processes    *
           *              working on a common directory               *
           ************************************************************


------------------------------------------------------------------------------- 
                              ORCA-MATRIX DRIVEN CI                            
------------------------------------------------------------------------------- 

--------------------------------
AUTOMATIC CHOICE OF INCORE LEVEL
--------------------------------

Memory available                           ...   2500.00 MB
Memory needed for S+T                      ...      7.86 MB
Memory needed for J+K                      ...     15.78 MB
Memory needed for DIIS                     ...    109.99 MB
Memory needed for 3-ext                    ...     37.62 MB
Memory needed for 4-ext                    ...    150.46 MB
Memory needed for triples                  ...     18.81 MB
 -> Final InCoreLevel    ... 5
 -> check shows that triples correction can be computed


Wavefunction type
-----------------
Correlation treatment                      ...      CCSD     
Single excitations                         ... ON
Orbital optimization                       ... OFF
Calculation of Z vector                    ... OFF
Calculation of Brueckner orbitals          ... OFF
Perturbative triple excitations            ... ON
Calculation of F12 correction              ... OFF
Frozen core treatment                      ... chemical core (12 el)
Reference Wavefunction                     ... UHF
  Alpha-MOs occ    :     6 ...   15 ( 10 MO's/ 10 electrons)
  Beta-MOs occ     :     6 ...   13 (  8 MO's/  8 electrons)
  Alpha-MOs virt   :    16 ...   94 ( 79 MO's              )
  Beta-MOs virt    :    14 ...   94 ( 81 MO's              )
Number of AO's                             ...     95
Number of electrons                        ...     30
Number of correlated electrons             ...     18

Algorithmic settings
--------------------
Integral transformation                    ... AO direct full transformation
K(C) Formation                             ... FULL-MO TRAFO
Maximum number of iterations               ...        50
Convergence tolerance (max. residuum)      ... 1.000e-06
Level shift for amplitude update           ... 2.000e-01
Maximum number of DIIS vectors             ...         7
DIIS turned on at iteration                ...         0
Damping before turning on DIIS             ...     0.500
Damping after turning on DIIS              ...     0.000
Pair specific amplitude update             ... OFF
Natural orbital iterations                 ... OFF
Perturbative natural orbital generation    ... OFF
Printlevel                                 ... 2

Memory handling:
----------------
Maximum memory for working arrays          ...   2500 MB
Data storage in matrix containers          ... UNCOMPRESSED
Data type for integral storage             ... DOUBLE
In-Core Storage of quantities:
   Amplitudes+Sigma Vector      ... YES
   J+K operators                ... YES
   DIIS vectors                 ... YES
   3-external integrals         ... YES
   4-external integrals         ... YES


Initializing the integral package          ... done
Warning: reference  - re-canonicalizations have been set to INT 1 VIRT 1

--------------------------
UNRESTRICTED FOCK OPERATOR
--------------------------

<ss|ss>:         2016 b           25 skpd (  1.2%)    0.001 s ( 0.000 ms/b)
<ss|sp>:         5481 b           73 skpd (  1.3%)    0.002 s ( 0.000 ms/b)
<ss|sd>:         4158 b           49 skpd (  1.2%)    0.001 s ( 0.000 ms/b)
<ss|sf>:         2079 b           25 skpd (  1.2%)    0.001 s ( 0.001 ms/b)
<ss|sg>:          693 b            8 skpd (  1.2%)    0.000 s ( 0.001 ms/b)
<ss|pp>:         2268 b           25 skpd (  1.1%)    0.001 s ( 0.000 ms/b)
<ss|pd>:         3024 b           46 skpd (  1.5%)    0.001 s ( 0.000 ms/b)
<ss|pf>:         1512 b           24 skpd (  1.6%)    0.001 s ( 0.000 ms/b)
<ss|pg>:          504 b            8 skpd (  1.6%)    0.002 s ( 0.004 ms/b)
<ss|dd>:         1323 b           16 skpd (  1.2%)    0.001 s ( 0.001 ms/b)
<ss|df>:         1134 b           18 skpd (  1.6%)    0.001 s ( 0.001 ms/b)
<ss|dg>:          378 b            6 skpd (  1.6%)    0.001 s ( 0.002 ms/b)
<ss|ff>:          378 b            6 skpd (  1.6%)    0.000 s ( 0.001 ms/b)
<ss|fg>:          189 b            3 skpd (  1.6%)    0.000 s ( 0.002 ms/b)
<ss|gg>:           63 b            1 skpd (  1.6%)    0.001 s ( 0.009 ms/b)
<sp|sp>:         3828 b           36 skpd (  0.9%)    0.002 s ( 0.001 ms/b)
<sp|sd>:         5742 b           47 skpd (  0.8%)    0.002 s ( 0.000 ms/b)
<sp|sf>:         2871 b           23 skpd (  0.8%)    0.002 s ( 0.001 ms/b)
<sp|sg>:          957 b            6 skpd (  0.6%)    0.001 s ( 0.001 ms/b)
<sp|pp>:         3132 b           11 skpd (  0.4%)    0.002 s ( 0.001 ms/b)
<sp|pd>:         4176 b           30 skpd (  0.7%)    0.002 s ( 0.001 ms/b)
<sp|pf>:         2088 b           17 skpd (  0.8%)    0.001 s ( 0.001 ms/b)
<sp|pg>:          696 b            6 skpd (  0.9%)    0.002 s ( 0.003 ms/b)
<sp|dd>:         1827 b           14 skpd (  0.8%)    0.003 s ( 0.001 ms/b)
<sp|df>:         1566 b           18 skpd (  1.1%)    0.001 s ( 0.001 ms/b)
<sp|dg>:          522 b            6 skpd (  1.1%)    0.002 s ( 0.004 ms/b)
<sp|ff>:          522 b            6 skpd (  1.1%)    0.001 s ( 0.002 ms/b)
<sp|fg>:          261 b            3 skpd (  1.1%)    0.001 s ( 0.005 ms/b)
<sp|gg>:           87 b            1 skpd (  1.1%)    0.002 s ( 0.019 ms/b)
<sd|sd>:         2211 b           10 skpd (  0.5%)    0.001 s ( 0.000 ms/b)
<sd|sf>:         2178 b            7 skpd (  0.3%)    0.001 s ( 0.000 ms/b)
<sd|sg>:          726 b            3 skpd (  0.4%)    0.001 s ( 0.002 ms/b)
<sd|pp>:         2376 b            2 skpd (  0.1%)    0.002 s ( 0.001 ms/b)
<sd|pd>:         3168 b            7 skpd (  0.2%)    0.003 s ( 0.001 ms/b)
<sd|pf>:         1584 b            4 skpd (  0.3%)    0.001 s ( 0.001 ms/b)
<sd|pg>:          528 b            2 skpd (  0.4%)    0.002 s ( 0.004 ms/b)
<sd|dd>:         1386 b            1 skpd (  0.1%)    0.004 s ( 0.003 ms/b)
<sd|df>:         1188 b            3 skpd (  0.3%)    0.002 s ( 0.002 ms/b)
<sd|dg>:          396 b            1 skpd (  0.3%)    0.003 s ( 0.007 ms/b)
<sd|ff>:          396 b            1 skpd (  0.3%)    0.001 s ( 0.003 ms/b)
<sd|fg>:          198 b            0 skpd (  0.0%)    0.002 s ( 0.010 ms/b)
<sd|gg>:           66 b            0 skpd (  0.0%)    0.003 s ( 0.040 ms/b)
<sf|sf>:          561 b            0 skpd (  0.0%)    0.000 s ( 0.001 ms/b)
<sf|sg>:          363 b            0 skpd (  0.0%)    0.001 s ( 0.003 ms/b)
<sf|pp>:         1188 b            0 skpd (  0.0%)    0.002 s ( 0.002 ms/b)
<sf|pd>:         1584 b            1 skpd (  0.1%)    0.003 s ( 0.002 ms/b)
<sf|pf>:          792 b            0 skpd (  0.0%)    0.001 s ( 0.001 ms/b)
<sf|pg>:          264 b            0 skpd (  0.0%)    0.002 s ( 0.007 ms/b)
<sf|dd>:          693 b            0 skpd (  0.0%)    0.003 s ( 0.004 ms/b)
<sf|df>:          594 b            0 skpd (  0.0%)    0.002 s ( 0.003 ms/b)
<sf|dg>:          198 b            0 skpd (  0.0%)    0.003 s ( 0.013 ms/b)
<sf|ff>:          198 b            0 skpd (  0.0%)    0.001 s ( 0.007 ms/b)
<sf|fg>:           99 b            0 skpd (  0.0%)    0.002 s ( 0.017 ms/b)
<sf|gg>:           33 b            0 skpd (  0.0%)    0.002 s ( 0.068 ms/b)
<sg|sg>:           66 b            0 skpd (  0.0%)    0.000 s ( 0.005 ms/b)
<sg|pp>:          396 b            0 skpd (  0.0%)    0.001 s ( 0.003 ms/b)
<sg|pd>:          528 b            1 skpd (  0.2%)    0.002 s ( 0.003 ms/b)
<sg|pf>:          264 b            0 skpd (  0.0%)    0.001 s ( 0.003 ms/b)
<sg|pg>:           88 b            0 skpd (  0.0%)    0.001 s ( 0.015 ms/b)
<sg|dd>:          231 b            0 skpd (  0.0%)    0.002 s ( 0.008 ms/b)
<sg|df>:          198 b            0 skpd (  0.0%)    0.001 s ( 0.005 ms/b)
<sg|dg>:           66 b            0 skpd (  0.0%)    0.002 s ( 0.027 ms/b)
<sg|ff>:           66 b            0 skpd (  0.0%)    0.001 s ( 0.010 ms/b)
<sg|fg>:           33 b            0 skpd (  0.0%)    0.001 s ( 0.033 ms/b)
<sg|gg>:           11 b            0 skpd (  0.0%)    0.001 s ( 0.128 ms/b)
<pp|pp>:          666 b            0 skpd (  0.0%)    0.002 s ( 0.003 ms/b)
<pp|pd>:         1728 b            0 skpd (  0.0%)    0.003 s ( 0.002 ms/b)
<pp|pf>:          864 b            0 skpd (  0.0%)    0.001 s ( 0.001 ms/b)
<pp|pg>:          288 b            0 skpd (  0.0%)    0.002 s ( 0.006 ms/b)
<pp|dd>:          756 b            0 skpd (  0.0%)    0.003 s ( 0.004 ms/b)
<pp|df>:          648 b            0 skpd (  0.0%)    0.002 s ( 0.003 ms/b)
<pp|dg>:          216 b            0 skpd (  0.0%)    0.002 s ( 0.011 ms/b)
<pp|ff>:          216 b            0 skpd (  0.0%)    0.001 s ( 0.005 ms/b)
<pp|fg>:          108 b            0 skpd (  0.0%)    0.002 s ( 0.015 ms/b)
<pp|gg>:           36 b            0 skpd (  0.0%)    0.002 s ( 0.061 ms/b)
<pd|pd>:         1176 b            0 skpd (  0.0%)    0.004 s ( 0.004 ms/b)
<pd|pf>:         1152 b            0 skpd (  0.0%)    0.002 s ( 0.002 ms/b)
<pd|pg>:          384 b            0 skpd (  0.0%)    0.004 s ( 0.011 ms/b)
<pd|dd>:         1008 b            0 skpd (  0.0%)    0.006 s ( 0.006 ms/b)
<pd|df>:          864 b            0 skpd (  0.0%)    0.004 s ( 0.004 ms/b)
<pd|dg>:          288 b            0 skpd (  0.0%)    0.005 s ( 0.019 ms/b)
<pd|ff>:          288 b            0 skpd (  0.0%)    0.003 s ( 0.009 ms/b)
<pd|fg>:          144 b            0 skpd (  0.0%)    0.004 s ( 0.027 ms/b)
<pd|gg>:           48 b            0 skpd (  0.0%)    0.005 s ( 0.111 ms/b)
<pf|pf>:          300 b            0 skpd (  0.0%)    0.001 s ( 0.004 ms/b)
<pf|pg>:          192 b            0 skpd (  0.0%)    0.003 s ( 0.015 ms/b)
<pf|dd>:          504 b            0 skpd (  0.0%)    0.004 s ( 0.008 ms/b)
<pf|df>:          432 b            0 skpd (  0.0%)    0.003 s ( 0.006 ms/b)
<pf|dg>:          144 b            0 skpd (  0.0%)    0.004 s ( 0.028 ms/b)
<pf|ff>:          144 b            0 skpd (  0.0%)    0.002 s ( 0.016 ms/b)
<pf|fg>:           72 b            0 skpd (  0.0%)    0.003 s ( 0.042 ms/b)
<pf|gg>:           24 b            0 skpd (  0.0%)    0.004 s ( 0.163 ms/b)
<pg|pg>:           36 b            0 skpd (  0.0%)    0.001 s ( 0.040 ms/b)
<pg|dd>:          168 b            0 skpd (  0.0%)    0.003 s ( 0.016 ms/b)
<pg|df>:          144 b            0 skpd (  0.0%)    0.002 s ( 0.011 ms/b)
<pg|dg>:           48 b            0 skpd (  0.0%)    0.003 s ( 0.053 ms/b)
<pg|ff>:           48 b            0 skpd (  0.0%)    0.001 s ( 0.022 ms/b)
<pg|fg>:           24 b            0 skpd (  0.0%)    0.002 s ( 0.078 ms/b)
<pg|gg>:            8 b            0 skpd (  0.0%)    0.002 s ( 0.274 ms/b)
<dd|dd>:          231 b            0 skpd (  0.0%)    0.004 s ( 0.017 ms/b)
<dd|df>:          378 b            0 skpd (  0.0%)    0.003 s ( 0.007 ms/b)
<dd|dg>:          126 b            0 skpd (  0.0%)    0.004 s ( 0.032 ms/b)
<dd|ff>:          126 b            0 skpd (  0.0%)    0.002 s ( 0.016 ms/b)
<dd|fg>:           63 b            0 skpd (  0.0%)    0.003 s ( 0.047 ms/b)
<dd|gg>:           21 b            0 skpd (  0.0%)    0.004 s ( 0.191 ms/b)
<df|df>:          171 b            0 skpd (  0.0%)    0.003 s ( 0.015 ms/b)
<df|dg>:          108 b            0 skpd (  0.0%)    0.004 s ( 0.041 ms/b)
<df|ff>:          108 b            0 skpd (  0.0%)    0.003 s ( 0.027 ms/b)
<df|fg>:           54 b            0 skpd (  0.0%)    0.004 s ( 0.070 ms/b)
<df|gg>:           18 b            0 skpd (  0.0%)    0.005 s ( 0.277 ms/b)
<dg|dg>:           21 b            0 skpd (  0.0%)    0.001 s ( 0.064 ms/b)
<dg|ff>:           36 b            0 skpd (  0.0%)    0.001 s ( 0.035 ms/b)
<dg|fg>:           18 b            0 skpd (  0.0%)    0.002 s ( 0.119 ms/b)
<dg|gg>:            6 b            0 skpd (  0.0%)    0.003 s ( 0.431 ms/b)
<ff|ff>:           21 b            0 skpd (  0.0%)    0.001 s ( 0.054 ms/b)
<ff|fg>:           18 b            0 skpd (  0.0%)    0.002 s ( 0.109 ms/b)
<ff|gg>:            6 b            0 skpd (  0.0%)    0.003 s ( 0.444 ms/b)
<fg|fg>:            6 b            0 skpd (  0.0%)    0.001 s ( 0.244 ms/b)
<fg|gg>:            3 b            0 skpd (  0.0%)    0.002 s ( 0.725 ms/b)
<gg|gg>:            1 b            0 skpd (  0.0%)    0.002 s ( 1.657 ms/b)
Recanonicalizing the internal orbitals
Recanonicalizing the virtual orbitals
Time needed for Fock operator              ...            0.262 sec
Reference energy                           ...   -923.242297905
Warning: for UHF the TrafoType has to be JK
Warning: for UHF the K(C)-option cannot be MO but must be AOX

-------------------------------
PARTIAL EXCHANGE TRANSFORMATION
-------------------------------

Transformation type                        ... two-operators
Generation of integrals (i,mue|j,nue)      ... ON
Generation of integrals (mue,kappa|nue,tau)... ON
Generation of integrals (i,mue|a,nue)      ... ON
Dimension of the basis                     ...   95
Number of internal alpha-MOs               ...   10 (   6-  15)
Number of internal beta-MOs                ...    8 (   6-  13)
Number of external alpha-MOs               ...   79 (  16-  94)
Number of external beta-MOs                ...   81 (  14-  94)
Pair cutoff                                ... 0.000e+00 Eh
Number of AO pairs in the trafo            ... 4560
Total Number of distinct AO pairs          ... 4560
Memory devoted for trafo                   ... 2500.0 MB 
Max. Number of MO pairs treated together   ... 36308      
Number Format for Storage                  ... Double (8 Byte)
Integral package used                      ... LIBINT

Starting integral evaluation:
    ... done with AO integral generation
Closing buffer AOK[aa] ( 0.00 GB; CompressionRatio= 0.99)
Closing buffer AOK[bb] ( 0.00 GB; CompressionRatio= 0.98)
Closing buffer AOK[ab] ( 0.00 GB; CompressionRatio= 0.98)
Closing buffer AOK[ba] ( 0.00 GB; CompressionRatio= 0.98)
Collecting buffer AOK 
Closing buffer IAAO1[aa] ( 0.00 GB; CompressionRatio= 1.00)
Closing buffer IAAO1[bb] ( 0.00 GB; CompressionRatio= 1.00)
Closing buffer IAAO1[ab] ( 0.00 GB; CompressionRatio= 1.00)
Closing buffer IAAO1[ba] ( 0.00 GB; CompressionRatio= 1.00)
Closing buffer IAAO2[aa] ( 0.00 GB; CompressionRatio= 1.00)
Closing buffer IAAO2[bb] ( 0.00 GB; CompressionRatio= 1.00)
Closing buffer IAAO2[ab] ( 0.00 GB; CompressionRatio= 1.00)
Closing buffer IAAO2[ba] ( 0.00 GB; CompressionRatio= 1.00)
Collecting buffer IAAO 
Closing buffer PRQS    ( 0.00 GB; CompressionRatio= 1.00)
Collecting buffer PRQS 
Number of alpha/alpha MO pairs in trafo    ...   55
Number of beta /beta  MO pairs in trafo    ...   36
Number of alpha/ beta MO pairs in trafo    ...   80
------------------------
SORTING OF (i,mue|j,nue)
------------------------

SORTING OF ALPHA/ALPHA PAIRS
IBATCH = 1 of  1
Closing buffer KAO[aa] ( 0.00 GB; CompressionRatio= 1.00)
Collecting buffer KAO 
SORTING OF BETA /BETA  PAIRS
IBATCH = 1 of  1
Closing buffer KAO[bb] ( 0.00 GB; CompressionRatio= 1.00)
Collecting buffer KAO 
SORTING OF ALPHA/BETA  PAIRS
IBATCH = 1 of  1
Closing buffer KAO[ab] ( 0.00 GB; CompressionRatio= 0.999833822633)
Collecting buffer KAO[ab] 
------------------------
SORTING OF (i,mue|a,nue)
------------------------

Number of alpha/alpha (i,a) pairs in trafo  ...  790
Number of beta /beta  (i,a) pairs in trafo  ...  648
Number of alpha/ beta (i,a) pairs in trafo  ...  810
Number of beta /alpha (i,a) pairs in trafo  ...  632
Setting up the alpha/alpha list             ... done
Setting up the beta /beta  list             ... done
Setting up the alpha/beta  list             ... done
Setting up the beta /alpha list             ... done
    ... Now sorting (i,mue|a,nue)integrals
    ... Integrals (i,b|a,c) will be made on the fly
SORTING OF ALPHA/ALPHA PAIRS
IBATCH = 1 of  1
Closing buffer IPAQ[aa]  0.00 GB; CompressionRatio= 1.00)
SORTING OF BETA /BETA  PAIRS
IBATCH = 1 of  1
Closing buffer IPAQ[bb]( 0.00 GB; CompressionRatio= 1.00)
SORTING OF ALPHA/BETA  PAIRS (NMatSort_ab=34)
IBATCH = 1 of  1
Closing buffer IPAQ[ab]( 0.00 GB; CompressionRatio= 1.00)
SORTING OF BETA/ALPHA  PAIRS
IBATCH = 1 of  1
Closing buffer IPAQ[ba]( 0.00 GB; CompressionRatio= 1.00)
N(AO-Batches) Done                         ...      4959 
N(AO-Batches) Skipped                      ...         0 
N(IJ)-pairs Skipped                        ...         0 
TOTAL TIME for half transformation         ...     1.086 sec
AO-integral generation                     ...     0.022 sec
Half transformation                        ...     0.004 sec
K-integral sorting                         ...     0.607 sec
<ss|**>: 
------------------------------
PARTIAL COULOMB TRANSFORMATION
------------------------------

Transformation type                        ... two-operators
Dimension of the basis                     ...   95
Number of internal alpha-MOs               ...   10 (6-15)
Number of internal beta-MOs                ...    8 (6-13)
Pair cutoff                                ... 0.000e+00 Eh
Number of AO pairs included in the trafo   ... 4560
Total Number of distinct AO pairs          ... 4560
Memory devoted for trafo                   ... 2500.0 MB 
Max. Number of MO pairs treated together   ... 71859      
Max. Number of MOs treated per batch       ...  756      
Number Format for Storage                  ... Double (8 Byte)
AO-integral source                         ... DIRECT
Integral package used                      ... LIBINT

Starting integral evaluation:
       27153 b        0 skpd     0.007 s (  0.000 ms/b)
<sp|**>: <sd|**>:        37497 b        0 skpd     0.017 s (  0.000 ms/b)
       28446 b        0 skpd     0.018 s (  0.001 ms/b)
<sf|**>:        14223 b        0 skpd     0.012 s (  0.001 ms/b)
<sg|**>:         4741 b        0 skpd     0.018 s (  0.004 ms/b)
<pp|**>:        15516 b        0 skpd     0.023 s (  0.001 ms/b)
<pd|**>:        20688 b        0 skpd     0.033 s (  0.002 ms/b)
<pf|**>:        10344 b        0 skpd     0.016 s (  0.002 ms/b)
<pg|**>:         3448 b        0 skpd     0.027 s (  0.008 ms/b)
<dd|**>:         9051 b        0 skpd     0.040 s (  0.004 ms/b)
<df|**>:         7758 b        0 skpd     0.022 s (  0.003 ms/b)
<dg|**>:         2586 b        0 skpd     0.035 s (  0.013 ms/b)
<ff|**>:         2586 b        0 skpd     0.015 s (  0.006 ms/b)
<fg|**>:         1293 b        0 skpd     0.022 s (  0.017 ms/b)
<gg|**>:          431 b        0 skpd     0.032 s (  0.075 ms/b)
Closing buffer AOJ[aa] ( 0.00 GB; CompressionRatio= 0.97)
Closing buffer AOJ[bb] ( 0.00 GB; CompressionRatio= 0.00)
Collecting buffer AOJ 
    ... done with AO integral generation
Number of Alpha-MO pairs included          ...   55
Number of Beta-MO pairs included           ...   36
    ... Now sorting integrals
SORTING ALPHA/ALPHA PAIRS
IBATCH = 1 of  1
Closing buffer JAO[aa] ( 0.00 GB; CompressionRatio= 1.00)
SORTING BETA/BETA PAIRS
IBATCH = 1 of  1
Closing buffer JAO[bb] ( 0.00 GB; CompressionRatio= 1.00)
Collecting buffer JAO 
TOTAL TIME for half transformation         ...     0.378 sec
AO-integral generation                     ...     0.336 sec
Half transformation                        ...     0.008 sec
J-integral sorting                         ...     0.029 sec

-------------------------- SECOND HALF TRANSFORMATION -------------------------
Formation of (ij|kl),(ij|ka), (ij|ab)      ... ok (     0.037 sec)
Formation of (ik|jl),(ik|ja), (ia|jb)      ... ok (     0.073 sec)


-----------------------
SPIN UNRESTRICTED GUESS
-----------------------

Entering MDCI_UHF_Guess, Tailored=0
Spin-components of the MP2 energy:
EMP2(aa)=     -0.119115421
EMP2(bb)=     -0.073331230
EMP2(ab)=     -0.422305108

Initial guess performed in     0.024 sec
E(0)                                       ...   -923.242297905
E(MP2)                                     ...     -0.614751759
Initial E(tot)                             ...   -923.857049664
<T|T>                                      ...      0.173734289
Number of pairs included                   ... 153

------------------------------------------------
                  UHF COUPLED CLUSTER ITERATIONS
------------------------------------------------

Number of amplitudes to be optimized       ...       744879

Iter       E(tot)           E(Corr)          Delta-E          Residual     Time      <S|S>**1/2
  0   -923.857049664     -0.614751759      0.000000000      0.039083786    0.73      0.000000079
                           *** Turning on DIIS ***
  1   -923.819192525     -0.576894620      0.037857140      0.015203203    0.78      0.097911067
  2   -923.842947674     -0.600649769     -0.023755149      0.010266378    0.78      0.088147176
  3   -923.845991535     -0.603693630     -0.003043861      0.004149624    0.80      0.113661437
  4   -923.848580017     -0.606282112     -0.002588482      0.002573029    0.81      0.129764741
  5   -923.850218887     -0.607920982     -0.001638871      0.001055117    0.79      0.144575336
  6   -923.850454053     -0.608156148     -0.000235165      0.000593005    0.80      0.149245565
  7   -923.850595132     -0.608297227     -0.000141080      0.000328736    0.80      0.151327078
  8   -923.850646562     -0.608348656     -0.000051429      0.000203168    0.80      0.151823417
  9   -923.850650687     -0.608352782     -0.000004125      0.000134428    0.79      0.151950860
 10   -923.850663923     -0.608366018     -0.000013236      0.000070957    0.80      0.151899549
 11   -923.850659388     -0.608361483      0.000004534      0.000032254    0.78      0.151780662
 12   -923.850656498     -0.608358593      0.000002891      0.000016589    0.78      0.151749634
 13   -923.850658156     -0.608360251     -0.000001659      0.000012962    0.77      0.151734101
 14   -923.850657719     -0.608359814      0.000000437      0.000007244    0.78      0.151739762
 15   -923.850658533     -0.608360628     -0.000000814      0.000004012    0.79      0.151740377
 16   -923.850658280     -0.608360375      0.000000253      0.000002448    0.78      0.151742204
 17   -923.850658118     -0.608360213      0.000000162      0.000001854    0.77      0.151741939
 18   -923.850658072     -0.608360167      0.000000046      0.000001390    0.77      0.151741335
 19   -923.850657891     -0.608359986      0.000000181      0.000000836    0.76      0.151741060
               --- The Coupled-Cluster iterations have converged ---

----------------------
COUPLED CLUSTER ENERGY
----------------------

E(0)                                       ...   -923.242297905
E(CORR)                                    ...     -0.608359986
E(TOT)                                     ...   -923.850657891
Singles norm <S|S>**1/2                    ...      0.151741060 ( 0.084638985, 0.067102076)  
T1 diagnostic                              ...      0.035765711                              

------------------
LARGEST AMPLITUDES
------------------
  11b-> 26b  -1b-> -1b       0.069640
  12b-> 24b  -1b-> -1b       0.066402
  13b-> 25b  -1b-> -1b       0.066402
  14a-> 21a  -1a-> -1a       0.059823
  15a-> 22a  -1a-> -1a       0.059823
  12a-> 26a  -1a-> -1a       0.058566
  13a-> 27a  -1a-> -1a       0.058566
  11b-> 17b  -1b-> -1b       0.050060
  11a-> 28a  -1a-> -1a       0.038327
  15a-> 27a  14a-> 26a       0.037940
  15a-> 26a  14a-> 27a       0.037940
  11a-> 19a  -1a-> -1a       0.037794
  15a-> 33a  14a-> 32a       0.031129
  15a-> 32a  14a-> 33a       0.031129
  11a-> 28a  11b-> 26b       0.031003
  11b-> 14b  -1b-> -1b       0.030788

----------------------
UHF TRIPLES CORRECTION (Algorithm 1)
----------------------

Multiplier for the singles contribution    ...      1.000000000

SPIN-CASE Alpha-Alpha-Alpha:
10% done
20% done
30% done
40% done
50% done
60% done
70% done
80% done
90% done


SPIN-CASE Beta-Beta-Beta:
10% done
20% done
30% done
40% done
50% done
60% done
70% done
80% done
90% done


SPIN-CASE Alpha-Alpha-Beta:
10% done
20% done
30% done
40% done
50% done
60% done
70% done
80% done
90% done


SPIN-CASE Beta-Beta-Alpha:
10% done
20% done
30% done
40% done
50% done
60% done
70% done
80% done
90% done


Triples Correction (T)                     ...     -0.034651281
    alpha-alpha-alpha ... -0.002689859 (  7.8%)
    alpha-alpha-beta  ... -0.019227577 ( 55.5%)
    alpha-beta -beta  ... -0.012155356 ( 35.1%)
    beta -beta -beta  ... -0.000578490 (  1.7%)
Scaling of triples based on CCSD energies (Peterson et al. Molecular Physics 113, 1551 (2015))
E(T*) = f*E(T) where f = E(F12-CCSD)/E(CCSD) 
f = CCSD (with F12)/ CCSD (without F12)    ...      1.000000000
Scaled triples correction (T)              ...     -0.034651281

Final correlation energy                   ...     -0.643011267
E(CCSD)                                    ...   -923.850657891
E(CCSD(T))                                 ...   -923.885309172



        !!!!!!!!!!!!!!!!!!!!!!!!!!!!!!!!!!!!!!!!!!!!!!!!!!!!!!!!!!!!!!!!!!!!!!!!!! 
        !  Warning: Densities are linearized densities                           !
        !!!!!!!!!!!!!!!!!!!!!!!!!!!!!!!!!!!!!!!!!!!!!!!!!!!!!!!!!!!!!!!!!!!!!!!!!! 

NORM  =      1.217510074 sqrt=     1.103408389
W(HF) =      0.821348440
------------------------------------------------------------------------------
                           ORCA POPULATION ANALYSIS
------------------------------------------------------------------------------
Input electron density              ... 11_TiO.mdcip
Input spin density                  ... 11_TiO.mdcir
BaseName (.gbw .S,...)              ... 11_TiO

                    ********************************
                    * MULLIKEN POPULATION ANALYSIS *
                    ********************************

------------------------------------------
MULLIKEN ATOMIC CHARGES AND SPIN DENSITIES
------------------------------------------
   0 Ti:    0.494910    2.172603
   1 O :   -0.494910   -0.172603
Sum of atomic charges       :   -0.0000000
Sum of atomic spin densities:    2.0000000

---------------------------------------------------
MULLIKEN REDUCED ORBITAL CHARGES AND SPIN DENSITIES
---------------------------------------------------
CHARGE
  0 Tis       :     6.014152  s :     6.014152
      pz      :     4.028332  p :    12.107495
      px      :     4.039581
      py      :     4.039581
      dz2     :     0.523409  d :     3.310550
      dxz     :     0.397359
      dyz     :     0.397359
      dx2y2   :     0.996212
      dxy     :     0.996212
      f0      :     0.009180  f :     0.064249
      f+1     :     0.018812
      f-1     :     0.018812
      f+2     :     0.004198
      f-2     :     0.004198
      f+3     :     0.004524
      f-3     :     0.004524
      g0      :     0.002161  g :     0.008645
      g+1     :     0.002344
      g-1     :     0.002344
      g+2     :     0.000347
      g-2     :     0.000347
      g+3     :     0.000259
      g-3     :     0.000259
      g+4     :     0.000291
      g-4     :     0.000291
  1 O s       :     3.936243  s :     3.936243
      pz      :     1.447643  p :     4.506075
      px      :     1.529216
      py      :     1.529216
      dz2     :     0.012978  d :     0.048483
      dxz     :     0.011200
      dyz     :     0.011200
      dx2y2   :     0.006553
      dxy     :     0.006553
      f0      :     0.001020  f :     0.004108
      f+1     :     0.000698
      f-1     :     0.000698
      f+2     :     0.000472
      f-2     :     0.000472
      f+3     :     0.000374
      f-3     :     0.000374

SPIN
  0 Tis       :    -0.003744  s :    -0.003744
      pz      :     0.001078  p :     0.026317
      px      :     0.012620
      py      :     0.012620
      dz2     :     0.071575  d :     2.139030
      dxz     :     0.053774
      dyz     :     0.053774
      dx2y2   :     0.979953
      dxy     :     0.979953
      f0      :     0.000095  f :     0.010854
      f+1     :    -0.000069
      f-1     :    -0.000069
      f+2     :     0.001930
      f-2     :     0.001930
      f+3     :     0.003518
      f-3     :     0.003518
      g0      :    -0.000261  g :     0.000146
      g+1     :    -0.000221
      g-1     :    -0.000221
      g+2     :     0.000060
      g-2     :     0.000060
      g+3     :     0.000133
      g-3     :     0.000133
      g+4     :     0.000231
      g-4     :     0.000231
  1 O s       :    -0.001605  s :    -0.001605
      pz      :    -0.064642  p :    -0.172731
      px      :    -0.054045
      py      :    -0.054045
      dz2     :     0.000195  d :     0.001674
      dxz     :     0.000140
      dyz     :     0.000140
      dx2y2   :     0.000600
      dxy     :     0.000600
      f0      :     0.000020  f :     0.000060
      f+1     :    -0.000003
      f-1     :    -0.000003
      f+2     :     0.000033
      f-2     :     0.000033
      f+3     :    -0.000010
      f-3     :    -0.000010


                     *******************************
                     * LOEWDIN POPULATION ANALYSIS *
                     *******************************

-----------------------------------------
LOEWDIN ATOMIC CHARGES AND SPIN DENSITIES
-----------------------------------------
   0 Ti:   -0.024899    2.147176
   1 O :    0.024899   -0.147176

--------------------------------------------------
LOEWDIN REDUCED ORBITAL CHARGES AND SPIN DENSITIES
--------------------------------------------------
CHARGE
  0 Tis       :     6.017783  s :     6.017783
      pz      :     4.117435  p :    12.216127
      px      :     4.049346
      py      :     4.049346
      dz2     :     0.668067  d :     3.545398
      dxz     :     0.443487
      dyz     :     0.443487
      dx2y2   :     0.995178
      dxy     :     0.995178
      f0      :     0.077308  f :     0.206604
      f+1     :     0.055790
      f-1     :     0.055790
      f+2     :     0.004334
      f-2     :     0.004334
      f+3     :     0.004524
      f-3     :     0.004524
      g0      :     0.016015  g :     0.038988
      g+1     :     0.010558
      g-1     :     0.010558
      g+2     :     0.000378
      g-2     :     0.000378
      g+3     :     0.000259
      g-3     :     0.000259
      g+4     :     0.000291
      g-4     :     0.000291
  1 O s       :     3.528846  s :     3.528846
      pz      :     1.498851  p :     4.354136
      px      :     1.427643
      py      :     1.427643
      dz2     :     0.047014  d :     0.084667
      dxz     :     0.011501
      dyz     :     0.011501
      dx2y2   :     0.007326
      dxy     :     0.007326
      f0      :     0.003798  f :     0.007452
      f+1     :     0.000886
      f-1     :     0.000886
      f+2     :     0.000567
      f-2     :     0.000567
      f+3     :     0.000374
      f-3     :     0.000374

SPIN
  0 Tis       :    -0.003801  s :    -0.003801
      pz      :     0.001909  p :     0.023552
      px      :     0.010822
      py      :     0.010822
      dz2     :     0.067759  d :     2.123626
      dxz     :     0.049033
      dyz     :     0.049033
      dx2y2   :     0.978901
      dxy     :     0.978901
      f0      :    -0.000604  f :     0.005170
      f+1     :    -0.002640
      f-1     :    -0.002640
      f+2     :     0.002009
      f-2     :     0.002009
      f+3     :     0.003518
      f-3     :     0.003518
      g0      :    -0.000753  g :    -0.001371
      g+1     :    -0.000732
      g-1     :    -0.000732
      g+2     :     0.000059
      g-2     :     0.000059
      g+3     :     0.000133
      g-3     :     0.000133
      g+4     :     0.000231
      g-4     :     0.000231
  1 O s       :    -0.002556  s :    -0.002556
      pz      :    -0.058933  p :    -0.148215
      px      :    -0.044641
      py      :    -0.044641
      dz2     :    -0.000293  d :     0.003362
      dxz     :     0.000348
      dyz     :     0.000348
      dx2y2   :     0.001479
      dxy     :     0.001479
      f0      :    -0.000018  f :     0.000233
      f+1     :     0.000007
      f-1     :     0.000007
      f+2     :     0.000128
      f-2     :     0.000128
      f+3     :    -0.000010
      f-3     :    -0.000010


                      *****************************
                      * MAYER POPULATION ANALYSIS *
                      *****************************

  NA   - Mulliken gross atomic population
  ZA   - Total nuclear charge
  QA   - Mulliken gross atomic charge
  VA   - Mayer's total valence
  BVA  - Mayer's bonded valence
  FA   - Mayer's free valence

  ATOM       NA         ZA         QA         VA         BVA        FA
  0 Ti    21.5051    22.0000     0.4949     4.7648     2.0680     2.6968
  1 O      8.4949     8.0000    -0.4949     2.6307     2.0680     0.5627

  Mayer bond orders larger than 0.100000
B(  0-Ti,  1-O ) :   2.0680 



------------------------------------------------------------------------------- 
                                     TIMINGS                                   
------------------------------------------------------------------------------- 


Total execution time                   ...       19.457 sec

Fock Matrix Formation                  ...        0.262 sec (  1.3%)
Initial Guess                          ...        0.024 sec (  0.1%)
DIIS Solver                            ...        1.383 sec (  7.1%)
State Vector Update                    ...        0.062 sec (  0.3%)
Sigma-vector construction              ...       14.221 sec ( 73.1%)
  <0|H|D>                              ...        0.004 sec (  0.0% of sigma)
  <D|H|D>(0-ext Fock)                  ...        0.022 sec (  0.2% of sigma)
  <D|H|D>(0-ext)                       ...        0.079 sec (  0.6% of sigma)
  <D|H|D>(2-ext Fock)                  ...        0.009 sec (  0.1% of sigma)
  <D|H|D>(2-ext)                       ...        0.308 sec (  2.2% of sigma)
  <D|H|D>(4-ext)                       ...        6.788 sec ( 47.7% of sigma)
  <S|H|0>                              ...        0.660 sec (  4.6% of sigma)
  <S|H|S>                              ...        0.003 sec (  0.0% of sigma)
  <S|H|D>(1-ext)                       ...        0.006 sec (  0.0% of sigma)
  <D|H|S>(1-ext)                       ...        0.101 sec (  0.7% of sigma)
  Fock-dressing                        ...        2.637 sec ( 18.5% of sigma)
  (ik|jl)-dressing                     ...        0.097 sec (  0.7% of sigma)
  (ij|ab),(ia|jb)-dressing             ...        2.782 sec ( 19.6% of sigma)
  Pair energies                        ...        0.005 sec (  0.0% of sigma)
Total Time for computing (T)           ...        1.538 sec (  7.9% of ALL)
  I/O of integral and amplitudes       ...        0.392 sec ( 25.5% of (T))
  External N**7 contributions          ...        0.417 sec ( 27.1% of (T))
  Internal N**7 contributions          ...        0.211 sec ( 13.7% of (T))
  N**6 triples energy contributions    ...        0.480 sec ( 31.2% of (T))

----- Orbital basis set information -----
Your calculation utilizes the basis: def2-QZVPP
   F. Weigend and R. Ahlrichs, Phys. Chem. Chem. Phys. 7, 3297 (2005).

----- AuxJ basis set information -----
Your calculation utilizes the auxiliary basis: def2/J
   F. Weigend, Phys. Chem. Chem. Phys. 8, 1057 (2006).

----- AuxC basis set information -----
Your calculation utilizes the auxiliary basis: def2-QZVPP/C
  H-La, Hf-Rn : A. Hellweg, C. Hattig, S. Hofener and W. Klopper, Theor. Chem. Acc. 117, 587 (2007).
        Ce-Lu : J. Chmela and M. E. Harding, Mol. Phys. (2018).

----- AuxJK basis set information -----
Your calculation utilizes the auxiliary basis: def2/JK
   H-Ba, Hf-Rn: F. Weigend, J. Comput. Chem. 29, 167 (2008).

All done

                     -----------------------------------------
                     Extrapolated Energy 2 Basis=  def2-QZVPP
                     -----------------------------------------

---------------------------------
CARTESIAN COORDINATES (ANGSTROEM)
---------------------------------
  Ti     0.000000    0.000000    0.188782
  O      0.000000    0.000000    1.811218

----------------------------
CARTESIAN COORDINATES (A.U.)
----------------------------
  NO LB      ZA    FRAG     MASS         X           Y           Z
   0 Ti   22.0000    0    47.900    0.000000    0.000000    0.356746
   1 O     8.0000    0    15.999    0.000000    0.000000    3.422706

--------------------------------
INTERNAL COORDINATES (ANGSTROEM)
--------------------------------
 Ti     0   0   0     0.000000000000     0.00000000     0.00000000
 O      1   0   0     1.622435775100     0.00000000     0.00000000

---------------------------
INTERNAL COORDINATES (A.U.)
---------------------------
 Ti     0   0   0     0.000000000000     0.00000000     0.00000000
 O      1   0   0     3.065959284816     0.00000000     0.00000000

---------------------
BASIS SET INFORMATION
---------------------
There are 2 groups of distinct atoms

 Group   1 Type Ti  : 24s18p9d3f2g contracted to 11s6p5d3f2g pattern {114111111111/951111/51111/111/11}
 Group   2 Type O   : 15s8p3d2f1g contracted to 7s4p3d2f1g pattern {8211111/5111/111/11/1}

Atom   0Ti   basis set group =>   1
Atom   1O    basis set group =>   2
---------------------------------
AUXILIARY/J BASIS SET INFORMATION
---------------------------------
There are 2 groups of distinct atoms

 Group   1 Type Ti  : 19s5p5d3f3g contracted to 8s5p5d2f3g pattern {121111111/11111/11111/21/111}
 Group   2 Type O   : 12s5p4d2f1g contracted to 6s4p3d1f1g pattern {711111/2111/211/2/1}

Atom   0Ti   basis set group =>   1
Atom   1O    basis set group =>   2
---------------------------------
AUXILIARY/C BASIS SET INFORMATION
---------------------------------
There are 2 groups of distinct atoms

 Group   1 Type Ti  : 15s13p11d8f7g5h2i contracted to 15s13p11d8f7g5h2i pattern {111111111111111/1111111111111/11111111111/11111111/1111111/11111/11}
 Group   2 Type O   : 9s8p7d5f3g1h contracted to 9s8p7d5f3g1h pattern {111111111/11111111/1111111/11111/111/1}

Atom   0Ti   basis set group =>   1
Atom   1O    basis set group =>   2
----------------------------------
AUXILIARY/JK BASIS SET INFORMATION
----------------------------------
There are 2 groups of distinct atoms

 Group   1 Type Ti  : 19s14p12d10f7g3h1i contracted to 16s13p11d9f5g3h1i pattern {4111111111111111/2111111111111/21111111111/211111111/31111/111/1}
 Group   2 Type O   : 14s10p6d2f1g contracted to 10s8p4d2f1g pattern {5111111111/31111111/3111/11/1}

Atom   0Ti   basis set group =>   1
Atom   1O    basis set group =>   2

Checking for AutoStart:
The File: 11_TiO.gbw exists
Trying to determine its content:
     ... Fine, the file contains calculation information
     ... Fine, the calculation information was read
     ... Fine, the file contains a basis set
     ... Fine, the basis set was read
     ... Fine, the file contains a geometry
     ... Fine, the geometry was read
     ... Fine, the file contains a set of orbitals
     ... Fine, the orbitals can be read
     => possible old guess file was deleted
     => GBW file was renamed to GES file
     => GES file is set as startup file
     => Guess is set to MORead
     ... now leaving AutoStart



           ************************************************************
           *        Program running with 24 parallel MPI-processes    *
           *              working on a common directory               *
           ************************************************************
------------------------------------------------------------------------------
                           ORCA GTO INTEGRAL CALCULATION
------------------------------------------------------------------------------

                         BASIS SET STATISTICS AND STARTUP INFO

 # of primitive gaussian shells          ...   85
 # of primitive gaussian functions       ...  239
 # of contracted shells                  ...   44
 # of contracted basis functions         ...  150
 Highest angular momentum                ...    4
 Maximum contraction depth               ...   11
 Integral package used                   ... LIBINT
 Integral threshhold            Thresh   ...  1.000e-12
 Primitive cut-off              TCut     ...  1.000e-14


------------------------------ INTEGRAL EVALUATION ----------------------------


 * One electron integrals 
 Pre-screening matrix                    ... done
 Shell pair data                         ... done (   0.000 sec)



           ************************************************************
           *        Program running with 24 parallel MPI-processes    *
           *              working on a common directory               *
           ************************************************************
-------------------------------------------------------------------------------
                                 ORCA SCF
[...]
 10   -923.915139645     -0.653880442     -0.000011652      0.000066305    3.21      0.146519060
 11   -923.915137828     -0.653878625      0.000001817      0.000034955    3.22      0.146433751
 12   -923.915133083     -0.653873880      0.000004746      0.000015026    3.15      0.146398857
 13   -923.915135707     -0.653876504     -0.000002624      0.000011065    3.16      0.146382227
 14   -923.915135132     -0.653875929      0.000000575      0.000006358    3.15      0.146385097
 15   -923.915135791     -0.653876588     -0.000000659      0.000003640    3.15      0.146387761
 16   -923.915135779     -0.653876576      0.000000012      0.000002010    3.10      0.146390032
 17   -923.915135569     -0.653876366      0.000000210      0.000001279    3.09      0.146390351
 18   -923.915135466     -0.653876263      0.000000103      0.000000913    3.09      0.146389882
               --- The Coupled-Cluster iterations have converged ---

----------------------
COUPLED CLUSTER ENERGY
----------------------

E(0)                                       ...   -923.261259203
E(CORR)                                    ...     -0.653876263
E(TOT)                                     ...   -923.915135466
Singles norm <S|S>**1/2                    ...      0.146389882 ( 0.080553769, 0.065836113)  
T1 diagnostic                              ...      0.034504426                              

------------------
LARGEST AMPLITUDES
------------------
  12b-> 29b  -1b-> -1b       0.061760
  13b-> 30b  -1b-> -1b       0.061760
  11b-> 31b  -1b-> -1b       0.052193
  12a-> 29a  -1a-> -1a       0.050724
  13a-> 30a  -1a-> -1a       0.050724
  14a-> 24a  -1a-> -1a       0.048355
  15a-> 25a  -1a-> -1a       0.048355
  11b-> 26b  -1b-> -1b       0.041108
  12a-> 29a  12b-> 29b       0.032386
  13a-> 30a  13b-> 30b       0.032386
  11b-> 18b  -1b-> -1b       0.032009
  12b-> 36b  -1b-> -1b       0.031664
  13b-> 37b  -1b-> -1b       0.031664
  11b-> 43b  -1b-> -1b       0.031192
  14a-> 35a  -1a-> -1a       0.030377
  15a-> 36a  -1a-> -1a       0.030377

----------------------
UHF TRIPLES CORRECTION (Algorithm 1)
----------------------

Multiplier for the singles contribution    ...      1.000000000

SPIN-CASE Alpha-Alpha-Alpha:
10% done
20% done
30% done
40% done
50% done
60% done
70% done
80% done
90% done


SPIN-CASE Beta-Beta-Beta:
10% done
20% done
30% done
40% done
50% done
60% done
70% done
80% done
90% done


SPIN-CASE Alpha-Alpha-Beta:
10% done
20% done
30% done
40% done
50% done
60% done
70% done
80% done
90% done


SPIN-CASE Beta-Beta-Alpha:
10% done
20% done
30% done
40% done
50% done
60% done
70% done
80% done
90% done


Triples Correction (T)                     ...     -0.038199429
    alpha-alpha-alpha ... -0.002879639 (  7.5%)
    alpha-alpha-beta  ... -0.021027225 ( 55.0%)
    alpha-beta -beta  ... -0.013622505 ( 35.7%)
    beta -beta -beta  ... -0.000670060 (  1.8%)
Scaling of triples based on CCSD energies (Peterson et al. Molecular Physics 113, 1551 (2015))
E(T*) = f*E(T) where f = E(F12-CCSD)/E(CCSD) 
f = CCSD (with F12)/ CCSD (without F12)    ...      1.000000000
Scaled triples correction (T)              ...     -0.038199429

Final correlation energy                   ...     -0.692075691
E(CCSD)                                    ...   -923.915135466
E(CCSD(T))                                 ...   -923.953334894



        !!!!!!!!!!!!!!!!!!!!!!!!!!!!!!!!!!!!!!!!!!!!!!!!!!!!!!!!!!!!!!!!!!!!!!!!!! 
        !  Warning: Densities are linearized densities                           !
        !!!!!!!!!!!!!!!!!!!!!!!!!!!!!!!!!!!!!!!!!!!!!!!!!!!!!!!!!!!!!!!!!!!!!!!!!! 

NORM  =      1.216034773 sqrt=     1.102739667
W(HF) =      0.822344905
------------------------------------------------------------------------------
                           ORCA POPULATION ANALYSIS
------------------------------------------------------------------------------
Input electron density              ... 11_TiO.mdcip
Input spin density                  ... 11_TiO.mdcir
BaseName (.gbw .S,...)              ... 11_TiO

                    ********************************
                    * MULLIKEN POPULATION ANALYSIS *
                    ********************************

------------------------------------------
MULLIKEN ATOMIC CHARGES AND SPIN DENSITIES
------------------------------------------
   0 Ti:    0.553886    2.172787
   1 O :   -0.553886   -0.172787
Sum of atomic charges       :   -0.0000000
Sum of atomic spin densities:    2.0000000

---------------------------------------------------
MULLIKEN REDUCED ORBITAL CHARGES AND SPIN DENSITIES
---------------------------------------------------
CHARGE
  0 Tis       :     6.011493  s :     6.011493
      pz      :     4.043042  p :    12.098571
      px      :     4.027764
      py      :     4.027764
      dz2     :     0.520535  d :     3.263444
      dxz     :     0.376128
      dyz     :     0.376128
      dx2y2   :     0.995326
      dxy     :     0.995326
      f0      :     0.014221  f :     0.063378
      f+1     :     0.014939
      f-1     :     0.014939
      f+2     :     0.004614
      f-2     :     0.004614
      f+3     :     0.005026
      f-3     :     0.005026
      g0      :     0.001731  g :     0.009229
      g+1     :     0.002365
      g-1     :     0.002365
      g+2     :     0.000520
      g-2     :     0.000520
      g+3     :     0.000428
      g-3     :     0.000428
      g+4     :     0.000436
      g-4     :     0.000436
  1 O s       :     3.903938  s :     3.903938
      pz      :     1.464325  p :     4.585803
      px      :     1.560739
      py      :     1.560739
      dz2     :     0.012229  d :     0.056239
      dxz     :     0.014274
      dyz     :     0.014274
      dx2y2   :     0.007731
      dxy     :     0.007731
      f0      :     0.001548  f :     0.007250
      f+1     :     0.001455
      f-1     :     0.001455
      f+2     :     0.000836
      f-2     :     0.000836
      f+3     :     0.000560
      f-3     :     0.000560
      g0      :     0.000124  g :     0.000656
      g+1     :     0.000094
      g-1     :     0.000094
      g+2     :     0.000067
      g-2     :     0.000067
      g+3     :     0.000055
      g-3     :     0.000055
      g+4     :     0.000050
      g-4     :     0.000050

SPIN
  0 Tis       :    -0.000245  s :    -0.000245
      pz      :     0.004806  p :     0.029013
      px      :     0.012104
      py      :     0.012104
      dz2     :     0.070666  d :     2.131739
      dxz     :     0.051607
      dyz     :     0.051607
      dx2y2   :     0.978930
      dxy     :     0.978930
      f0      :     0.000253  f :     0.011964
      f+1     :    -0.000096
      f-1     :    -0.000096
      f+2     :     0.002176
      f-2     :     0.002176
      f+3     :     0.003776
      f-3     :     0.003776
      g0      :    -0.000090  g :     0.000315
      g+1     :    -0.000377
      g-1     :    -0.000377
      g+2     :     0.000080
      g-2     :     0.000080
      g+3     :     0.000185
      g-3     :     0.000185
      g+4     :     0.000315
      g-4     :     0.000315
  1 O s       :    -0.006025  s :    -0.006025
      pz      :    -0.066939  p :    -0.170908
      px      :    -0.051985
      py      :    -0.051985
      dz2     :     0.000213  d :     0.003547
      dxz     :     0.000523
      dyz     :     0.000523
      dx2y2   :     0.001144
      dxy     :     0.001144
      f0      :     0.000125  f :     0.000576
      f+1     :     0.000079
      f-1     :     0.000079
      f+2     :     0.000156
      f-2     :     0.000156
      f+3     :    -0.000010
      f-3     :    -0.000010
      g0      :     0.000006  g :     0.000023
      g+1     :     0.000003
      g-1     :     0.000003
      g+2     :     0.000005
      g-2     :     0.000005
      g+3     :     0.000000
      g-3     :     0.000000
      g+4     :    -0.000000
      g-4     :    -0.000000


                     *******************************
                     * LOEWDIN POPULATION ANALYSIS *
                     *******************************

-----------------------------------------
LOEWDIN ATOMIC CHARGES AND SPIN DENSITIES
-----------------------------------------
   0 Ti:   -0.108515    2.131309
   1 O :    0.108515   -0.131309

--------------------------------------------------
LOEWDIN REDUCED ORBITAL CHARGES AND SPIN DENSITIES
--------------------------------------------------
CHARGE
  0 Tis       :     6.004184  s :     6.004184
      pz      :     4.089474  p :    12.159886
      px      :     4.035206
      py      :     4.035206
      dz2     :     0.697750  d :     3.560803
      dxz     :     0.439456
      dyz     :     0.439456
      dx2y2   :     0.992070
      dxy     :     0.992070
      f0      :     0.109541  f :     0.255832
      f+1     :     0.063144
      f-1     :     0.063144
      f+2     :     0.004977
      f-2     :     0.004977
      f+3     :     0.005025
      f-3     :     0.005025
      g0      :     0.045459  g :     0.127810
      g+1     :     0.039584
      g-1     :     0.039584
      g+2     :     0.000726
      g-2     :     0.000726
      g+3     :     0.000430
      g-3     :     0.000430
      g+4     :     0.000436
      g-4     :     0.000436
  1 O s       :     3.393143  s :     3.393143
      pz      :     1.510819  p :     4.302630
      px      :     1.395906
      py      :     1.395906
      dz2     :     0.096107  d :     0.154009
      dxz     :     0.019294
      dyz     :     0.019294
      dx2y2   :     0.009657
      dxy     :     0.009657
      f0      :     0.025693  f :     0.039791
      f+1     :     0.004923
      f-1     :     0.004923
      f+2     :     0.001568
      f-2     :     0.001568
      f+3     :     0.000559
      f-3     :     0.000559
      g0      :     0.001016  g :     0.001911
      g+1     :     0.000246
      g-1     :     0.000246
      g+2     :     0.000096
      g-2     :     0.000096
      g+3     :     0.000055
      g-3     :     0.000055
      g+4     :     0.000050
      g-4     :     0.000050

SPIN
  0 Tis       :    -0.002718  s :    -0.002718
      pz      :     0.002318  p :     0.022855
      px      :     0.010269
      py      :     0.010269
      dz2     :     0.066398  d :     2.110378
      dxz     :     0.046352
      dyz     :     0.046352
      dx2y2   :     0.975638
      dxy     :     0.975638
      f0      :    -0.001109  f :     0.005155
      f+1     :    -0.003074
      f-1     :    -0.003074
      f+2     :     0.002432
      f-2     :     0.002432
      f+3     :     0.003775
      f-3     :     0.003775
      g0      :    -0.000703  g :    -0.004361
      g+1     :    -0.002432
      g-1     :    -0.002432
      g+2     :     0.000104
      g-2     :     0.000104
      g+3     :     0.000184
      g-3     :     0.000184
      g+4     :     0.000315
      g-4     :     0.000315
  1 O s       :    -0.003074  s :    -0.003074
      pz      :    -0.057156  p :    -0.136984
      px      :    -0.039914
      py      :    -0.039914
      dz2     :    -0.000884  d :     0.007085
      dxz     :     0.000598
      dyz     :     0.000598
      dx2y2   :     0.003387
      dxy     :     0.003387
      f0      :    -0.000291  f :     0.001606
      f+1     :     0.000060
      f-1     :     0.000060
      f+2     :     0.000897
      f-2     :     0.000897
      f+3     :    -0.000008
      f-3     :    -0.000008
      g0      :    -0.000011  g :     0.000057
      g+1     :     0.000000
      g-1     :     0.000000
      g+2     :     0.000033
      g-2     :     0.000033
      g+3     :     0.000000
      g-3     :     0.000000
      g+4     :    -0.000000
      g-4     :    -0.000000


                      *****************************
                      * MAYER POPULATION ANALYSIS *
                      *****************************

  NA   - Mulliken gross atomic population
  ZA   - Total nuclear charge
  QA   - Mulliken gross atomic charge
  VA   - Mayer's total valence
  BVA  - Mayer's bonded valence
  FA   - Mayer's free valence

  ATOM       NA         ZA         QA         VA         BVA        FA
  0 Ti    21.4461    22.0000     0.5539     4.7173     2.0205     2.6968
  1 O      8.5539     8.0000    -0.5539     2.5918     2.0205     0.5713

  Mayer bond orders larger than 0.100000
B(  0-Ti,  1-O ) :   2.0205 



------------------------------------------------------------------------------- 
                                     TIMINGS                                   
------------------------------------------------------------------------------- 


Total execution time                   ...       77.302 sec

Fock Matrix Formation                  ...        0.895 sec (  1.2%)
Initial Guess                          ...        0.063 sec (  0.1%)
DIIS Solver                            ...        3.679 sec (  4.8%)
State Vector Update                    ...        0.164 sec (  0.2%)
Sigma-vector construction              ...       55.955 sec ( 72.4%)
  <0|H|D>                              ...        0.009 sec (  0.0% of sigma)
  <D|H|D>(0-ext Fock)                  ...        0.067 sec (  0.1% of sigma)
  <D|H|D>(0-ext)                       ...        0.266 sec (  0.5% of sigma)
  <D|H|D>(2-ext Fock)                  ...        0.025 sec (  0.0% of sigma)
  <D|H|D>(2-ext)                       ...        1.091 sec (  1.9% of sigma)
  <D|H|D>(4-ext)                       ...       29.824 sec ( 53.3% of sigma)
  <S|H|0>                              ...        2.786 sec (  5.0% of sigma)
  <S|H|S>                              ...        0.004 sec (  0.0% of sigma)
  <S|H|D>(1-ext)                       ...        0.015 sec (  0.0% of sigma)
  <D|H|S>(1-ext)                       ...        0.277 sec (  0.5% of sigma)
  Fock-dressing                        ...       10.921 sec ( 19.5% of sigma)
  (ik|jl)-dressing                     ...        0.307 sec (  0.5% of sigma)
  (ij|ab),(ia|jb)-dressing             ...        8.584 sec ( 15.3% of sigma)
  Pair energies                        ...        0.014 sec (  0.0% of sigma)
Total Time for computing (T)           ...        8.726 sec ( 11.3% of ALL)
  I/O of integral and amplitudes       ...        1.404 sec ( 16.1% of (T))
  External N**7 contributions          ...        3.036 sec ( 34.8% of (T))
  Internal N**7 contributions          ...        1.027 sec ( 11.8% of (T))
  N**6 triples energy contributions    ...        2.888 sec ( 33.1% of (T))


-------------------
EXTRAPOLATED ENERGY
-------------------


-----------------------------------------------------------------
                      EP1 - MDCI extrapolation:
-----------------------------------------------------------------
NOTE: We use as reference SCF energy, for the extrapolation, the one from the MDCI module and not the one 
from the SCF calculation. In case the first step is a DFT calculation these two might be different.

NOTE: For the SCF part we extrapolate based on the scheme proposed in J. Chem. Phys. 2008, 129, 184116
using the exponents from J. Chem. Theory Comput., 7, 33-43 (2011)

NOTE: For the correlation part we extrapolate based on the scheme proposed in J. Chem. Phys. 1997, 106, 9639
using the exponents from J. Chem. Theory Comput., 7, 33-43 (2011)


Alpha(3/4)     :  7.880 (SCF Extrapolation)
Beta(3/4)      :  2.970 (correlation extrapolation)

SCF energy with basis def2-TZVPP:                      -923.242297905
SCF energy with basis def2-QZVPP:                      -923.261259203
Extrapolated CBS SCF energy (3/4) :                    -923.263870908 (-0.002611704) 

MDCI energy with basis def2-TZVPP:                       -0.643011267
MDCI energy with basis def2-QZVPP:                       -0.692075691
Extrapolated CBS correlation energy (3/4) :              -0.728419682 (-0.036343991)

Estimated CBS total energy (3/4) :                     -923.992290590



-------------------------   --------------------
FINAL SINGLE POINT ENERGY      -923.992290589582
-------------------------   --------------------


                            ***************************************
                            *     ORCA property calculations      *
                            ***************************************

                                    ---------------------
                                    Active property flags
                                    ---------------------
   (+) Dipole Moment


------------------------------------------------------------------------------
                       ORCA ELECTRIC PROPERTIES CALCULATION
------------------------------------------------------------------------------

Dipole Moment Calculation                       ... on
Quadrupole Moment Calculation                   ... off
Polarizability Calculation                      ... off
GBWName                                         ... 11_TiO.gbw
Electron density file                           ... 11_TiO.scfp
The origin for moment calculation is the CENTER OF MASS  = ( 0.000000,  0.000000  1.124400)

-------------
DIPOLE MOMENT
-------------
                                X             Y             Z
Electronic contribution:     -0.00000       0.00000      -4.94634
Nuclear contribution   :      0.00000       0.00000       1.49807
                        -----------------------------------------
Total Dipole Moment    :     -0.00000       0.00000      -3.44827
                        -----------------------------------------
Magnitude (a.u.)       :      3.44827
Magnitude (Debye)      :      8.76480



--------------------
Rotational spectrum 
--------------------
 
Rotational constants in cm-1:     0.000000     0.533983     0.533983 
Rotational constants in MHz :     0.000000 16008.413204 16008.413204 

 Dipole components along the rotational axes: 
x,y,z [a.u.] :    -3.448268     0.000000    -0.000000 
x,y,z [Debye]:    -8.764801     0.000000    -0.000000 

 

                           *** MDCI DENSITY ***

------------------------------------------------------------------------------
                       ORCA ELECTRIC PROPERTIES CALCULATION
------------------------------------------------------------------------------

Dipole Moment Calculation                       ... on
Quadrupole Moment Calculation                   ... off
Polarizability Calculation                      ... off
GBWName                                         ... 11_TiO.gbw
Electron density file                           ... 11_TiO.mdcip
The origin for moment calculation is the CENTER OF MASS  = ( 0.000000,  0.000000  1.124400)

-------------
DIPOLE MOMENT
-------------
                                X             Y             Z
Electronic contribution:     -0.00000       0.00000      -4.03862
Nuclear contribution   :      0.00000       0.00000       1.49807
                        -----------------------------------------
Total Dipole Moment    :     -0.00000       0.00000      -2.54055
                        -----------------------------------------
Magnitude (a.u.)       :      2.54055
Magnitude (Debye)      :      6.45756



--------------------
Rotational spectrum 
--------------------
 
Rotational constants in cm-1:     0.000000     0.533983     0.533983 
Rotational constants in MHz :     0.000000 16008.413204 16008.413204 

 Dipole components along the rotational axes: 
x,y,z [a.u.] :    -2.540550     0.000000    -0.000000 
x,y,z [Debye]:    -6.457564     0.000000    -0.000000 

 

Timings for individual modules:

Sum of individual times         ...      113.545 sec (=   1.892 min)
GTO integral calculation        ...        1.545 sec (=   0.026 min)   1.4 %
SCF iterations                  ...       13.763 sec (=   0.229 min)  12.1 %
MDCI module                     ...       98.237 sec (=   1.637 min)  86.5 %
                             ****ORCA TERMINATED NORMALLY****
TOTAL RUN TIME: 0 days 0 hours 1 minutes 54 seconds 478 msec
