
                                 *****************
                                 * O   R   C   A *
                                 *****************

           --- An Ab Initio, DFT and Semiempirical electronic structure package ---

                  #######################################################
                  #                        -***-                        #
                  #          Department of theory and spectroscopy      #
                  #               Directorship: Frank Neese             #
                  #        Max Planck Institute fuer Kohlenforschung    #
                  #                Kaiser Wilhelm Platz 1               #
                  #                 D-45470 Muelheim/Ruhr               #
                  #                      Germany                        #
                  #                                                     #
                  #                  All rights reserved                #
                  #                        -***-                        #
                  #######################################################


                         Program Version 4.2.0 -  RELEASE  -


 With contributions from (in alphabetic order):
   Daniel Aravena         : Magnetic Suceptibility
   Michael Atanasov       : Ab Initio Ligand Field Theory (pilot matlab implementation)
   Alexander A. Auer      : GIAO ZORA, VPT2
   Ute Becker             : Parallelization
   Giovanni Bistoni       : ED, misc. LED, open-shell LED, HFLED
   Martin Brehm           : Molecular dynamics
   Dmytro Bykov           : SCF Hessian
   Vijay G. Chilkuri      : MRCI spin determinant printing, contributions to CSF-ICE
   Dipayan Datta          : RHF DLPNO-CCSD density
   Achintya Kumar Dutta   : EOM-CC, STEOM-CC
   Dmitry Ganyushin       : Spin-Orbit,Spin-Spin,Magnetic field MRCI
   Miquel Garcia          : C-PCM Hessian, Gaussian charge scheme
   Yang Guo               : DLPNO-NEVPT2, CIM, IAO-localization
   Andreas Hansen         : Spin unrestricted coupled pair/coupled cluster methods
   Benjamin Helmich-Paris : CASSCF linear response (MC-RPA)
   Lee Huntington         : MR-EOM, pCC
   Robert Izsak           : Overlap fitted RIJCOSX, COSX-SCS-MP3, EOM
   Christian Kollmar      : KDIIS, OOCD, Brueckner-CCSD(T), CCSD density
   Simone Kossmann        : Meta GGA functionals, TD-DFT gradient, OOMP2, MP2 Hessian
   Martin Krupicka        : AUTO-CI
   Lucas Lang             : DCDCAS
   Dagmar Lenk            : GEPOL surface, SMD
   Dimitrios Liakos       : Extrapolation schemes; Compound Job, initial MDCI parallelization
   Dimitrios Manganas     : Further ROCIS development; embedding schemes
   Dimitrios Pantazis     : SARC Basis sets
   Taras Petrenko         : DFT Hessian,TD-DFT gradient, ASA, ECA, R-Raman, ABS, FL, XAS/XES, NRVS
   Peter Pinski           : DLPNO-MP2, DLPNO-MP2 Gradient
   Christoph Reimann      : Effective Core Potentials
   Marius Retegan         : Local ZFS, SOC
   Christoph Riplinger    : Optimizer, TS searches, QM/MM, DLPNO-CCSD(T), (RO)-DLPNO pert. Triples
   Tobias Risthaus        : Range-separated hybrids, TD-DFT gradient, RPA, STAB
   Michael Roemelt        : Original ROCIS implementation
   Masaaki Saitow         : Open-shell DLPNO-CCSD energy and density
   Barbara Sandhoefer     : DKH picture change effects
   Avijit Sen             : IP-ROCIS
   Kantharuban Sivalingam : CASSCF convergence, NEVPT2, FIC-MRCI
   Bernardo de Souza      : ESD, SOC TD-DFT
   Georgi Stoychev        : AutoAux, RI-MP2 NMR
   Willem Van den Heuvel  : Paramagnetic NMR
   Boris Wezisla          : Elementary symmetry handling
   Frank Wennmohs         : Technical directorship


 We gratefully acknowledge several colleagues who have allowed us to
 interface, adapt or use parts of their codes:
   Stefan Grimme, W. Hujo, H. Kruse,             : VdW corrections, initial TS optimization,
                  C. Bannwarth                     DFT functionals, gCP, sTDA/sTD-DF
   Ed Valeev, F. Pavosevic, A. Kumar             : LibInt (2-el integral package), F12 methods
   Garnet Chan, S. Sharma, J. Yang, R. Olivares  : DMRG
   Ulf Ekstrom                                   : XCFun DFT Library
   Mihaly Kallay                                 : mrcc  (arbitrary order and MRCC methods)
   Andreas Klamt, Michael Diedenhofen            : otool_cosmo (COSMO solvation model)
   Jiri Pittner, Ondrej Demel                    : Mk-CCSD
   Frank Weinhold                                : gennbo (NPA and NBO analysis)
   Christopher J. Cramer and Donald G. Truhlar   : smd solvation model
   Lars Goerigk                                  : TD-DFT with DH, B97 family of functionals
   V. Asgeirsson, H. Jonsson                     : NEB implementation
   FAccTs GmbH                                   : IRC, NEB, NEB-TS, Multilevel, MM, QM/MM, CI optimization
   S Lehtola, MJT Oliveira, MAL Marques          : LibXC Library


 Your calculation uses the libint2 library for the computation of 2-el integrals
 For citations please refer to: http://libint.valeyev.net

 Your ORCA version has been built with support for libXC version: 4.2.3
 For citations please refer to: https://tddft.org/programs/libxc/

 This ORCA versions uses:
   CBLAS   interface :  Fast vector & matrix operations
   LAPACKE interface :  Fast linear algebra routines
   SCALAPACK package :  Parallel linear algebra routines


----- Orbital basis set information -----
Your calculation utilizes the basis: def2-TZVPP
   F. Weigend and R. Ahlrichs, Phys. Chem. Chem. Phys. 7, 3297 (2005).

================================================================================
                                        WARNINGS
                       Please study these warnings very carefully!
================================================================================


WARNING: your system is open-shell and RHF/RKS was chosen
  ===> : WILL SWITCH to UHF/UKS


WARNING: MDCI localization with Augmented Hessian Foster-Boys
  ===> : Switching off randomization!

WARNING: Post HF methods need fully converged wavefunctions
  ===> : Setting SCFConvForced true
         You can overwrite this default with %scf ConvForced false 


INFO   : the flag for use of LIBINT has been found!

================================================================================
                                       INPUT FILE
================================================================================
NAME = 14_VF.in
|  1> #
|  2> # 14_VF ccsd(t)/cbs
|  3> #
|  4> ! ccsd(t) extrapolate(3/4,def2) verytightscf
|  5> 
|  6> *xyz 0 5
|  7>   V   0.00000000000000      0.00000000000000      0.09137228252025
|  8>   F   0.00000000000000      0.00000000000000      1.90862771747975
|  9> *
| 10> 
| 11> %maxcore 5000
| 12> %pal
| 13> nprocs 24
| 14> end
| 15> 
| 16> 
| 17>                          ****END OF INPUT****
================================================================================

                   *****************************************
                   * Extrapolated Single Point Calculation *
                   *****************************************

----- Orbital basis set information -----
Your calculation utilizes the basis: def2-TZVPP
   F. Weigend and R. Ahlrichs, Phys. Chem. Chem. Phys. 7, 3297 (2005).

----- AuxJ basis set information -----
Your calculation utilizes the auxiliary basis: def2/J
   F. Weigend, Phys. Chem. Chem. Phys. 8, 1057 (2006).

----- AuxC basis set information -----
Your calculation utilizes the auxiliary basis: def2-TZVPP/C
  H-La, Hf-Rn : A. Hellweg, C. Hattig, S. Hofener and W. Klopper, Theor. Chem. Acc. 117, 587 (2007).
        Ce-Lu : J. Chmela and M. E. Harding, Mol. Phys. (2018).

----- AuxJK basis set information -----
Your calculation utilizes the auxiliary basis: def2/JK
   H-Ba, Hf-Rn: F. Weigend, J. Comput. Chem. 29, 167 (2008).

All done

                     -----------------------------------------
                     Extrapolated Energy 1 Basis=  def2-TZVPP
                     -----------------------------------------

---------------------------------
CARTESIAN COORDINATES (ANGSTROEM)
---------------------------------
  V      0.000000    0.000000    0.091372
  F      0.000000    0.000000    1.908628

----------------------------
CARTESIAN COORDINATES (A.U.)
----------------------------
  NO LB      ZA    FRAG     MASS         X           Y           Z
   0 V    23.0000    0    50.940    0.000000    0.000000    0.172669
   1 F     9.0000    0    18.998    0.000000    0.000000    3.606784

--------------------------------
INTERNAL COORDINATES (ANGSTROEM)
--------------------------------
 V      0   0   0     0.000000000000     0.00000000     0.00000000
 F      1   0   0     1.817255434959     0.00000000     0.00000000

---------------------------
INTERNAL COORDINATES (A.U.)
---------------------------
 V      0   0   0     0.000000000000     0.00000000     0.00000000
 F      1   0   0     3.434115087453     0.00000000     0.00000000

---------------------
BASIS SET INFORMATION
---------------------
There are 2 groups of distinct atoms

 Group   1 Type V   : 17s12p7d2f1g contracted to 6s5p4d2f1g pattern {842111/63111/4111/11/1}
 Group   2 Type F   : 11s6p2d1f contracted to 5s3p2d1f pattern {62111/411/11/1}

Atom   0V    basis set group =>   1
Atom   1F    basis set group =>   2
---------------------------------
AUXILIARY/J BASIS SET INFORMATION
---------------------------------
There are 2 groups of distinct atoms

 Group   1 Type V   : 19s5p5d3f3g contracted to 8s5p5d2f3g pattern {121111111/11111/11111/21/111}
 Group   2 Type F   : 12s5p4d2f1g contracted to 6s4p3d1f1g pattern {711111/2111/211/2/1}

Atom   0V    basis set group =>   1
Atom   1F    basis set group =>   2
---------------------------------
AUXILIARY/C BASIS SET INFORMATION
---------------------------------
There are 2 groups of distinct atoms

 Group   1 Type V   : 9s9p8d7f5g3h1i contracted to 9s9p8d7f5g3h1i pattern {111111111/111111111/11111111/1111111/11111/111/1}
 Group   2 Type F   : 8s6p5d3f1g contracted to 8s6p4d3f1g pattern {11111111/111111/2111/111/1}

Atom   0V    basis set group =>   1
Atom   1F    basis set group =>   2
----------------------------------
AUXILIARY/JK BASIS SET INFORMATION
----------------------------------
There are 2 groups of distinct atoms

 Group   1 Type V   : 19s14p12d10f7g3h1i contracted to 16s13p11d9f5g3h1i pattern {4111111111111111/2111111111111/21111111111/211111111/31111/111/1}
 Group   2 Type F   : 14s10p6d2f1g contracted to 10s8p4d2f1g pattern {5111111111/31111111/3111/11/1}

Atom   0V    basis set group =>   1
Atom   1F    basis set group =>   2


           ************************************************************
           *        Program running with 24 parallel MPI-processes    *
           *              working on a common directory               *
           ************************************************************
------------------------------------------------------------------------------
                           ORCA GTO INTEGRAL CALCULATION
------------------------------------------------------------------------------

                         BASIS SET STATISTICS AND STARTUP INFO

 # of primitive gaussian shells          ...   59
 # of primitive gaussian functions       ...  157
 # of contracted shells                  ...   29
 # of contracted basis functions         ...   95
 Highest angular momentum                ...    4
 Maximum contraction depth               ...    8
 Integral package used                   ... LIBINT
 Integral threshhold            Thresh   ...  1.000e-12
 Primitive cut-off              TCut     ...  1.000e-14


------------------------------ INTEGRAL EVALUATION ----------------------------


 * One electron integrals 
 Pre-screening matrix                    ... done
 Shell pair data                         ... done (   0.000 sec)



           ************************************************************
           *        Program running with 24 parallel MPI-processes    *
           *              working on a common directory               *
           ************************************************************
-------------------------------------------------------------------------------
                                 ORCA SCF
-------------------------------------------------------------------------------

------------
SCF SETTINGS
------------
Hamiltonian:
 Ab initio Hamiltonian  Method          .... Hartree-Fock(GTOs)


General Settings:
 Integral files         IntName         .... 14_VF
 Hartree-Fock type      HFTyp           .... UHF
 Total Charge           Charge          ....    0
 Multiplicity           Mult            ....    5
 Number of Electrons    NEL             ....   32
 Basis Dimension        Dim             ....   95
 Nuclear Repulsion      ENuc            ....     60.2775372195 Eh

Convergence Acceleration:
 DIIS                   CNVDIIS         .... on
   Start iteration      DIISMaxIt       ....    12
   Startup error        DIISStart       ....  0.200000
   # of expansion vecs  DIISMaxEq       ....     5
   Bias factor          DIISBfac        ....   1.050
   Max. coefficient     DIISMaxC        ....  10.000
 Newton-Raphson         CNVNR           .... off
 SOSCF                  CNVSOSCF        .... off
 Level Shifting         CNVShift        .... on
   Level shift para.    LevelShift      ....    0.2500
   Turn off err/grad.   ShiftErr        ....    0.0010
 Zerner damping         CNVZerner       .... off
 Static damping         CNVDamp         .... on
   Fraction old density DampFac         ....    0.7000
   Max. Damping (<1)    DampMax         ....    0.9800
   Min. Damping (>=0)   DampMin         ....    0.0000
   Turn off err/grad.   DampErr         ....    0.1000
 Fernandez-Rico         CNVRico         .... off

SCF Procedure:
 Maximum # iterations   MaxIter         ....   125
 SCF integral mode      SCFMode         .... Direct
   Integral package                     .... LIBINT
 Reset frequency        DirectResetFreq ....    20
 Integral Threshold     Thresh          ....  1.000e-12 Eh
 Primitive CutOff       TCut            ....  1.000e-14 Eh

Convergence Tolerance:
 Convergence Check Mode ConvCheckMode   .... Total+1el-Energy
 Convergence forced     ConvForced      .... 1
 Energy Change          TolE            ....  1.000e-09 Eh
 1-El. energy change                    ....  1.000e-06 Eh
 DIIS Error             TolErr          ....  1.000e-08


Diagonalization of the overlap matrix:
Smallest eigenvalue                        ... 5.198e-03
Time for diagonalization                   ...    0.019 sec
Threshold for overlap eigenvalues          ... 1.000e-08
Number of eigenvalues below threshold      ... 0
Time for construction of square roots      ...    0.001 sec
Total time needed                          ...    0.021 sec

-------------------
DFT GRID GENERATION
-------------------

General Integration Accuracy     IntAcc      ...  4.340
Radial Grid Type                 RadialGrid  ... Gauss-Chebyshev
Angular Grid (max. acc.)         AngularGrid ... Lebedev-110
Angular grid pruning method      GridPruning ... 3 (G Style)
Weight generation scheme         WeightScheme... Becke
Basis function cutoff            BFCut       ...    1.0000e-12
Integration weight cutoff        WCut        ...    1.0000e-14
Grids for H and He will be reduced by one unit

# of grid points (after initial pruning)     ...   4712 (   0.0 sec)
# of grid points (after weights+screening)   ...   4687 (   0.0 sec)
nearest neighbour list constructed           ...    0.0 sec
Grid point re-assignment to atoms done       ...    0.0 sec
Grid point division into batches done        ...    0.0 sec
Reduced shell lists constructed in    0.0 sec

Total number of grid points                  ...     4687
Total number of batches                      ...       75
Average number of points per batch           ...       62
Average number of grid points per atom       ...     2344
Average number of shells per batch           ...     8.80 (30.34%)
Average number of basis functions per batch  ...    28.00 (29.47%)
Average number of large shells per batch     ...     6.00 (68.18%)
Average number of large basis fcns per batch ...    19.60 (70.00%)
Maximum spatial batch extension              ...  18.98, 28.73, 15.95 au
Average spatial batch extension              ...   0.93,  1.29,  0.85 au

Time for grid setup =    0.018 sec

------------------------------
INITIAL GUESS: MODEL POTENTIAL
------------------------------
Loading Hartree-Fock densities                     ... done
Calculating cut-offs                               ... done
Setting up the integral package                    ... done
Initializing the effective Hamiltonian             ... done
Starting the Coulomb interaction                   ... done (   0.0 sec)
Reading the grid                                   ... done
Mapping shells                                     ... done
Starting the XC term evaluation                    ... done (   0.0 sec)
Transforming the Hamiltonian                       ... done (   0.0 sec)
Diagonalizing the Hamiltonian                      ... done (   0.0 sec)
Back transforming the eigenvectors                 ... done (   0.0 sec)
Now organizing SCF variables                       ... done
                      ------------------
                      INITIAL GUESS DONE (   0.1 sec)
                      ------------------
--------------
SCF ITERATIONS
--------------
ITER       Energy         Delta-E        Max-DP      RMS-DP      [F,P]     Damp
               ***  Starting incremental Fock matrix formation  ***
  0  -1042.3057476037   0.000000000000 0.01546692  0.00053635  0.3347286 0.7000
  1  -1042.3359156390  -0.030168035304 0.01167826  0.00038997  0.2494362 0.7000
                               ***Turning on DIIS***
  2  -1042.3545406909  -0.018625051935 0.00918115  0.00026640  0.1842420 0.7000
  3  -1042.7755460204  -0.421005329509 0.00804888  0.00021911  0.1344396 0.7000
  4  -1042.6993928369   0.076153183519 0.03420758  0.00071856  0.0945349 0.0000
  5  -1042.4234615232   0.275931313739 0.02013569  0.00031039  0.0160726 0.0000
  6  -1042.4258953812  -0.002433857988 0.01904858  0.00032322  0.0151453 0.0000
  7  -1042.4817673475  -0.055871966316 0.02102558  0.00039241  0.0146572 0.0000
  8  -1042.5265224225  -0.044755075072 0.02163058  0.00047774  0.0141472 0.0000
  9  -1042.5669350159  -0.040412593378 0.02045324  0.00052106  0.0131418 0.0000
 10  -1042.5390565116   0.027878504324 0.01944181  0.00046022  0.0112229 0.0000
 11  -1042.6861700380  -0.147113526435 0.02874650  0.00067252  0.0087518 0.0000
 12  -1042.4774564702   0.208713567863 0.01349977  0.00017854  0.0072366 0.0000
 13  -1042.5857466867  -0.108290216552 0.01792172  0.00047061  0.0060003 0.0000
 14  -1042.5631254872   0.022621199549 0.01273328  0.00025885  0.0060967 0.0000
 15  -1042.4993300737   0.063795413431 0.01087511  0.00020774  0.0047453 0.0000
 16  -1042.4713244335   0.028005640207 0.00649160  0.00014457  0.0036959 0.0000
 17  -1042.4611033215   0.010221112002 0.00661028  0.00013516  0.0030245 0.0000
 18  -1042.4523754112   0.008727910345 0.00730791  0.00013739  0.0023574 0.0000
 19  -1042.4455810130   0.006794398154 0.00497929  0.00009094  0.0016995 0.0000
               *** Restarting incremental Fock matrix formation ***
                                   *** Resetting DIIS ***
 20  -1042.4345542817   0.011026731350 0.00062859  0.00001350  0.0011247 0.0000
 21  -1042.4352472852  -0.000693003471 0.00110723  0.00001898  0.0008407 0.0000
 22  -1042.4333642467   0.001883038457 0.00093151  0.00001979  0.0007556 0.0000
 23  -1042.4338335649  -0.000469318209 0.00122074  0.00002659  0.0007463 0.0000
 24  -1042.4330328384   0.000800726519 0.00148750  0.00002785  0.0006247 0.0000
 25  -1042.4340381299  -0.001005291516 0.00119132  0.00002034  0.0004205 0.0000
 26  -1042.4345713372  -0.000533207260 0.00073344  0.00001311  0.0002510 0.0000
 27  -1042.4348028082  -0.000231470992 0.00071911  0.00001400  0.0001527 0.0000
 28  -1042.4354330169  -0.000630208783 0.00051120  0.00001125  0.0000676 0.0000
 29  -1042.4348156853   0.000617331634 0.00017092  0.00000379  0.0000288 0.0000
 30  -1042.4346983539   0.000117331402 0.00004030  0.00000104  0.0000106 0.0000
 31  -1042.4346125303   0.000085823646 0.00002504  0.00000030  0.0000061 0.0000
 32  -1042.4346068011   0.000005729151 0.00001378  0.00000018  0.0000054 0.0000
 33  -1042.4345948935   0.000011907653 0.00000738  0.00000014  0.0000053 0.0000
 34  -1042.4345853603   0.000009533101 0.00000555  0.00000014  0.0000049 0.0000
 35  -1042.4345901439  -0.000004783516 0.00000404  0.00000008  0.0000043 0.0000
 36  -1042.4345894421   0.000000701798 0.00000519  0.00000009  0.0000037 0.0000
 37  -1042.4345958792  -0.000006437153 0.00000756  0.00000013  0.0000030 0.0000
 38  -1042.4345990003  -0.000003121050 0.00001102  0.00000019  0.0000021 0.0000
 39  -1042.4346020947  -0.000003094473 0.00000652  0.00000012  0.0000009 0.0000
               *** Restarting incremental Fock matrix formation ***
                                   *** Resetting DIIS ***
 40  -1042.4345975812   0.000004513582 0.00000031  0.00000001  0.0000003 0.0000
 41  -1042.4345973480   0.000000233175 0.00000015  0.00000001  0.0000002 0.0000
 42  -1042.4345990330  -0.000001685035 0.00000038  0.00000001  0.0000002 0.0000
 43  -1042.4345979864   0.000001046656 0.00000021  0.00000001  0.0000002 0.0000
 44  -1042.4345981757  -0.000000189303 0.00000030  0.00000001  0.0000002 0.0000
 45  -1042.4345978594   0.000000316270 0.00000034  0.00000001  0.0000001 0.0000
 46  -1042.4345978126   0.000000046838 0.00000031  0.00000001  0.0000001 0.0000
 47  -1042.4345975915   0.000000221078 0.00000022  0.00000000  0.0000001 0.0000
 48  -1042.4345975148   0.000000076667 0.00000023  0.00000000  0.0000000 0.0000
                            ***DIIS convergence achieved***

               *****************************************************
               *                     SUCCESS                       *
               *           SCF CONVERGED AFTER  49 CYCLES          *
               *****************************************************


----------------
TOTAL SCF ENERGY
----------------

Total Energy       :        -1042.43459754 Eh          -28366.08750 eV

Components:
Nuclear Repulsion  :           60.27753722 Eh            1640.23518 eV
Electronic Energy  :        -1102.71213476 Eh          -30006.32268 eV
One Electron Energy:        -1555.77770002 Eh          -42334.86348 eV
Two Electron Energy:          453.06556526 Eh           12328.54080 eV

Virial components:
Potential Energy   :        -2084.83464579 Eh          -56731.23487 eV
Kinetic Energy     :         1042.40004825 Eh           28365.14737 eV
Virial Ratio       :            2.00003314


---------------
SCF CONVERGENCE
---------------

  Last Energy change         ...   -2.3969e-08  Tolerance :   1.0000e-09
  Last MAX-Density change    ...    9.7146e-08  Tolerance :   1.0000e-08
  Last RMS-Density change    ...    1.8258e-09  Tolerance :   1.0000e-09
  Last DIIS Error            ...    1.3700e-08  Tolerance :   1.0000e-08

             **** THE GBW FILE WAS UPDATED (14_VF.gbw) ****
             **** DENSITY FILE WAS UPDATED (14_VF.scfp) ****
             **** ENERGY FILE WAS UPDATED (14_VF.en.tmp) ****
----------------------
UHF SPIN CONTAMINATION
----------------------

Expectation value of <S**2>     :     6.004126
Ideal value S*(S+1) for S=2.0   :     6.000000
Deviation                       :     0.004126

             **** THE GBW FILE WAS UPDATED (14_VF.gbw) ****
             **** DENSITY FILE WAS UPDATED (14_VF.scfp) ****
----------------
ORBITAL ENERGIES
----------------
                 SPIN UP ORBITALS
  NO   OCC          E(Eh)            E(eV) 
   0   1.0000    -201.490164     -5482.8261 
   1   1.0000     -26.195046      -712.8034 
   2   1.0000     -23.890958      -650.1060 
   3   1.0000     -20.039612      -545.3056 
   4   1.0000     -20.039301      -545.2971 
   5   1.0000     -20.038446      -545.2738 
   6   1.0000      -3.275822       -89.1396 
   7   1.0000      -2.153609       -58.6027 
   8   1.0000      -2.151020       -58.5322 
   9   1.0000      -2.116654       -57.5971 
  10   1.0000      -1.466213       -39.8977 
  11   1.0000      -0.607969       -16.5437 
  12   1.0000      -0.598738       -16.2925 
  13   1.0000      -0.559982       -15.2379 
  14   1.0000      -0.480043       -13.0626 
  15   1.0000      -0.477404       -12.9908 
  16   1.0000      -0.467158       -12.7120 
  17   1.0000      -0.262033        -7.1303 
  18   0.0000       0.038654         1.0518 
  19   0.0000       0.046842         1.2746 
  20   0.0000       0.069379         1.8879 
  21   0.0000       0.136674         3.7191 
  22   0.0000       0.150957         4.1078 
  23   0.0000       0.178157         4.8479 
  24   0.0000       0.180200         4.9035 
  25   0.0000       0.203384         5.5343 
  26   0.0000       0.229830         6.2540 
  27   0.0000       0.237809         6.4711 
  28   0.0000       0.255446         6.9510 
  29   0.0000       0.397368        10.8129 
  30   0.0000       0.398041        10.8312 
  31   0.0000       0.524329        14.2677 
  32   0.0000       0.735616        20.0171 
  33   0.0000       0.748445        20.3662 
  34   0.0000       0.755327        20.5535 
  35   0.0000       0.822698        22.3867 
  36   0.0000       0.839838        22.8531 
  37   0.0000       0.872726        23.7481 
  38   0.0000       0.895223        24.3603 
  39   0.0000       0.901660        24.5354 
  40   0.0000       1.209269        32.9059 
  41   0.0000       1.264191        34.4004 
  42   0.0000       1.265425        34.4340 
  43   0.0000       1.270199        34.5639 
  44   0.0000       1.276119        34.7250 
  45   0.0000       1.348360        36.6907 
  46   0.0000       1.365019        37.1441 
  47   0.0000       1.709997        46.5314 
  48   0.0000       1.885654        51.3113 
  49   0.0000       1.887231        51.3542 
  50   0.0000       1.889840        51.4251 
  51   0.0000       2.056432        55.9584 
  52   0.0000       2.359982        64.2184 
  53   0.0000       2.360277        64.2264 
  54   0.0000       2.597583        70.6838 
  55   0.0000       2.613100        71.1061 
  56   0.0000       2.615073        71.1597 
  57   0.0000       2.740263        74.5663 
  58   0.0000       2.769396        75.3591 
  59   0.0000       2.770456        75.3880 
  60   0.0000       2.842201        77.3402 
  61   0.0000       3.202290        87.1387 
  62   0.0000       3.760633       102.3320 
  63   0.0000       3.765014       102.4512 
  64   0.0000       3.995109       108.7124 
  65   0.0000       4.290999       116.7640 
  66   0.0000       4.407372       119.9307 
  67   0.0000       4.407581       119.9364 
  68   0.0000       4.413193       120.0891 
  69   0.0000       4.413338       120.0930 
  70   0.0000       4.423209       120.3616 
  71   0.0000       4.425103       120.4132 
  72   0.0000       4.549910       123.8093 
  73   0.0000       4.557809       124.0243 
  74   0.0000       4.944740       134.5532 
  75   0.0000       4.949773       134.6902 
  76   0.0000       4.964911       135.1021 
  77   0.0000       4.975590       135.3927 
  78   0.0000       4.991579       135.8278 
  79   0.0000       5.073961       138.0695 
  80   0.0000       5.111572       139.0930 
  81   0.0000       5.415580       147.3654 
  82   0.0000       7.471910       203.3210 
  83   0.0000       7.471910       203.3210 
  84   0.0000       7.479098       203.5166 
  85   0.0000       7.479099       203.5166 
  86   0.0000       7.561641       205.7627 
  87   0.0000       7.562465       205.7851 
  88   0.0000       7.658201       208.3902 
  89   0.0000       8.965428       243.9617 
  90   0.0000       8.965432       243.9618 
  91   0.0000       9.208708       250.5817 
  92   0.0000       9.209477       250.6026 
  93   0.0000       9.507610       258.7152 
  94   0.0000      58.656495      1596.1244 

                 SPIN DOWN ORBITALS
  NO   OCC          E(Eh)            E(eV) 
   0   1.0000    -201.487641     -5482.7575 
   1   1.0000     -26.194484      -712.7881 
   2   1.0000     -23.829331      -648.4291 
   3   1.0000     -19.992598      -544.0263 
   4   1.0000     -19.972927      -543.4910 
   5   1.0000     -19.971820      -543.4608 
   6   1.0000      -3.061676       -83.3124 
   7   1.0000      -1.924170       -52.3593 
   8   1.0000      -1.864751       -50.7425 
   9   1.0000      -1.862159       -50.6719 
  10   1.0000      -1.460837       -39.7514 
  11   1.0000      -0.589220       -16.0335 
  12   1.0000      -0.564371       -15.3573 
  13   1.0000      -0.560413       -15.2496 
  14   0.0000       0.014198         0.3863 
  15   0.0000       0.097070         2.6414 
  16   0.0000       0.099588         2.7099 
  17   0.0000       0.119264         3.2453 
  18   0.0000       0.155159         4.2221 
  19   0.0000       0.157179         4.2770 
  20   0.0000       0.188052         5.1172 
  21   0.0000       0.195379         5.3165 
  22   0.0000       0.199330         5.4241 
  23   0.0000       0.250766         6.8237 
  24   0.0000       0.276699         7.5294 
  25   0.0000       0.294640         8.0176 
  26   0.0000       0.300785         8.1848 
  27   0.0000       0.304981         8.2990 
  28   0.0000       0.321107         8.7378 
  29   0.0000       0.454903        12.3785 
  30   0.0000       0.455352        12.3908 
  31   0.0000       0.586349        15.9554 
  32   0.0000       0.842637        22.9293 
  33   0.0000       0.862308        23.4646 
  34   0.0000       0.866579        23.5808 
  35   0.0000       0.871915        23.7260 
  36   0.0000       0.876163        23.8416 
  37   0.0000       0.905545        24.6411 
  38   0.0000       0.911282        24.7973 
  39   0.0000       0.926604        25.2142 
  40   0.0000       1.215420        33.0733 
  41   0.0000       1.342543        36.5325 
  42   0.0000       1.345157        36.6036 
  43   0.0000       1.356694        36.9175 
  44   0.0000       1.356966        36.9249 
  45   0.0000       1.403066        38.1794 
  46   0.0000       1.412956        38.4485 
  47   0.0000       1.749635        47.6100 
  48   0.0000       1.945349        52.9357 
  49   0.0000       1.963582        53.4318 
  50   0.0000       1.963931        53.4413 
  51   0.0000       2.134518        58.0832 
  52   0.0000       2.363649        64.3182 
  53   0.0000       2.363816        64.3227 
  54   0.0000       2.625033        71.4308 
  55   0.0000       2.632044        71.6216 
  56   0.0000       2.687850        73.1401 
  57   0.0000       2.880880        78.3927 
  58   0.0000       2.881818        78.4183 
  59   0.0000       2.888186        78.5915 
  60   0.0000       2.906871        79.1000 
  61   0.0000       3.221876        87.6717 
  62   0.0000       3.765267       102.4581 
  63   0.0000       3.768825       102.5550 
  64   0.0000       4.021342       109.4263 
  65   0.0000       4.299283       116.9894 
  66   0.0000       4.475885       121.7950 
  67   0.0000       4.478850       121.8757 
  68   0.0000       4.485927       122.0683 
  69   0.0000       4.486138       122.0740 
  70   0.0000       4.500387       122.4617 
  71   0.0000       4.501749       122.4988 
  72   0.0000       4.598974       125.1445 
  73   0.0000       4.614590       125.5694 
  74   0.0000       5.048319       137.3717 
  75   0.0000       5.118467       139.2806 
  76   0.0000       5.125442       139.4704 
  77   0.0000       5.132488       139.6621 
  78   0.0000       5.133567       139.6914 
  79   0.0000       5.191797       141.2760 
  80   0.0000       5.218955       142.0150 
  81   0.0000       5.487783       149.3302 
  82   0.0000       7.472416       203.3348 
  83   0.0000       7.472416       203.3348 
  84   0.0000       7.479422       203.5254 
  85   0.0000       7.479461       203.5265 
  86   0.0000       7.561581       205.7611 
  87   0.0000       7.564594       205.8431 
  88   0.0000       7.659993       208.4390 
  89   0.0000       8.966785       243.9986 
  90   0.0000       8.966808       243.9992 
  91   0.0000       9.208396       250.5732 
  92   0.0000       9.211877       250.6679 
  93   0.0000       9.508887       258.7500 
  94   0.0000      58.656984      1596.1377 

                    ********************************
                    * MULLIKEN POPULATION ANALYSIS *
                    ********************************

--------------------------------------------
MULLIKEN ATOMIC CHARGES AND SPIN POPULATIONS
--------------------------------------------
   0 V :    0.630241    4.005461
   1 F :   -0.630241   -0.005461
Sum of atomic charges         :   -0.0000000
Sum of atomic spin populations:    4.0000000

-----------------------------------------------------
MULLIKEN REDUCED ORBITAL CHARGES AND SPIN POPULATIONS
-----------------------------------------------------
CHARGE
  0 V s       :     6.862077  s :     6.862077
      pz      :     4.222514  p :    12.280001
      px      :     4.034220
      py      :     4.023267
      dz2     :     0.388755  d :     3.194993
      dxz     :     1.024597
      dyz     :     0.061184
      dx2y2   :     0.720552
      dxy     :     0.999906
      f0      :     0.011856  f :     0.031476
      f+1     :     0.009320
      f-1     :     0.009594
      f+2     :     0.000574
      f-2     :     0.000047
      f+3     :     0.000086
      f-3     :     0.000000
      g0      :     0.000555  g :     0.001213
      g+1     :     0.000294
      g-1     :     0.000311
      g+2     :     0.000039
      g-2     :     0.000000
      g+3     :     0.000006
      g-3     :     0.000000
      g+4     :     0.000003
      g-4     :     0.000004
  1 F s       :     3.962736  s :     3.962736
      pz      :     1.828189  p :     5.662153
      px      :     1.929871
      py      :     1.904094
      dz2     :     0.002064  d :     0.005231
      dxz     :     0.001567
      dyz     :     0.001525
      dx2y2   :     0.000035
      dxy     :     0.000040
      f0      :     0.000051  f :     0.000121
      f+1     :     0.000040
      f-1     :     0.000025
      f+2     :     0.000002
      f-2     :     0.000003
      f+3     :     0.000000
      f-3     :     0.000000

SPIN
  0 V s       :     0.820527  s :     0.820527
      pz      :     0.178530  p :     0.196669
      px      :     0.014301
      py      :     0.003838
      dz2     :     0.285256  d :     2.986712
      dxz     :     0.973321
      dyz     :     0.007707
      dx2y2   :     0.720523
      dxy     :     0.999906
      f0      :     0.000110  f :     0.001559
      f+1     :     0.000430
      f-1     :     0.000363
      f+2     :     0.000528
      f-2     :     0.000047
      f+3     :     0.000079
      f-3     :     0.000000
      g0      :     0.000007  g :    -0.000006
      g+1     :    -0.000015
      g-1     :    -0.000034
      g+2     :     0.000024
      g-2     :     0.000000
      g+3     :     0.000006
      g-3     :     0.000000
      g+4     :     0.000002
      g-4     :     0.000004
  1 F s       :    -0.000426  s :    -0.000426
      pz      :    -0.005231  p :    -0.005530
      px      :     0.011691
      py      :    -0.011991
      dz2     :     0.000111  d :     0.000470
      dxz     :     0.000170
      dyz     :     0.000114
      dx2y2   :     0.000034
      dxy     :     0.000040
      f0      :     0.000002  f :     0.000025
      f+1     :     0.000016
      f-1     :     0.000002
      f+2     :     0.000002
      f-2     :     0.000003
      f+3     :    -0.000000
      f-3     :    -0.000000


                     *******************************
                     * LOEWDIN POPULATION ANALYSIS *
                     *******************************

-------------------------------------------
LOEWDIN ATOMIC CHARGES AND SPIN POPULATIONS
-------------------------------------------
   0 V :    0.321871    3.983824
   1 F :   -0.321871    0.016176

----------------------------------------------------
LOEWDIN REDUCED ORBITAL CHARGES AND SPIN POPULATIONS
----------------------------------------------------
CHARGE
  0 V s       :     6.829181  s :     6.829181
      pz      :     4.311986  p :    12.393027
      px      :     4.046830
      py      :     4.034211
      dz2     :     0.487801  d :     3.360713
      dxz     :     1.054038
      dyz     :     0.098535
      dx2y2   :     0.720502
      dxy     :     0.999837
      f0      :     0.045588  f :     0.091314
      f+1     :     0.022813
      f-1     :     0.022202
      f+2     :     0.000575
      f-2     :     0.000049
      f+3     :     0.000086
      f-3     :     0.000000
      g0      :     0.002339  g :     0.003894
      g+1     :     0.000753
      g-1     :     0.000749
      g+2     :     0.000039
      g-2     :     0.000000
      g+3     :     0.000006
      g-3     :     0.000000
      g+4     :     0.000003
      g-4     :     0.000004
  1 F s       :     3.754409  s :     3.754409
      pz      :     1.842704  p :     5.559546
      px      :     1.873251
      py      :     1.843591
      dz2     :     0.004653  d :     0.007672
      dxz     :     0.002136
      dyz     :     0.000703
      dx2y2   :     0.000080
      dxy     :     0.000101
      f0      :     0.000135  f :     0.000244
      f+1     :     0.000086
      f-1     :     0.000008
      f+2     :     0.000006
      f-2     :     0.000008
      f+3     :     0.000000
      f-3     :     0.000000

SPIN
  0 V s       :     0.784585  s :     0.784585
      pz      :     0.201167  p :     0.220379
      px      :     0.015565
      py      :     0.003646
      dz2     :     0.284293  d :     2.976561
      dxz     :     0.964741
      dyz     :     0.007216
      dx2y2   :     0.720473
      dxy     :     0.999837
      f0      :     0.000501  f :     0.002273
      f+1     :     0.000975
      f-1     :     0.000139
      f+2     :     0.000530
      f-2     :     0.000049
      f+3     :     0.000079
      f-3     :     0.000000
      g0      :     0.000031  g :     0.000026
      g+1     :    -0.000004
      g-1     :    -0.000037
      g+2     :     0.000023
      g-2     :     0.000000
      g+3     :     0.000006
      g-3     :     0.000000
      g+4     :     0.000002
      g-4     :     0.000004
  1 F s       :     0.004737  s :     0.004737
      pz      :     0.002803  p :     0.008795
      px      :     0.017029
      py      :    -0.011037
      dz2     :     0.000734  d :     0.002516
      dxz     :     0.001530
      dyz     :     0.000072
      dx2y2   :     0.000079
      dxy     :     0.000101
      f0      :     0.000035  f :     0.000128
      f+1     :     0.000079
      f-1     :     0.000000
      f+2     :     0.000006
      f-2     :     0.000008
      f+3     :    -0.000000
      f-3     :    -0.000000


                      *****************************
                      * MAYER POPULATION ANALYSIS *
                      *****************************

  NA   - Mulliken gross atomic population
  ZA   - Total nuclear charge
  QA   - Mulliken gross atomic charge
  VA   - Mayer's total valence
  BVA  - Mayer's bonded valence
  FA   - Mayer's free valence

  ATOM       NA         ZA         QA         VA         BVA        FA
  0 V     22.3698    23.0000     0.6302     4.6384     0.6684     3.9700
  1 F      9.6302     9.0000    -0.6302     0.6691     0.6684     0.0006

  Mayer bond orders larger than 0.100000
B(  0-V ,  1-F ) :   0.6684 

-------
TIMINGS
-------

Total SCF time: 0 days 0 hours 0 min 6 sec 

Total time                  ....       6.398 sec
Sum of individual times     ....       6.141 sec  ( 96.0%)

Fock matrix formation       ....       5.811 sec  ( 90.8%)
Diagonalization             ....       0.117 sec  (  1.8%)
Density matrix formation    ....       0.021 sec  (  0.3%)
Population analysis         ....       0.005 sec  (  0.1%)
Initial guess               ....       0.103 sec  (  1.6%)
Orbital Transformation      ....       0.000 sec  (  0.0%)
Orbital Orthonormalization  ....       0.000 sec  (  0.0%)
DIIS solution               ....       0.065 sec  (  1.0%)


           ************************************************************
           *        Program running with 24 parallel MPI-processes    *
           *              working on a common directory               *
           ************************************************************


------------------------------------------------------------------------------- 
                              ORCA-MATRIX DRIVEN CI                            
------------------------------------------------------------------------------- 

--------------------------------
AUTOMATIC CHOICE OF INCORE LEVEL
--------------------------------

Memory available                           ...   2500.00 MB
Memory needed for S+T                      ...     10.58 MB
Memory needed for J+K                      ...     21.26 MB
Memory needed for DIIS                     ...    148.19 MB
Memory needed for 3-ext                    ...     41.80 MB
Memory needed for 4-ext                    ...    135.84 MB
Memory needed for triples                  ...     17.42 MB
 -> Final InCoreLevel    ... 5
 -> check shows that triples correction can be computed


Wavefunction type
-----------------
Correlation treatment                      ...      CCSD     
Single excitations                         ... ON
Orbital optimization                       ... OFF
Calculation of Z vector                    ... OFF
Calculation of Brueckner orbitals          ... OFF
Perturbative triple excitations            ... ON
Calculation of F12 correction              ... OFF
Frozen core treatment                      ... chemical core (12 el)
Reference Wavefunction                     ... UHF
  Alpha-MOs occ    :     6 ...   17 ( 12 MO's/ 12 electrons)
  Beta-MOs occ     :     6 ...   13 (  8 MO's/  8 electrons)
  Alpha-MOs virt   :    18 ...   94 ( 77 MO's              )
  Beta-MOs virt    :    14 ...   94 ( 81 MO's              )
Number of AO's                             ...     95
Number of electrons                        ...     32
Number of correlated electrons             ...     20

Algorithmic settings
--------------------
Integral transformation                    ... AO direct full transformation
K(C) Formation                             ... FULL-MO TRAFO
Maximum number of iterations               ...        50
Convergence tolerance (max. residuum)      ... 1.000e-06
Level shift for amplitude update           ... 2.000e-01
Maximum number of DIIS vectors             ...         7
DIIS turned on at iteration                ...         0
Damping before turning on DIIS             ...     0.500
Damping after turning on DIIS              ...     0.000
Pair specific amplitude update             ... OFF
Natural orbital iterations                 ... OFF
Perturbative natural orbital generation    ... OFF
Printlevel                                 ... 2

Memory handling:
----------------
Maximum memory for working arrays          ...   2500 MB
Data storage in matrix containers          ... UNCOMPRESSED
Data type for integral storage             ... DOUBLE
In-Core Storage of quantities:
   Amplitudes+Sigma Vector      ... YES
   J+K operators                ... YES
   DIIS vectors                 ... YES
   3-external integrals         ... YES
   4-external integrals         ... YES


Initializing the integral package          ... done
Warning: reference  - re-canonicalizations have been set to INT 1 VIRT 1

--------------------------
UNRESTRICTED FOCK OPERATOR
--------------------------

<ss|ss>:         1953 b           13 skpd (  0.7%)    0.001 s ( 0.001 ms/b)
<ss|sp>:         5332 b           30 skpd (  0.6%)    0.002 s ( 0.000 ms/b)
<ss|sd>:         4030 b           22 skpd (  0.5%)    0.001 s ( 0.000 ms/b)
<ss|sf>:         2046 b           19 skpd (  0.9%)    0.001 s ( 0.000 ms/b)
<ss|sg>:          682 b            3 skpd (  0.4%)    0.001 s ( 0.001 ms/b)
<ss|pp>:         2232 b            8 skpd (  0.4%)    0.003 s ( 0.001 ms/b)
<ss|pd>:         2976 b           19 skpd (  0.6%)    0.001 s ( 0.000 ms/b)
<ss|pf>:         1488 b            6 skpd (  0.4%)    0.001 s ( 0.000 ms/b)
<ss|pg>:          496 b            1 skpd (  0.2%)    0.001 s ( 0.002 ms/b)
<ss|dd>:         1302 b            2 skpd (  0.2%)    0.001 s ( 0.001 ms/b)
<ss|df>:         1116 b            6 skpd (  0.5%)    0.001 s ( 0.001 ms/b)
<ss|dg>:          372 b            2 skpd (  0.5%)    0.001 s ( 0.002 ms/b)
<ss|ff>:          372 b            1 skpd (  0.3%)    0.001 s ( 0.002 ms/b)
<ss|fg>:          186 b            1 skpd (  0.5%)    0.001 s ( 0.004 ms/b)
<ss|gg>:           62 b            0 skpd (  0.0%)    0.001 s ( 0.016 ms/b)
<sp|sp>:         3741 b           28 skpd (  0.7%)    0.002 s ( 0.000 ms/b)
<sp|sd>:         5590 b           56 skpd (  1.0%)    0.004 s ( 0.001 ms/b)
<sp|sf>:         2838 b           39 skpd (  1.4%)    0.002 s ( 0.001 ms/b)
<sp|sg>:          946 b            9 skpd (  1.0%)    0.002 s ( 0.002 ms/b)
<sp|pp>:         3096 b            8 skpd (  0.3%)    0.003 s ( 0.001 ms/b)
<sp|pd>:         4128 b           24 skpd (  0.6%)    0.003 s ( 0.001 ms/b)
<sp|pf>:         2064 b           11 skpd (  0.5%)    0.002 s ( 0.001 ms/b)
<sp|pg>:          688 b            3 skpd (  0.4%)    0.001 s ( 0.002 ms/b)
<sp|dd>:         1806 b            6 skpd (  0.3%)    0.003 s ( 0.001 ms/b)
<sp|df>:         1548 b            8 skpd (  0.5%)    0.001 s ( 0.001 ms/b)
<sp|dg>:          516 b            3 skpd (  0.6%)    0.002 s ( 0.003 ms/b)
<sp|ff>:          516 b            2 skpd (  0.4%)    0.001 s ( 0.002 ms/b)
<sp|fg>:          258 b            2 skpd (  0.8%)    0.001 s ( 0.005 ms/b)
<sp|gg>:           86 b            0 skpd (  0.0%)    0.002 s ( 0.019 ms/b)
<sd|sd>:         2145 b           28 skpd (  1.3%)    0.001 s ( 0.001 ms/b)
<sd|sf>:         2145 b           43 skpd (  2.0%)    0.001 s ( 0.000 ms/b)
<sd|sg>:          715 b            7 skpd (  1.0%)    0.001 s ( 0.002 ms/b)
<sd|pp>:         2340 b            8 skpd (  0.3%)    0.003 s ( 0.001 ms/b)
<sd|pd>:         3120 b           31 skpd (  1.0%)    0.003 s ( 0.001 ms/b)
<sd|pf>:         1560 b            9 skpd (  0.6%)    0.001 s ( 0.001 ms/b)
<sd|pg>:          520 b            1 skpd (  0.2%)    0.002 s ( 0.004 ms/b)
<sd|dd>:         1365 b            9 skpd (  0.7%)    0.003 s ( 0.002 ms/b)
<sd|df>:         1170 b           14 skpd (  1.2%)    0.002 s ( 0.002 ms/b)
<sd|dg>:          390 b            3 skpd (  0.8%)    0.003 s ( 0.007 ms/b)
<sd|ff>:          390 b            4 skpd (  1.0%)    0.001 s ( 0.003 ms/b)
<sd|fg>:          195 b            1 skpd (  0.5%)    0.002 s ( 0.009 ms/b)
<sd|gg>:           65 b            0 skpd (  0.0%)    0.002 s ( 0.038 ms/b)
<sf|sf>:          561 b           19 skpd (  3.4%)    0.000 s ( 0.001 ms/b)
<sf|sg>:          363 b            7 skpd (  1.9%)    0.001 s ( 0.002 ms/b)
<sf|pp>:         1188 b            5 skpd (  0.4%)    0.002 s ( 0.002 ms/b)
<sf|pd>:         1584 b           21 skpd (  1.3%)    0.003 s ( 0.002 ms/b)
<sf|pf>:          792 b            8 skpd (  1.0%)    0.001 s ( 0.001 ms/b)
<sf|pg>:          264 b            1 skpd (  0.4%)    0.002 s ( 0.007 ms/b)
<sf|dd>:          693 b            5 skpd (  0.7%)    0.003 s ( 0.004 ms/b)
<sf|df>:          594 b            9 skpd (  1.5%)    0.002 s ( 0.003 ms/b)
<sf|dg>:          198 b            2 skpd (  1.0%)    0.002 s ( 0.012 ms/b)
<sf|ff>:          198 b            3 skpd (  1.5%)    0.001 s ( 0.006 ms/b)
<sf|fg>:           99 b            1 skpd (  1.0%)    0.002 s ( 0.017 ms/b)
<sf|gg>:           33 b            0 skpd (  0.0%)    0.002 s ( 0.066 ms/b)
<sg|sg>:           66 b            0 skpd (  0.0%)    0.000 s ( 0.004 ms/b)
<sg|pp>:          396 b            1 skpd (  0.3%)    0.001 s ( 0.004 ms/b)
<sg|pd>:          528 b            4 skpd (  0.8%)    0.002 s ( 0.003 ms/b)
<sg|pf>:          264 b            1 skpd (  0.4%)    0.001 s ( 0.003 ms/b)
<sg|pg>:           88 b            0 skpd (  0.0%)    0.001 s ( 0.015 ms/b)
<sg|dd>:          231 b            0 skpd (  0.0%)    0.002 s ( 0.008 ms/b)
<sg|df>:          198 b            0 skpd (  0.0%)    0.001 s ( 0.005 ms/b)
<sg|dg>:           66 b            0 skpd (  0.0%)    0.002 s ( 0.026 ms/b)
<sg|ff>:           66 b            0 skpd (  0.0%)    0.001 s ( 0.009 ms/b)
<sg|fg>:           33 b            0 skpd (  0.0%)    0.001 s ( 0.032 ms/b)
<sg|gg>:           11 b            0 skpd (  0.0%)    0.001 s ( 0.127 ms/b)
<pp|pp>:          666 b            1 skpd (  0.2%)    0.002 s ( 0.003 ms/b)
<pp|pd>:         1728 b            1 skpd (  0.1%)    0.003 s ( 0.002 ms/b)
<pp|pf>:          864 b            0 skpd (  0.0%)    0.001 s ( 0.001 ms/b)
<pp|pg>:          288 b            0 skpd (  0.0%)    0.002 s ( 0.006 ms/b)
<pp|dd>:          756 b            0 skpd (  0.0%)    0.003 s ( 0.004 ms/b)
<pp|df>:          648 b            0 skpd (  0.0%)    0.002 s ( 0.002 ms/b)
<pp|dg>:          216 b            0 skpd (  0.0%)    0.002 s ( 0.011 ms/b)
<pp|ff>:          216 b            0 skpd (  0.0%)    0.001 s ( 0.005 ms/b)
<pp|fg>:          108 b            0 skpd (  0.0%)    0.002 s ( 0.014 ms/b)
<pp|gg>:           36 b            0 skpd (  0.0%)    0.002 s ( 0.060 ms/b)
<pd|pd>:         1176 b            2 skpd (  0.2%)    0.004 s ( 0.004 ms/b)
<pd|pf>:         1152 b            2 skpd (  0.2%)    0.002 s ( 0.002 ms/b)
<pd|pg>:          384 b            0 skpd (  0.0%)    0.004 s ( 0.010 ms/b)
<pd|dd>:         1008 b            3 skpd (  0.3%)    0.006 s ( 0.006 ms/b)
<pd|df>:          864 b            5 skpd (  0.6%)    0.003 s ( 0.004 ms/b)
<pd|dg>:          288 b            3 skpd (  1.0%)    0.005 s ( 0.018 ms/b)
<pd|ff>:          288 b            1 skpd (  0.3%)    0.003 s ( 0.009 ms/b)
<pd|fg>:          144 b            1 skpd (  0.7%)    0.004 s ( 0.026 ms/b)
<pd|gg>:           48 b            0 skpd (  0.0%)    0.005 s ( 0.107 ms/b)
<pf|pf>:          300 b            0 skpd (  0.0%)    0.001 s ( 0.004 ms/b)
<pf|pg>:          192 b            0 skpd (  0.0%)    0.003 s ( 0.015 ms/b)
<pf|dd>:          504 b            0 skpd (  0.0%)    0.004 s ( 0.008 ms/b)
<pf|df>:          432 b            0 skpd (  0.0%)    0.003 s ( 0.006 ms/b)
<pf|dg>:          144 b            0 skpd (  0.0%)    0.004 s ( 0.026 ms/b)
<pf|ff>:          144 b            0 skpd (  0.0%)    0.002 s ( 0.016 ms/b)
<pf|fg>:           72 b            0 skpd (  0.0%)    0.003 s ( 0.040 ms/b)
<pf|gg>:           24 b            0 skpd (  0.0%)    0.004 s ( 0.157 ms/b)
<pg|pg>:           36 b            0 skpd (  0.0%)    0.001 s ( 0.024 ms/b)
<pg|dd>:          168 b            0 skpd (  0.0%)    0.003 s ( 0.016 ms/b)
<pg|df>:          144 b            0 skpd (  0.0%)    0.001 s ( 0.010 ms/b)
<pg|dg>:           48 b            0 skpd (  0.0%)    0.002 s ( 0.052 ms/b)
<pg|ff>:           48 b            0 skpd (  0.0%)    0.001 s ( 0.021 ms/b)
<pg|fg>:           24 b            0 skpd (  0.0%)    0.002 s ( 0.076 ms/b)
<pg|gg>:            8 b            0 skpd (  0.0%)    0.002 s ( 0.265 ms/b)
<dd|dd>:          231 b            0 skpd (  0.0%)    0.004 s ( 0.016 ms/b)
<dd|df>:          378 b            0 skpd (  0.0%)    0.003 s ( 0.007 ms/b)
<dd|dg>:          126 b            0 skpd (  0.0%)    0.004 s ( 0.030 ms/b)
<dd|ff>:          126 b            0 skpd (  0.0%)    0.002 s ( 0.016 ms/b)
<dd|fg>:           63 b            0 skpd (  0.0%)    0.003 s ( 0.045 ms/b)
<dd|gg>:           21 b            0 skpd (  0.0%)    0.004 s ( 0.185 ms/b)
<df|df>:          171 b            0 skpd (  0.0%)    0.003 s ( 0.017 ms/b)
<df|dg>:          108 b            0 skpd (  0.0%)    0.004 s ( 0.039 ms/b)
<df|ff>:          108 b            0 skpd (  0.0%)    0.003 s ( 0.027 ms/b)
<df|fg>:           54 b            0 skpd (  0.0%)    0.004 s ( 0.068 ms/b)
<df|gg>:           18 b            0 skpd (  0.0%)    0.005 s ( 0.269 ms/b)
<dg|dg>:           21 b            0 skpd (  0.0%)    0.002 s ( 0.087 ms/b)
<dg|ff>:           36 b            0 skpd (  0.0%)    0.001 s ( 0.034 ms/b)
<dg|fg>:           18 b            0 skpd (  0.0%)    0.002 s ( 0.116 ms/b)
<dg|gg>:            6 b            0 skpd (  0.0%)    0.003 s ( 0.418 ms/b)
<ff|ff>:           21 b            0 skpd (  0.0%)    0.001 s ( 0.052 ms/b)
<ff|fg>:           18 b            0 skpd (  0.0%)    0.002 s ( 0.106 ms/b)
<ff|gg>:            6 b            0 skpd (  0.0%)    0.003 s ( 0.485 ms/b)
<fg|fg>:            6 b            0 skpd (  0.0%)    0.001 s ( 0.235 ms/b)
<fg|gg>:            3 b            0 skpd (  0.0%)    0.002 s ( 0.665 ms/b)
<gg|gg>:            1 b            0 skpd (  0.0%)    0.001 s ( 1.126 ms/b)
Recanonicalizing the internal orbitals
Recanonicalizing the virtual orbitals
Time needed for Fock operator              ...            0.261 sec
Reference energy                           ...  -1042.434597581
Warning: for UHF the TrafoType has to be JK
Warning: for UHF the K(C)-option cannot be MO but must be AOX

-------------------------------
PARTIAL EXCHANGE TRANSFORMATION
-------------------------------

Transformation type                        ... two-operators
Generation of integrals (i,mue|j,nue)      ... ON
Generation of integrals (mue,kappa|nue,tau)... ON
Generation of integrals (i,mue|a,nue)      ... ON
Dimension of the basis                     ...   95
Number of internal alpha-MOs               ...   12 (   6-  17)
Number of internal beta-MOs                ...    8 (   6-  13)
Number of external alpha-MOs               ...   77 (  18-  94)
Number of external beta-MOs                ...   81 (  14-  94)
Pair cutoff                                ... 0.000e+00 Eh
Number of AO pairs in the trafo            ... 4560
Total Number of distinct AO pairs          ... 4560
Memory devoted for trafo                   ... 2500.0 MB 
Max. Number of MO pairs treated together   ... 36308      
Number Format for Storage                  ... Double (8 Byte)
Integral package used                      ... LIBINT

Starting integral evaluation:
    ... done with AO integral generation
Closing buffer AOK[aa] ( 0.00 GB; CompressionRatio= 0.99)
Closing buffer AOK[bb] ( 0.00 GB; CompressionRatio= 0.98)
Closing buffer AOK[ab] ( 0.00 GB; CompressionRatio= 0.98)
Closing buffer AOK[ba] ( 0.00 GB; CompressionRatio= 0.98)
Collecting buffer AOK 
Closing buffer IAAO1[aa] ( 0.00 GB; CompressionRatio= 1.00)
Closing buffer IAAO1[bb] ( 0.00 GB; CompressionRatio= 1.00)
Closing buffer IAAO1[ab] ( 0.00 GB; CompressionRatio= 1.00)
Closing buffer IAAO1[ba] ( 0.00 GB; CompressionRatio= 1.00)
Closing buffer IAAO2[aa] ( 0.00 GB; CompressionRatio= 1.00)
Closing buffer IAAO2[bb] ( 0.00 GB; CompressionRatio= 1.00)
Closing buffer IAAO2[ab] ( 0.00 GB; CompressionRatio= 1.00)
Closing buffer IAAO2[ba] ( 0.00 GB; CompressionRatio= 1.00)
Collecting buffer IAAO 
Closing buffer PRQS    ( 0.00 GB; CompressionRatio= 1.00)
Collecting buffer PRQS 
Number of alpha/alpha MO pairs in trafo    ...   78
Number of beta /beta  MO pairs in trafo    ...   36
Number of alpha/ beta MO pairs in trafo    ...   96
------------------------
SORTING OF (i,mue|j,nue)
------------------------

SORTING OF ALPHA/ALPHA PAIRS
IBATCH = 1 of  1
Closing buffer KAO[aa] ( 0.00 GB; CompressionRatio= 1.00)
Collecting buffer KAO 
SORTING OF BETA /BETA  PAIRS
IBATCH = 1 of  1
Closing buffer KAO[bb] ( 0.00 GB; CompressionRatio= 1.00)
Collecting buffer KAO 
SORTING OF ALPHA/BETA  PAIRS
IBATCH = 1 of  1
Closing buffer KAO[ab] ( 0.00 GB; CompressionRatio= 0.999833822633)
Collecting buffer KAO[ab] 
------------------------
SORTING OF (i,mue|a,nue)
------------------------

Number of alpha/alpha (i,a) pairs in trafo  ...  924
Number of beta /beta  (i,a) pairs in trafo  ...  648
Number of alpha/ beta (i,a) pairs in trafo  ...  972
Number of beta /alpha (i,a) pairs in trafo  ...  616
Setting up the alpha/alpha list             ... done
Setting up the beta /beta  list             ... done
Setting up the alpha/beta  list             ... done
Setting up the beta /alpha list             ... done
    ... Now sorting (i,mue|a,nue)integrals
    ... Integrals (i,b|a,c) will be made on the fly
SORTING OF ALPHA/ALPHA PAIRS
IBATCH = 1 of  1
Closing buffer IPAQ[aa]  0.00 GB; CompressionRatio= 1.00)
SORTING OF BETA /BETA  PAIRS
IBATCH = 1 of  1
Closing buffer IPAQ[bb]( 0.00 GB; CompressionRatio= 1.00)
SORTING OF ALPHA/BETA  PAIRS (NMatSort_ab=41)
IBATCH = 1 of  1
Closing buffer IPAQ[ab]( 0.00 GB; CompressionRatio= 1.00)
SORTING OF BETA/ALPHA  PAIRS
IBATCH = 1 of  1
Closing buffer IPAQ[ba]( 0.00 GB; CompressionRatio= 1.00)
N(AO-Batches) Done                         ...      4872 
N(AO-Batches) Skipped                      ...         0 
N(IJ)-pairs Skipped                        ...         0 
TOTAL TIME for half transformation         ...     1.108 sec
AO-integral generation                     ...     0.020 sec
Half transformation                        ...     0.005 sec
K-integral sorting                         ...     0.656 sec
<ss|**>: 
------------------------------
PARTIAL COULOMB TRANSFORMATION
------------------------------

Transformation type                        ... two-operators
Dimension of the basis                     ...   95
Number of internal alpha-MOs               ...   12 (6-17)
Number of internal beta-MOs                ...    8 (6-13)
Pair cutoff                                ... 0.000e+00 Eh
Number of AO pairs included in the trafo   ... 4560
Total Number of distinct AO pairs          ... 4560
Memory devoted for trafo                   ... 2500.0 MB 
Max. Number of MO pairs treated together   ... 71859      
Max. Number of MOs treated per batch       ...  756      
Number Format for Storage                  ... Double (8 Byte)
AO-integral source                         ... DIRECT
Integral package used                      ... LIBINT

Starting integral evaluation:
<sp|**>:        26536 b        0 skpd     0.006 s (  0.000 ms/b)
<sd|**>:        36808 b        0 skpd     0.016 s (  0.000 ms/b)
<sf|**>:        27820 b        0 skpd     0.018 s (  0.001 ms/b)
       14124 b        0 skpd     0.012 s (  0.001 ms/b)
<sg|**>:         4708 b        0 skpd     0.017 s (  0.004 ms/b)
<pp|**>:        15408 b        0 skpd     0.025 s (  0.002 ms/b)
<pd|**>:        20544 b        0 skpd     0.034 s (  0.002 ms/b)
<pf|**>:        10272 b        0 skpd     0.014 s (  0.001 ms/b)
<pg|**>:         3424 b        0 skpd     0.026 s (  0.008 ms/b)
<dd|**>:         8988 b        0 skpd     0.038 s (  0.004 ms/b)
<df|**>:         7704 b        0 skpd     0.021 s (  0.003 ms/b)
<dg|**>:         2568 b        0 skpd     0.033 s (  0.013 ms/b)
<ff|**>:         2568 b        0 skpd     0.015 s (  0.006 ms/b)
<fg|**>:         1284 b        0 skpd     0.021 s (  0.017 ms/b)
<gg|**>:          428 b        0 skpd     0.032 s (  0.074 ms/b)
Closing buffer AOJ[aa] ( 0.00 GB; CompressionRatio= 0.98)
Closing buffer AOJ[bb] ( 0.00 GB; CompressionRatio= 0.00)
Collecting buffer AOJ 
    ... done with AO integral generation
Number of Alpha-MO pairs included          ...   78
Number of Beta-MO pairs included           ...   36
    ... Now sorting integrals
SORTING ALPHA/ALPHA PAIRS
IBATCH = 1 of  1
Closing buffer JAO[aa] ( 0.00 GB; CompressionRatio= 1.00)
SORTING BETA/BETA PAIRS
IBATCH = 1 of  1
Closing buffer JAO[bb] ( 0.00 GB; CompressionRatio= 1.00)
Collecting buffer JAO 
TOTAL TIME for half transformation         ...     0.354 sec
AO-integral generation                     ...     0.328 sec
Half transformation                        ...     0.008 sec
J-integral sorting                         ...     0.012 sec

-------------------------- SECOND HALF TRANSFORMATION -------------------------
Formation of (ij|kl),(ij|ka), (ij|ab)      ... ok (     0.042 sec)
Formation of (ik|jl),(ik|ja), (ia|jb)      ... ok (     0.073 sec)


-----------------------
SPIN UNRESTRICTED GUESS
-----------------------

Entering MDCI_UHF_Guess, Tailored=0
Spin-components of the MP2 energy:
EMP2(aa)=     -0.115601288
EMP2(bb)=     -0.067055760
EMP2(ab)=     -0.416853888

Initial guess performed in     0.029 sec
E(0)                                       ...  -1042.434597581
E(MP2)                                     ...     -0.599510936
Initial E(tot)                             ...  -1043.034108517
<T|T>                                      ...      0.114977415
Number of pairs included                   ... 190

------------------------------------------------
                  UHF COUPLED CLUSTER ITERATIONS
------------------------------------------------

Number of amplitudes to be optimized       ...       887002

Iter       E(tot)           E(Corr)          Delta-E          Residual     Time      <S|S>**1/2
  0  -1043.034108517     -0.599510936      0.000000000      0.025560944    0.74      0.000000021
                           *** Turning on DIIS ***
  1  -1043.035885658     -0.601288077     -0.001777141      0.007511157    0.82      0.054897813
  2  -1043.047988364     -0.613390783     -0.012102706      0.007127134    0.82      0.064400278
  3  -1043.050220664     -0.615623083     -0.002232301      0.006233078    0.84      0.084504491
  4  -1043.051809603     -0.617212022     -0.001588938      0.005611150    0.84      0.100028774
  5  -1043.053102060     -0.618504479     -0.001292457      0.004661212    0.84      0.120843945
  6  -1043.053685931     -0.619088349     -0.000583870      0.003825159    0.86      0.137752958
  7  -1043.054510518     -0.619912937     -0.000824588      0.002578629    0.85      0.163706376
  8  -1043.055542500     -0.620944918     -0.001031981      0.001678260    0.86      0.202188318
  9  -1043.055991013     -0.621393432     -0.000448514      0.001336642    0.84      0.223110744
 10  -1043.056238908     -0.621641327     -0.000247895      0.001111764    0.84      0.231573771
 11  -1043.056249286     -0.621651705     -0.000010378      0.000910430    0.84      0.234878809
 12  -1043.056345031     -0.621747450     -0.000095745      0.000693733    0.84      0.238611733
 13  -1043.056367881     -0.621770300     -0.000022850      0.000432815    0.83      0.241442461
 14  -1043.056426734     -0.621829153     -0.000058853      0.000227730    0.85      0.243609943
 15  -1043.056436746     -0.621839165     -0.000010012      0.000144102    0.83      0.244289421
 16  -1043.056438347     -0.621840766     -0.000001601      0.000109910    0.85      0.244456033
 17  -1043.056437638     -0.621840056      0.000000710      0.000075873    0.83      0.244472580
 18  -1043.056433986     -0.621836405      0.000003651      0.000040919    0.83      0.244411009
 19  -1043.056435002     -0.621837421     -0.000001016      0.000022137    0.83      0.244435474
 20  -1043.056437160     -0.621839579     -0.000002157      0.000013603    0.83      0.244458446
 21  -1043.056438120     -0.621840539     -0.000000961      0.000010943    0.84      0.244498676
 22  -1043.056439958     -0.621842377     -0.000001838      0.000008442    0.84      0.244536713
 23  -1043.056440652     -0.621843070     -0.000000694      0.000007349    0.86      0.244563211
 24  -1043.056441635     -0.621844054     -0.000000984      0.000005716    0.83      0.244595571
 25  -1043.056442652     -0.621845071     -0.000001017      0.000004031    0.82      0.244634689
 26  -1043.056443373     -0.621845792     -0.000000721      0.000002423    0.84      0.244666685
 27  -1043.056443891     -0.621846310     -0.000000518      0.000001271    0.82      0.244688150
 28  -1043.056444258     -0.621846677     -0.000000367      0.000000715    0.84      0.244700246
               --- The Coupled-Cluster iterations have converged ---

----------------------
COUPLED CLUSTER ENERGY
----------------------

E(0)                                       ...  -1042.434597581
E(CORR)                                    ...     -0.621846677
E(TOT)                                     ...  -1043.056444258
Singles norm <S|S>**1/2                    ...      0.244700246 ( 0.215112087, 0.029588159)  
T1 diagnostic                              ...      0.054716638                              

------------------
LARGEST AMPLITUDES
------------------
  17a-> 20a  -1a-> -1a       0.228719
  17a-> 28a  -1a-> -1a       0.129407
  17a-> 21a  -1a-> -1a       0.111798
  16a-> 28a  -1a-> -1a       0.108570
  16a-> 20a  -1a-> -1a       0.104357
  16a-> 21a  -1a-> -1a       0.074883
  16a-> 26a  -1a-> -1a       0.051422
  15a-> 19a  -1a-> -1a       0.051366
  17a-> 26a  -1a-> -1a       0.050129
  13a-> 22a  -1a-> -1a       0.049008
  16a-> 23a  -1a-> -1a       0.040907
  16a-> 31a  -1a-> -1a       0.036894
  12b-> 20b  -1b-> -1b       0.032411
  11b-> 28b  -1b-> -1b       0.032373
  13a-> 39a  12b-> 37b       0.030639
  14a-> 24a  -1a-> -1a       0.027724

----------------------
UHF TRIPLES CORRECTION (Algorithm 1)
----------------------

Multiplier for the singles contribution    ...      1.000000000

SPIN-CASE Alpha-Alpha-Alpha:
10% done
20% done
30% done
40% done
50% done
60% done
70% done
80% done
90% done


SPIN-CASE Beta-Beta-Beta:
10% done
20% done
30% done
40% done
50% done
60% done
70% done
80% done
90% done


SPIN-CASE Alpha-Alpha-Beta:
10% done
20% done
30% done
40% done
50% done
60% done
70% done
80% done
90% done


SPIN-CASE Beta-Beta-Alpha:
10% done
20% done
30% done
40% done
50% done
60% done
70% done
80% done
90% done


Triples Correction (T)                     ...     -0.019174610
    alpha-alpha-alpha ... -0.001688319 (  8.8%)
    alpha-alpha-beta  ... -0.010365819 ( 54.1%)
    alpha-beta -beta  ... -0.006734483 ( 35.1%)
    beta -beta -beta  ... -0.000385989 (  2.0%)
Scaling of triples based on CCSD energies (Peterson et al. Molecular Physics 113, 1551 (2015))
E(T*) = f*E(T) where f = E(F12-CCSD)/E(CCSD) 
f = CCSD (with F12)/ CCSD (without F12)    ...      1.000000000
Scaled triples correction (T)              ...     -0.019174610

Final correlation energy                   ...     -0.641021287
E(CCSD)                                    ...  -1043.056444258
E(CCSD(T))                                 ...  -1043.075618868



        !!!!!!!!!!!!!!!!!!!!!!!!!!!!!!!!!!!!!!!!!!!!!!!!!!!!!!!!!!!!!!!!!!!!!!!!!! 
        !  Warning: Densities are linearized densities                           !
        !!!!!!!!!!!!!!!!!!!!!!!!!!!!!!!!!!!!!!!!!!!!!!!!!!!!!!!!!!!!!!!!!!!!!!!!!! 

NORM  =      1.270418749 sqrt=     1.127128542
W(HF) =      0.787142035
------------------------------------------------------------------------------
                           ORCA POPULATION ANALYSIS
------------------------------------------------------------------------------
Input electron density              ... 14_VF.mdcip
Input spin density                  ... 14_VF.mdcir
BaseName (.gbw .S,...)              ... 14_VF

                    ********************************
                    * MULLIKEN POPULATION ANALYSIS *
                    ********************************

------------------------------------------
MULLIKEN ATOMIC CHARGES AND SPIN DENSITIES
------------------------------------------
   0 V :    0.480611    4.027110
   1 F :   -0.480611   -0.027110
Sum of atomic charges       :   -0.0000000
Sum of atomic spin densities:    4.0000000

---------------------------------------------------
MULLIKEN REDUCED ORBITAL CHARGES AND SPIN DENSITIES
---------------------------------------------------
CHARGE
  0 V s       :     6.822801  s :     6.822801
      pz      :     4.101632  p :    12.165950
      px      :     4.046296
      py      :     4.018022
      dz2     :     0.404793  d :     3.473324
      dxz     :     1.027429
      dyz     :     0.120257
      dx2y2   :     0.922956
      dxy     :     0.997888
      f0      :     0.012978  f :     0.053598
      f+1     :     0.012756
      f-1     :     0.011231
      f+2     :     0.003775
      f-2     :     0.003826
      f+3     :     0.004507
      f-3     :     0.004525
      g0      :     0.000797  g :     0.003716
      g+1     :     0.000604
      g-1     :     0.000544
      g+2     :     0.000278
      g-2     :     0.000281
      g+3     :     0.000285
      g-3     :     0.000286
      g+4     :     0.000320
      g-4     :     0.000321
  1 F s       :     3.955607  s :     3.955607
      pz      :     1.752690  p :     5.490518
      px      :     1.890910
      py      :     1.846918
      dz2     :     0.007687  d :     0.031929
      dxz     :     0.007015
      dyz     :     0.006830
      dx2y2   :     0.005198
      dxy     :     0.005200
      f0      :     0.000421  f :     0.002556
      f+1     :     0.000401
      f-1     :     0.000381
      f+2     :     0.000346
      f-2     :     0.000346
      f+3     :     0.000331
      f-3     :     0.000331

SPIN
  0 V s       :     0.777241  s :     0.777241
      pz      :     0.080677  p :     0.139257
      px      :     0.043611
      py      :     0.014969
      dz2     :     0.246497  d :     3.092660
      dxz     :     0.935681
      dyz     :     0.018733
      dx2y2   :     0.908326
      dxy     :     0.983422
      f0      :     0.001271  f :     0.016691
      f+1     :     0.002763
      f-1     :     0.000796
      f+2     :     0.002419
      f-2     :     0.002432
      f+3     :     0.003504
      f-3     :     0.003506
      g0      :     0.000059  g :     0.001261
      g+1     :     0.000109
      g-1     :     0.000024
      g+2     :     0.000132
      g-2     :     0.000135
      g+3     :     0.000172
      g-3     :     0.000173
      g+4     :     0.000228
      g-4     :     0.000229
  1 F s       :    -0.000575  s :    -0.000575
      pz      :    -0.023726  p :    -0.027400
      px      :     0.016227
      py      :    -0.019901
      dz2     :     0.000285  d :     0.000836
      dxz     :     0.000351
      dyz     :     0.000063
      dx2y2   :     0.000067
      dxy     :     0.000070
      f0      :     0.000007  f :     0.000029
      f+1     :     0.000018
      f-1     :    -0.000001
      f+2     :     0.000002
      f-2     :     0.000002
      f+3     :     0.000000
      f-3     :     0.000000


                     *******************************
                     * LOEWDIN POPULATION ANALYSIS *
                     *******************************

-----------------------------------------
LOEWDIN ATOMIC CHARGES AND SPIN DENSITIES
-----------------------------------------
   0 V :    0.198193    4.000975
   1 F :   -0.198193   -0.000975

--------------------------------------------------
LOEWDIN REDUCED ORBITAL CHARGES AND SPIN DENSITIES
--------------------------------------------------
CHARGE
  0 V s       :     6.786647  s :     6.786647
      pz      :     4.176495  p :    12.263287
      px      :     4.058938
      py      :     4.027855
      dz2     :     0.505813  d :     3.636670
      dxz     :     1.054359
      dyz     :     0.155819
      dx2y2   :     0.922876
      dxy     :     0.997803
      f0      :     0.044252  f :     0.109088
      f+1     :     0.025448
      f-1     :     0.022738
      f+2     :     0.003783
      f-2     :     0.003834
      f+3     :     0.004507
      f-3     :     0.004525
      g0      :     0.002382  g :     0.006116
      g+1     :     0.001025
      g-1     :     0.000936
      g+2     :     0.000279
      g-2     :     0.000281
      g+3     :     0.000285
      g-3     :     0.000286
      g+4     :     0.000320
      g-4     :     0.000321
  1 F s       :     3.749637  s :     3.749637
      pz      :     1.783388  p :     5.411227
      px      :     1.837440
      py      :     1.790399
      dz2     :     0.010284  d :     0.034635
      dxz     :     0.007750
      dyz     :     0.006069
      dx2y2   :     0.005263
      dxy     :     0.005270
      f0      :     0.000508  f :     0.002693
      f+1     :     0.000451
      f-1     :     0.000368
      f+2     :     0.000352
      f-2     :     0.000353
      f+3     :     0.000331
      f-3     :     0.000331

SPIN
  0 V s       :     0.741760  s :     0.741760
      pz      :     0.093505  p :     0.153705
      px      :     0.045700
      py      :     0.014499
      dz2     :     0.252374  d :     3.087665
      dxz     :     0.925818
      dyz     :     0.017900
      dx2y2   :     0.908241
      dxy     :     0.983332
      f0      :     0.000830  f :     0.016596
      f+1     :     0.003418
      f-1     :     0.000483
      f+2     :     0.002421
      f-2     :     0.002434
      f+3     :     0.003504
      f-3     :     0.003506
      g0      :     0.000038  g :     0.001249
      g+1     :     0.000123
      g-1     :     0.000018
      g+2     :     0.000132
      g-2     :     0.000135
      g+3     :     0.000172
      g-3     :     0.000173
      g+4     :     0.000228
      g-4     :     0.000229
  1 F s       :     0.005086  s :     0.005086
      pz      :    -0.012281  p :    -0.008754
      px      :     0.021793
      py      :    -0.018267
      dz2     :     0.000398  d :     0.002570
      dxz     :     0.001825
      dyz     :     0.000052
      dx2y2   :     0.000144
      dxy     :     0.000152
      f0      :     0.000025  f :     0.000123
      f+1     :     0.000082
      f-1     :    -0.000002
      f+2     :     0.000008
      f-2     :     0.000009
      f+3     :     0.000000
      f-3     :     0.000000


                      *****************************
                      * MAYER POPULATION ANALYSIS *
                      *****************************

  NA   - Mulliken gross atomic population
  ZA   - Total nuclear charge
  QA   - Mulliken gross atomic charge
  VA   - Mayer's total valence
  BVA  - Mayer's bonded valence
  FA   - Mayer's free valence

  ATOM       NA         ZA         QA         VA         BVA        FA
  0 V     22.5194    23.0000     0.4806     5.2616     0.8576     4.4040
  1 F      9.4806     9.0000    -0.4806     1.2659     0.8576     0.4082

  Mayer bond orders larger than 0.100000
B(  0-V ,  1-F ) :   0.8576 



------------------------------------------------------------------------------- 
                                     TIMINGS                                   
------------------------------------------------------------------------------- 


Total execution time                   ...       28.504 sec

Fock Matrix Formation                  ...        0.261 sec (  0.9%)
Initial Guess                          ...        0.029 sec (  0.1%)
DIIS Solver                            ...        2.403 sec (  8.4%)
State Vector Update                    ...        0.106 sec (  0.4%)
Sigma-vector construction              ...       21.698 sec ( 76.1%)
  <0|H|D>                              ...        0.006 sec (  0.0% of sigma)
  <D|H|D>(0-ext Fock)                  ...        0.041 sec (  0.2% of sigma)
  <D|H|D>(0-ext)                       ...        0.181 sec (  0.8% of sigma)
  <D|H|D>(2-ext Fock)                  ...        0.012 sec (  0.1% of sigma)
  <D|H|D>(2-ext)                       ...        0.543 sec (  2.5% of sigma)
  <D|H|D>(4-ext)                       ...        9.792 sec ( 45.1% of sigma)
  <S|H|0>                              ...        0.977 sec (  4.5% of sigma)
  <S|H|S>                              ...        0.004 sec (  0.0% of sigma)
  <S|H|D>(1-ext)                       ...        0.011 sec (  0.1% of sigma)
  <D|H|S>(1-ext)                       ...        0.171 sec (  0.8% of sigma)
  Fock-dressing                        ...        3.844 sec ( 17.7% of sigma)
  (ik|jl)-dressing                     ...        0.245 sec (  1.1% of sigma)
  (ij|ab),(ia|jb)-dressing             ...        4.649 sec ( 21.4% of sigma)
  Pair energies                        ...        0.008 sec (  0.0% of sigma)
Total Time for computing (T)           ...        1.908 sec (  6.7% of ALL)
  I/O of integral and amplitudes       ...        0.456 sec ( 23.9% of (T))
  External N**7 contributions          ...        0.522 sec ( 27.3% of (T))
  Internal N**7 contributions          ...        0.262 sec ( 13.7% of (T))
  N**6 triples energy contributions    ...        0.638 sec ( 33.5% of (T))

----- Orbital basis set information -----
Your calculation utilizes the basis: def2-QZVPP
   F. Weigend and R. Ahlrichs, Phys. Chem. Chem. Phys. 7, 3297 (2005).

----- AuxJ basis set information -----
Your calculation utilizes the auxiliary basis: def2/J
   F. Weigend, Phys. Chem. Chem. Phys. 8, 1057 (2006).

----- AuxC basis set information -----
Your calculation utilizes the auxiliary basis: def2-QZVPP/C
  H-La, Hf-Rn : A. Hellweg, C. Hattig, S. Hofener and W. Klopper, Theor. Chem. Acc. 117, 587 (2007).
        Ce-Lu : J. Chmela and M. E. Harding, Mol. Phys. (2018).

----- AuxJK basis set information -----
Your calculation utilizes the auxiliary basis: def2/JK
   H-Ba, Hf-Rn: F. Weigend, J. Comput. Chem. 29, 167 (2008).

All done

                     -----------------------------------------
                     Extrapolated Energy 2 Basis=  def2-QZVPP
                     -----------------------------------------

---------------------------------
CARTESIAN COORDINATES (ANGSTROEM)
---------------------------------
  V      0.000000    0.000000    0.091372
  F      0.000000    0.000000    1.908628

----------------------------
CARTESIAN COORDINATES (A.U.)
----------------------------
  NO LB      ZA    FRAG     MASS         X           Y           Z
   0 V    23.0000    0    50.940    0.000000    0.000000    0.172669
   1 F     9.0000    0    18.998    0.000000    0.000000    3.606784

--------------------------------
INTERNAL COORDINATES (ANGSTROEM)
--------------------------------
 V      0   0   0     0.000000000000     0.00000000     0.00000000
 F      1   0   0     1.817255434959     0.00000000     0.00000000

---------------------------
INTERNAL COORDINATES (A.U.)
---------------------------
 V      0   0   0     0.000000000000     0.00000000     0.00000000
 F      1   0   0     3.434115087453     0.00000000     0.00000000

---------------------
BASIS SET INFORMATION
---------------------
There are 2 groups of distinct atoms

 Group   1 Type V   : 24s18p9d3f2g contracted to 11s6p5d3f2g pattern {114111111111/951111/51111/111/11}
 Group   2 Type F   : 15s8p3d2f1g contracted to 7s4p3d2f1g pattern {8211111/5111/111/11/1}

Atom   0V    basis set group =>   1
Atom   1F    basis set group =>   2
---------------------------------
AUXILIARY/J BASIS SET INFORMATION
---------------------------------
There are 2 groups of distinct atoms

 Group   1 Type V   : 19s5p5d3f3g contracted to 8s5p5d2f3g pattern {121111111/11111/11111/21/111}
 Group   2 Type F   : 12s5p4d2f1g contracted to 6s4p3d1f1g pattern {711111/2111/211/2/1}

Atom   0V    basis set group =>   1
Atom   1F    basis set group =>   2
---------------------------------
AUXILIARY/C BASIS SET INFORMATION
---------------------------------
There are 2 groups of distinct atoms

 Group   1 Type V   : 15s13p11d8f7g5h2i contracted to 15s13p11d8f7g5h2i pattern {111111111111111/1111111111111/11111111111/11111111/1111111/11111/11}
 Group   2 Type F   : 9s8p7d5f3g1h contracted to 9s8p7d5f3g1h pattern {111111111/11111111/1111111/11111/111/1}

Atom   0V    basis set group =>   1
Atom   1F    basis set group =>   2
----------------------------------
AUXILIARY/JK BASIS SET INFORMATION
----------------------------------
There are 2 groups of distinct atoms

 Group   1 Type V   : 19s14p12d10f7g3h1i contracted to 16s13p11d9f5g3h1i pattern {4111111111111111/2111111111111/21111111111/211111111/31111/111/1}
 Group   2 Type F   : 14s10p6d2f1g contracted to 10s8p4d2f1g pattern {5111111111/31111111/3111/11/1}

Atom   0V    basis set group =>   1
Atom   1F    basis set group =>   2

[...]
 21  -1043.126492168     -0.669023269     -0.000001517      0.000012864    3.27      0.247355721
 22  -1043.126494075     -0.669025176     -0.000001908      0.000010522    3.32      0.247402714
 23  -1043.126495159     -0.669026260     -0.000001083      0.000008662    3.26      0.247448110
 24  -1043.126496922     -0.669028023     -0.000001763      0.000006156    3.32      0.247507992
 25  -1043.126498623     -0.669029723     -0.000001701      0.000003651    3.30      0.247578884
 26  -1043.126499841     -0.669030942     -0.000001218      0.000001972    3.36      0.247633020
 27  -1043.126500568     -0.669031669     -0.000000727      0.000001567    3.31      0.247664395
 28  -1043.126501010     -0.669032111     -0.000000442      0.000001260    3.32      0.247681268
 29  -1043.126501202     -0.669032303     -0.000000192      0.000000962    3.33      0.247690016
               --- The Coupled-Cluster iterations have converged ---

----------------------
COUPLED CLUSTER ENERGY
----------------------

E(0)                                       ...  -1042.457468899
E(CORR)                                    ...     -0.669032303
E(TOT)                                     ...  -1043.126501202
Singles norm <S|S>**1/2                    ...      0.247690016 ( 0.219091706, 0.028598310)  
T1 diagnostic                              ...      0.055385171                              

------------------
LARGEST AMPLITUDES
------------------
  17a-> 23a  -1a-> -1a       0.187080
  17a-> 20a  -1a-> -1a       0.165729
  17a-> 31a  -1a-> -1a       0.118115
  16a-> 31a  -1a-> -1a       0.108768
  16a-> 23a  -1a-> -1a       0.106650
  17a-> 29a  -1a-> -1a       0.106540
  16a-> 29a  -1a-> -1a       0.064389
  16a-> 20a  -1a-> -1a       0.059188
  15a-> 19a  -1a-> -1a       0.038493
  17a-> 38a  -1a-> -1a       0.038228
  16a-> 38a  -1a-> -1a       0.034533
  13a-> 27a  -1a-> -1a       0.034244
  16a-> 35a  -1a-> -1a       0.033421
  13a-> 30a  -1a-> -1a       0.032955
  12b-> 27b  -1b-> -1b       0.032309
  13b-> 30b  -1b-> -1b       0.029451

----------------------
UHF TRIPLES CORRECTION (Algorithm 1)
----------------------

Multiplier for the singles contribution    ...      1.000000000

SPIN-CASE Alpha-Alpha-Alpha:
10% done
20% done
30% done
40% done
50% done
60% done
70% done
80% done
90% done


SPIN-CASE Beta-Beta-Beta:
10% done
20% done
30% done
40% done
50% done
60% done
70% done
80% done
90% done


SPIN-CASE Alpha-Alpha-Beta:
10% done
20% done
30% done
40% done
50% done
60% done
70% done
80% done
90% done


SPIN-CASE Beta-Beta-Alpha:
10% done
20% done
30% done
40% done
50% done
60% done
70% done
80% done
90% done


Triples Correction (T)                     ...     -0.022537376
    alpha-alpha-alpha ... -0.001972525 (  8.8%)
    alpha-alpha-beta  ... -0.012130820 ( 53.8%)
    alpha-beta -beta  ... -0.007982727 ( 35.4%)
    beta -beta -beta  ... -0.000451303 (  2.0%)
Scaling of triples based on CCSD energies (Peterson et al. Molecular Physics 113, 1551 (2015))
E(T*) = f*E(T) where f = E(F12-CCSD)/E(CCSD) 
f = CCSD (with F12)/ CCSD (without F12)    ...      1.000000000
Scaled triples correction (T)              ...     -0.022537376

Final correlation energy                   ...     -0.691569679
E(CCSD)                                    ...  -1043.126501202
E(CCSD(T))                                 ...  -1043.149038578



        !!!!!!!!!!!!!!!!!!!!!!!!!!!!!!!!!!!!!!!!!!!!!!!!!!!!!!!!!!!!!!!!!!!!!!!!!! 
        !  Warning: Densities are linearized densities                           !
        !!!!!!!!!!!!!!!!!!!!!!!!!!!!!!!!!!!!!!!!!!!!!!!!!!!!!!!!!!!!!!!!!!!!!!!!!! 

NORM  =      1.277798656 sqrt=     1.130397566
W(HF) =      0.782595908
------------------------------------------------------------------------------
                           ORCA POPULATION ANALYSIS
------------------------------------------------------------------------------
Input electron density              ... 14_VF.mdcip
Input spin density                  ... 14_VF.mdcir
BaseName (.gbw .S,...)              ... 14_VF

                    ********************************
                    * MULLIKEN POPULATION ANALYSIS *
                    ********************************

------------------------------------------
MULLIKEN ATOMIC CHARGES AND SPIN DENSITIES
------------------------------------------
   0 V :    0.532134    4.026742
   1 F :   -0.532134   -0.026742
Sum of atomic charges       :   -0.0000000
Sum of atomic spin densities:    4.0000000

---------------------------------------------------
MULLIKEN REDUCED ORBITAL CHARGES AND SPIN DENSITIES
---------------------------------------------------
CHARGE
  0 V s       :     6.816009  s :     6.816009
      pz      :     4.083800  p :    12.133677
      px      :     4.037713
      py      :     4.012164
      dz2     :     0.391329  d :     3.446940
      dxz     :     1.022660
      dyz     :     0.113099
      dx2y2   :     0.922218
      dxy     :     0.997634
      f0      :     0.009730  f :     0.061069
      f+1     :     0.017488
      f-1     :     0.015638
      f+2     :     0.004186
      f-2     :     0.004231
      f+3     :     0.004889
      f-3     :     0.004907
      g0      :     0.002096  g :     0.010171
      g+1     :     0.002676
      g-1     :     0.002709
      g+2     :     0.000467
      g-2     :     0.000468
      g+3     :     0.000423
      g-3     :     0.000423
      g+4     :     0.000454
      g-4     :     0.000456
  1 F s       :     3.958489  s :     3.958489
      pz      :     1.785638  p :     5.531075
      px      :     1.894809
      py      :     1.850628
      dz2     :     0.009443  d :     0.037847
      dxz     :     0.008399
      dyz     :     0.008217
      dx2y2   :     0.005891
      dxy     :     0.005896
      f0      :     0.000808  f :     0.004212
      f+1     :     0.000704
      f-1     :     0.000655
      f+2     :     0.000535
      f-2     :     0.000536
      f+3     :     0.000487
      f-3     :     0.000487
      g0      :     0.000063  g :     0.000511
      g+1     :     0.000061
      g-1     :     0.000059
      g+2     :     0.000056
      g-2     :     0.000056
      g+3     :     0.000054
      g-3     :     0.000054
      g+4     :     0.000053
      g-4     :     0.000053

SPIN
  0 V s       :     0.784080  s :     0.784080
      pz      :     0.075427  p :     0.131189
      px      :     0.040928
      py      :     0.014833
      dz2     :     0.247248  d :     3.091845
      dxz     :     0.936771
      dyz     :     0.017434
      dx2y2   :     0.907401
      dxy     :     0.982991
      f0      :     0.001337  f :     0.018212
      f+1     :     0.003269
      f-1     :     0.000765
      f+2     :     0.002646
      f-2     :     0.002649
      f+3     :     0.003773
      f-3     :     0.003773
      g0      :     0.000055  g :     0.001417
      g+1     :     0.000031
      g-1     :    -0.000106
      g+2     :     0.000176
      g-2     :     0.000180
      g+3     :     0.000235
      g-3     :     0.000236
      g+4     :     0.000304
      g-4     :     0.000305
  1 F s       :    -0.002730  s :    -0.002730
      pz      :    -0.024658  p :    -0.025620
      px      :     0.017424
      py      :    -0.018387
      dz2     :     0.000608  d :     0.001448
      dxz     :     0.000440
      dyz     :     0.000129
      dx2y2   :     0.000133
      dxy     :     0.000138
      f0      :     0.000066  f :     0.000155
      f+1     :     0.000051
      f-1     :     0.000005
      f+2     :     0.000015
      f-2     :     0.000017
      f+3     :     0.000000
      f-3     :     0.000000
      g0      :     0.000002  g :     0.000005
      g+1     :     0.000002
      g-1     :     0.000000
      g+2     :     0.000000
      g-2     :     0.000000
      g+3     :     0.000000
      g-3     :     0.000000
      g+4     :     0.000000
      g-4     :     0.000000


                     *******************************
                     * LOEWDIN POPULATION ANALYSIS *
                     *******************************

-----------------------------------------
LOEWDIN ATOMIC CHARGES AND SPIN DENSITIES
-----------------------------------------
   0 V :    0.065306    3.991088
   1 F :   -0.065306    0.008912

--------------------------------------------------
LOEWDIN REDUCED ORBITAL CHARGES AND SPIN DENSITIES
--------------------------------------------------
CHARGE
  0 V s       :     6.784621  s :     6.784621
      pz      :     4.180828  p :    12.260357
      px      :     4.054865
      py      :     4.024664
      dz2     :     0.523794  d :     3.643971
      dxz     :     1.048687
      dyz     :     0.152222
      dx2y2   :     0.921936
      dxy     :     0.997333
      f0      :     0.074557  f :     0.185876
      f+1     :     0.049012
      f-1     :     0.044015
      f+2     :     0.004226
      f-2     :     0.004271
      f+3     :     0.004889
      f-3     :     0.004907
      g0      :     0.025954  g :     0.059869
      g+1     :     0.016047
      g-1     :     0.015123
      g+2     :     0.000494
      g-2     :     0.000496
      g+3     :     0.000423
      g-3     :     0.000424
      g+4     :     0.000454
      g-4     :     0.000456
  1 F s       :     3.643539  s :     3.643539
      pz      :     1.799106  p :     5.362202
      px      :     1.803259
      py      :     1.759836
      dz2     :     0.022401  d :     0.052434
      dxz     :     0.011276
      dyz     :     0.006629
      dx2y2   :     0.006054
      dxy     :     0.006073
      f0      :     0.002507  f :     0.006567
      f+1     :     0.001288
      f-1     :     0.000621
      f+2     :     0.000586
      f-2     :     0.000591
      f+3     :     0.000487
      f-3     :     0.000487
      g0      :     0.000098  g :     0.000565
      g+1     :     0.000076
      g-1     :     0.000059
      g+2     :     0.000058
      g-2     :     0.000058
      g+3     :     0.000054
      g-3     :     0.000054
      g+4     :     0.000053
      g-4     :     0.000053

SPIN
  0 V s       :     0.740836  s :     0.740836
      pz      :     0.089322  p :     0.148247
      px      :     0.044646
      py      :     0.014278
      dz2     :     0.252843  d :     3.081318
      dxz     :     0.922158
      dyz     :     0.016532
      dx2y2   :     0.907107
      dxy     :     0.982678
      f0      :     0.001088  f :     0.019193
      f+1     :     0.005162
      f-1     :     0.000073
      f+2     :     0.002660
      f-2     :     0.002664
      f+3     :     0.003773
      f-3     :     0.003773
      g0      :    -0.000156  g :     0.001495
      g+1     :     0.000562
      g-1     :    -0.000348
      g+2     :     0.000176
      g-2     :     0.000180
      g+3     :     0.000235
      g-3     :     0.000236
      g+4     :     0.000304
      g-4     :     0.000305
  1 F s       :     0.003628  s :     0.003628
      pz      :    -0.006804  p :    -0.001771
      px      :     0.020939
      py      :    -0.015906
      dz2     :     0.000509  d :     0.006065
      dxz     :     0.004774
      dyz     :     0.000052
      dx2y2   :     0.000356
      dxy     :     0.000375
      f0      :     0.000165  f :     0.000964
      f+1     :     0.000659
      f-1     :    -0.000006
      f+2     :     0.000070
      f-2     :     0.000075
      f+3     :     0.000000
      f-3     :     0.000000
      g0      :     0.000005  g :     0.000025
      g+1     :     0.000016
      g-1     :    -0.000000
      g+2     :     0.000002
      g-2     :     0.000002
      g+3     :     0.000000
      g-3     :     0.000000
      g+4     :     0.000000
      g-4     :     0.000000


                      *****************************
                      * MAYER POPULATION ANALYSIS *
                      *****************************

  NA   - Mulliken gross atomic population
  ZA   - Total nuclear charge
  QA   - Mulliken gross atomic charge
  VA   - Mayer's total valence
  BVA  - Mayer's bonded valence
  FA   - Mayer's free valence

  ATOM       NA         ZA         QA         VA         BVA        FA
  0 V     22.4679    23.0000     0.5321     5.1965     0.7857     4.4109
  1 F      9.5321     9.0000    -0.5321     1.2086     0.7857     0.4229

  Mayer bond orders larger than 0.100000
B(  0-V ,  1-F ) :   0.7857 



------------------------------------------------------------------------------- 
                                     TIMINGS                                   
------------------------------------------------------------------------------- 


Total execution time                   ...      119.943 sec

Fock Matrix Formation                  ...        0.837 sec (  0.7%)
Initial Guess                          ...        0.076 sec (  0.1%)
DIIS Solver                            ...        7.377 sec (  6.2%)
State Vector Update                    ...        0.309 sec (  0.3%)
Sigma-vector construction              ...       91.860 sec ( 76.6%)
  <0|H|D>                              ...        0.016 sec (  0.0% of sigma)
  <D|H|D>(0-ext Fock)                  ...        0.141 sec (  0.2% of sigma)
  <D|H|D>(0-ext)                       ...        0.681 sec (  0.7% of sigma)
  <D|H|D>(2-ext Fock)                  ...        0.044 sec (  0.0% of sigma)
  <D|H|D>(2-ext)                       ...        2.150 sec (  2.3% of sigma)
  <D|H|D>(4-ext)                       ...       48.034 sec ( 52.3% of sigma)
  <S|H|0>                              ...        5.107 sec (  5.6% of sigma)
  <S|H|S>                              ...        0.007 sec (  0.0% of sigma)
  <S|H|D>(1-ext)                       ...        0.030 sec (  0.0% of sigma)
  <D|H|S>(1-ext)                       ...        0.511 sec (  0.6% of sigma)
  Fock-dressing                        ...       15.516 sec ( 16.9% of sigma)
  (ik|jl)-dressing                     ...        0.787 sec (  0.9% of sigma)
  (ij|ab),(ia|jb)-dressing             ...       15.600 sec ( 17.0% of sigma)
  Pair energies                        ...        0.020 sec (  0.0% of sigma)
Total Time for computing (T)           ...       11.333 sec (  9.4% of ALL)
  I/O of integral and amplitudes       ...        1.741 sec ( 15.4% of (T))
  External N**7 contributions          ...        4.175 sec ( 36.8% of (T))
  Internal N**7 contributions          ...        1.455 sec ( 12.8% of (T))
  N**6 triples energy contributions    ...        3.822 sec ( 33.7% of (T))


-------------------
EXTRAPOLATED ENERGY
-------------------


-----------------------------------------------------------------
                      EP1 - MDCI extrapolation:
-----------------------------------------------------------------
NOTE: We use as reference SCF energy, for the extrapolation, the one from the MDCI module and not the one 
from the SCF calculation. In case the first step is a DFT calculation these two might be different.

NOTE: For the SCF part we extrapolate based on the scheme proposed in J. Chem. Phys. 2008, 129, 184116
using the exponents from J. Chem. Theory Comput., 7, 33-43 (2011)

NOTE: For the correlation part we extrapolate based on the scheme proposed in J. Chem. Phys. 1997, 106, 9639
using the exponents from J. Chem. Theory Comput., 7, 33-43 (2011)


Alpha(3/4)     :  7.880 (SCF Extrapolation)
Beta(3/4)      :  2.970 (correlation extrapolation)

SCF energy with basis def2-TZVPP:                     -1042.434597581
SCF energy with basis def2-QZVPP:                     -1042.457468899
Extrapolated CBS SCF energy (3/4) :                   -1042.460619164 (-0.003150265) 

MDCI energy with basis def2-TZVPP:                       -0.641021287
MDCI energy with basis def2-QZVPP:                       -0.691569679
Extrapolated CBS correlation energy (3/4) :              -0.729012905 (-0.037443226)

Estimated CBS total energy (3/4) :                    -1043.189632069



-------------------------   --------------------
FINAL SINGLE POINT ENERGY     -1043.189632068967
-------------------------   --------------------


                            ***************************************
                            *     ORCA property calculations      *
                            ***************************************

                                    ---------------------
                                    Active property flags
                                    ---------------------
   (+) Dipole Moment


------------------------------------------------------------------------------
                       ORCA ELECTRIC PROPERTIES CALCULATION
------------------------------------------------------------------------------

Dipole Moment Calculation                       ... on
Quadrupole Moment Calculation                   ... off
Polarizability Calculation                      ... off
GBWName                                         ... 14_VF.gbw
Electron density file                           ... 14_VF.scfp
The origin for moment calculation is the CENTER OF MASS  = ( 0.000000,  0.000000  1.105514)

-------------
DIPOLE MOMENT
-------------
                                X             Y             Z
Electronic contribution:      0.00000      -0.00000      -2.07594
Nuclear contribution   :      0.00000       0.00000       1.05599
                        -----------------------------------------
Total Dipole Moment    :      0.00000      -0.00000      -1.01995
                        -----------------------------------------
Magnitude (a.u.)       :      1.01995
Magnitude (Debye)      :      2.59250



--------------------
Rotational spectrum 
--------------------
 
Rotational constants in cm-1:     0.000000     0.368902     0.368902 
Rotational constants in MHz :     0.000000 11059.411965 11059.411965 

 Dipole components along the rotational axes: 
x,y,z [a.u.] :    -1.019947    -0.000000     0.000000 
x,y,z [Debye]:    -2.592498    -0.000000     0.000000 

 

                           *** MDCI DENSITY ***

------------------------------------------------------------------------------
                       ORCA ELECTRIC PROPERTIES CALCULATION
------------------------------------------------------------------------------

Dipole Moment Calculation                       ... on
Quadrupole Moment Calculation                   ... off
Polarizability Calculation                      ... off
GBWName                                         ... 14_VF.gbw
Electron density file                           ... 14_VF.mdcip
The origin for moment calculation is the CENTER OF MASS  = ( 0.000000,  0.000000  1.105514)

-------------
DIPOLE MOMENT
-------------
                                X             Y             Z
Electronic contribution:      0.00000      -0.00000      -2.40138
Nuclear contribution   :      0.00000       0.00000       1.05599
                        -----------------------------------------
Total Dipole Moment    :      0.00000      -0.00000      -1.34539
                        -----------------------------------------
Magnitude (a.u.)       :      1.34539
Magnitude (Debye)      :      3.41971



--------------------
Rotational spectrum 
--------------------
 
Rotational constants in cm-1:     0.000000     0.368902     0.368902 
Rotational constants in MHz :     0.000000 11059.411965 11059.411965 

 Dipole components along the rotational axes: 
x,y,z [a.u.] :    -1.345389    -0.000000     0.000000 
x,y,z [Debye]:    -3.419708    -0.000000     0.000000 

 

Timings for individual modules:

Sum of individual times         ...      167.758 sec (=   2.796 min)
GTO integral calculation        ...        1.864 sec (=   0.031 min)   1.1 %
SCF iterations                  ...       15.945 sec (=   0.266 min)   9.5 %
MDCI module                     ...      149.949 sec (=   2.499 min)  89.4 %
                             ****ORCA TERMINATED NORMALLY****
TOTAL RUN TIME: 0 days 0 hours 2 minutes 48 seconds 732 msec
