
                                 *****************
                                 * O   R   C   A *
                                 *****************

           --- An Ab Initio, DFT and Semiempirical electronic structure package ---

                  #######################################################
                  #                        -***-                        #
                  #          Department of theory and spectroscopy      #
                  #               Directorship: Frank Neese             #
                  #        Max Planck Institute fuer Kohlenforschung    #
                  #                Kaiser Wilhelm Platz 1               #
                  #                 D-45470 Muelheim/Ruhr               #
                  #                      Germany                        #
                  #                                                     #
                  #                  All rights reserved                #
                  #                        -***-                        #
                  #######################################################


                         Program Version 4.2.0 -  RELEASE  -


 With contributions from (in alphabetic order):
   Daniel Aravena         : Magnetic Suceptibility
   Michael Atanasov       : Ab Initio Ligand Field Theory (pilot matlab implementation)
   Alexander A. Auer      : GIAO ZORA, VPT2
   Ute Becker             : Parallelization
   Giovanni Bistoni       : ED, misc. LED, open-shell LED, HFLED
   Martin Brehm           : Molecular dynamics
   Dmytro Bykov           : SCF Hessian
   Vijay G. Chilkuri      : MRCI spin determinant printing, contributions to CSF-ICE
   Dipayan Datta          : RHF DLPNO-CCSD density
   Achintya Kumar Dutta   : EOM-CC, STEOM-CC
   Dmitry Ganyushin       : Spin-Orbit,Spin-Spin,Magnetic field MRCI
   Miquel Garcia          : C-PCM Hessian, Gaussian charge scheme
   Yang Guo               : DLPNO-NEVPT2, CIM, IAO-localization
   Andreas Hansen         : Spin unrestricted coupled pair/coupled cluster methods
   Benjamin Helmich-Paris : CASSCF linear response (MC-RPA)
   Lee Huntington         : MR-EOM, pCC
   Robert Izsak           : Overlap fitted RIJCOSX, COSX-SCS-MP3, EOM
   Christian Kollmar      : KDIIS, OOCD, Brueckner-CCSD(T), CCSD density
   Simone Kossmann        : Meta GGA functionals, TD-DFT gradient, OOMP2, MP2 Hessian
   Martin Krupicka        : AUTO-CI
   Lucas Lang             : DCDCAS
   Dagmar Lenk            : GEPOL surface, SMD
   Dimitrios Liakos       : Extrapolation schemes; Compound Job, initial MDCI parallelization
   Dimitrios Manganas     : Further ROCIS development; embedding schemes
   Dimitrios Pantazis     : SARC Basis sets
   Taras Petrenko         : DFT Hessian,TD-DFT gradient, ASA, ECA, R-Raman, ABS, FL, XAS/XES, NRVS
   Peter Pinski           : DLPNO-MP2, DLPNO-MP2 Gradient
   Christoph Reimann      : Effective Core Potentials
   Marius Retegan         : Local ZFS, SOC
   Christoph Riplinger    : Optimizer, TS searches, QM/MM, DLPNO-CCSD(T), (RO)-DLPNO pert. Triples
   Tobias Risthaus        : Range-separated hybrids, TD-DFT gradient, RPA, STAB
   Michael Roemelt        : Original ROCIS implementation
   Masaaki Saitow         : Open-shell DLPNO-CCSD energy and density
   Barbara Sandhoefer     : DKH picture change effects
   Avijit Sen             : IP-ROCIS
   Kantharuban Sivalingam : CASSCF convergence, NEVPT2, FIC-MRCI
   Bernardo de Souza      : ESD, SOC TD-DFT
   Georgi Stoychev        : AutoAux, RI-MP2 NMR
   Willem Van den Heuvel  : Paramagnetic NMR
   Boris Wezisla          : Elementary symmetry handling
   Frank Wennmohs         : Technical directorship


 We gratefully acknowledge several colleagues who have allowed us to
 interface, adapt or use parts of their codes:
   Stefan Grimme, W. Hujo, H. Kruse,             : VdW corrections, initial TS optimization,
                  C. Bannwarth                     DFT functionals, gCP, sTDA/sTD-DF
   Ed Valeev, F. Pavosevic, A. Kumar             : LibInt (2-el integral package), F12 methods
   Garnet Chan, S. Sharma, J. Yang, R. Olivares  : DMRG
   Ulf Ekstrom                                   : XCFun DFT Library
   Mihaly Kallay                                 : mrcc  (arbitrary order and MRCC methods)
   Andreas Klamt, Michael Diedenhofen            : otool_cosmo (COSMO solvation model)
   Jiri Pittner, Ondrej Demel                    : Mk-CCSD
   Frank Weinhold                                : gennbo (NPA and NBO analysis)
   Christopher J. Cramer and Donald G. Truhlar   : smd solvation model
   Lars Goerigk                                  : TD-DFT with DH, B97 family of functionals
   V. Asgeirsson, H. Jonsson                     : NEB implementation
   FAccTs GmbH                                   : IRC, NEB, NEB-TS, Multilevel, MM, QM/MM, CI optimization
   S Lehtola, MJT Oliveira, MAL Marques          : LibXC Library


 Your calculation uses the libint2 library for the computation of 2-el integrals
 For citations please refer to: http://libint.valeyev.net

 Your ORCA version has been built with support for libXC version: 4.2.3
 For citations please refer to: https://tddft.org/programs/libxc/

 This ORCA versions uses:
   CBLAS   interface :  Fast vector & matrix operations
   LAPACKE interface :  Fast linear algebra routines
   SCALAPACK package :  Parallel linear algebra routines


----- Orbital basis set information -----
Your calculation utilizes the basis: def2-TZVPP
   F. Weigend and R. Ahlrichs, Phys. Chem. Chem. Phys. 7, 3297 (2005).

================================================================================
                                        WARNINGS
                       Please study these warnings very carefully!
================================================================================


WARNING: your system is open-shell and RHF/RKS was chosen
  ===> : WILL SWITCH to UHF/UKS


WARNING: MDCI localization with Augmented Hessian Foster-Boys
  ===> : Switching off randomization!

WARNING: Post HF methods need fully converged wavefunctions
  ===> : Setting SCFConvForced true
         You can overwrite this default with %scf ConvForced false 


INFO   : the flag for use of LIBINT has been found!

================================================================================
                                       INPUT FILE
================================================================================
NAME = 16_VBr.in
|  1> #
|  2> # 16_VBr ccsd(t)/cbs
|  3> #
|  4> ! ccsd(t) extrapolate(3/4,def2) verytightscf
|  5> 
|  6> *xyz 0 5
|  7>   V   0.00000000000000      0.00000000000000     -0.18045152200616
|  8>   Br  0.00000000000000      0.00000000000000      2.18045152200616
|  9> *
| 10> 
| 11> %maxcore 5000
| 12> %pal
| 13> nprocs 24
| 14> end
| 15> 
| 16> 
| 17>                          ****END OF INPUT****
================================================================================

                   *****************************************
                   * Extrapolated Single Point Calculation *
                   *****************************************

----- Orbital basis set information -----
Your calculation utilizes the basis: def2-TZVPP
   F. Weigend and R. Ahlrichs, Phys. Chem. Chem. Phys. 7, 3297 (2005).

----- AuxJ basis set information -----
Your calculation utilizes the auxiliary basis: def2/J
   F. Weigend, Phys. Chem. Chem. Phys. 8, 1057 (2006).

----- AuxC basis set information -----
Your calculation utilizes the auxiliary basis: def2-TZVPP/C
  H-La, Hf-Rn : A. Hellweg, C. Hattig, S. Hofener and W. Klopper, Theor. Chem. Acc. 117, 587 (2007).
        Ce-Lu : J. Chmela and M. E. Harding, Mol. Phys. (2018).

----- AuxJK basis set information -----
Your calculation utilizes the auxiliary basis: def2/JK
   H-Ba, Hf-Rn: F. Weigend, J. Comput. Chem. 29, 167 (2008).

All done

                     -----------------------------------------
                     Extrapolated Energy 1 Basis=  def2-TZVPP
                     -----------------------------------------

---------------------------------
CARTESIAN COORDINATES (ANGSTROEM)
---------------------------------
  V      0.000000    0.000000   -0.180452
  Br     0.000000    0.000000    2.180452

----------------------------
CARTESIAN COORDINATES (A.U.)
----------------------------
  NO LB      ZA    FRAG     MASS         X           Y           Z
   0 V    23.0000    0    50.940    0.000000    0.000000   -0.341004
   1 Br   35.0000    0    79.900    0.000000    0.000000    4.120456

--------------------------------
INTERNAL COORDINATES (ANGSTROEM)
--------------------------------
 V      0   0   0     0.000000000000     0.00000000     0.00000000
 Br     1   0   0     2.360903044012     0.00000000     0.00000000

---------------------------
INTERNAL COORDINATES (A.U.)
---------------------------
 V      0   0   0     0.000000000000     0.00000000     0.00000000
 Br     1   0   0     4.461460181924     0.00000000     0.00000000

---------------------
BASIS SET INFORMATION
---------------------
There are 2 groups of distinct atoms

 Group   1 Type V   : 17s12p7d2f1g contracted to 6s5p4d2f1g pattern {842111/63111/4111/11/1}
 Group   2 Type Br  : 17s13p8d1f contracted to 6s5p4d1f pattern {842111/64111/5111/1}

Atom   0V    basis set group =>   1
Atom   1Br   basis set group =>   2
---------------------------------
AUXILIARY/J BASIS SET INFORMATION
---------------------------------
There are 2 groups of distinct atoms

 Group   1 Type V   : 19s5p5d3f3g contracted to 8s5p5d2f3g pattern {121111111/11111/11111/21/111}
 Group   2 Type Br  : 19s5p5d3f1g contracted to 8s4p3d2f1g pattern {121111111/2111/311/21/1}

Atom   0V    basis set group =>   1
Atom   1Br   basis set group =>   2
---------------------------------
AUXILIARY/C BASIS SET INFORMATION
---------------------------------
There are 2 groups of distinct atoms

 Group   1 Type V   : 9s9p8d7f5g3h1i contracted to 9s9p8d7f5g3h1i pattern {111111111/111111111/11111111/1111111/11111/111/1}
 Group   2 Type Br  : 10s9p8d6f4g1h contracted to 10s9p8d5f4g1h pattern {1111111111/111111111/11111111/21111/1111/1}

Atom   0V    basis set group =>   1
Atom   1Br   basis set group =>   2
----------------------------------
AUXILIARY/JK BASIS SET INFORMATION
----------------------------------
There are 2 groups of distinct atoms

 Group   1 Type V   : 19s14p12d10f7g3h1i contracted to 16s13p11d9f5g3h1i pattern {4111111111111111/2111111111111/21111111111/211111111/31111/111/1}
 Group   2 Type Br  : 20s14p13d10f7g3h contracted to 17s13p12d9f6g3h pattern {41111111111111111/2111111111111/211111111111/211111111/211111/111}

Atom   0V    basis set group =>   1
Atom   1Br   basis set group =>   2


           ************************************************************
           *        Program running with 24 parallel MPI-processes    *
           *              working on a common directory               *
           ************************************************************
------------------------------------------------------------------------------
                           ORCA GTO INTEGRAL CALCULATION
------------------------------------------------------------------------------

                         BASIS SET STATISTICS AND STARTUP INFO

 # of primitive gaussian shells          ...   78
 # of primitive gaussian functions       ...  214
 # of contracted shells                  ...   34
 # of contracted basis functions         ...  112
 Highest angular momentum                ...    4
 Maximum contraction depth               ...    8
 Integral package used                   ... LIBINT
 Integral threshhold            Thresh   ...  1.000e-12
 Primitive cut-off              TCut     ...  1.000e-14


------------------------------ INTEGRAL EVALUATION ----------------------------


 * One electron integrals 
 Pre-screening matrix                    ... done
 Shell pair data                         ... done (   0.000 sec)



           ************************************************************
           *        Program running with 24 parallel MPI-processes    *
           *              working on a common directory               *
           ************************************************************
-------------------------------------------------------------------------------
                                 ORCA SCF
-------------------------------------------------------------------------------

------------
SCF SETTINGS
------------
Hamiltonian:
 Ab initio Hamiltonian  Method          .... Hartree-Fock(GTOs)


General Settings:
 Integral files         IntName         .... 16_VBr
 Hartree-Fock type      HFTyp           .... UHF
 Total Charge           Charge          ....    0
 Multiplicity           Mult            ....    5
 Number of Electrons    NEL             ....   58
 Basis Dimension        Dim             ....  112
 Nuclear Repulsion      ENuc            ....    180.4342002785 Eh

Convergence Acceleration:
 DIIS                   CNVDIIS         .... on
   Start iteration      DIISMaxIt       ....    12
   Startup error        DIISStart       ....  0.200000
   # of expansion vecs  DIISMaxEq       ....     5
   Bias factor          DIISBfac        ....   1.050
   Max. coefficient     DIISMaxC        ....  10.000
 Newton-Raphson         CNVNR           .... off
 SOSCF                  CNVSOSCF        .... off
 Level Shifting         CNVShift        .... on
   Level shift para.    LevelShift      ....    0.2500
   Turn off err/grad.   ShiftErr        ....    0.0010
 Zerner damping         CNVZerner       .... off
 Static damping         CNVDamp         .... on
   Fraction old density DampFac         ....    0.7000
   Max. Damping (<1)    DampMax         ....    0.9800
   Min. Damping (>=0)   DampMin         ....    0.0000
   Turn off err/grad.   DampErr         ....    0.1000
 Fernandez-Rico         CNVRico         .... off

SCF Procedure:
 Maximum # iterations   MaxIter         ....   125
 SCF integral mode      SCFMode         .... Direct
   Integral package                     .... LIBINT
 Reset frequency        DirectResetFreq ....    20
 Integral Threshold     Thresh          ....  1.000e-12 Eh
 Primitive CutOff       TCut            ....  1.000e-14 Eh

Convergence Tolerance:
 Convergence Check Mode ConvCheckMode   .... Total+1el-Energy
 Convergence forced     ConvForced      .... 1
 Energy Change          TolE            ....  1.000e-09 Eh
 1-El. energy change                    ....  1.000e-06 Eh
 DIIS Error             TolErr          ....  1.000e-08


Diagonalization of the overlap matrix:
Smallest eigenvalue                        ... 5.379e-03
Time for diagonalization                   ...    0.003 sec
Threshold for overlap eigenvalues          ... 1.000e-08
Number of eigenvalues below threshold      ... 0
Time for construction of square roots      ...    0.002 sec
Total time needed                          ...    0.005 sec

-------------------
DFT GRID GENERATION
-------------------

General Integration Accuracy     IntAcc      ...  4.340
Radial Grid Type                 RadialGrid  ... Gauss-Chebyshev
Angular Grid (max. acc.)         AngularGrid ... Lebedev-110
Angular grid pruning method      GridPruning ... 3 (G Style)
Weight generation scheme         WeightScheme... Becke
Basis function cutoff            BFCut       ...    1.0000e-12
Integration weight cutoff        WCut        ...    1.0000e-14
Grids for H and He will be reduced by one unit

# of grid points (after initial pruning)     ...   5862 (   0.0 sec)
# of grid points (after weights+screening)   ...   5838 (   0.0 sec)
nearest neighbour list constructed           ...    0.0 sec
Grid point re-assignment to atoms done       ...    0.0 sec
Grid point division into batches done        ...    0.0 sec
Reduced shell lists constructed in    0.0 sec

Total number of grid points                  ...     5838
Total number of batches                      ...       92
Average number of points per batch           ...       63
Average number of grid points per atom       ...     2919
Average number of shells per batch           ...     9.60 (28.24%)
Average number of basis functions per batch  ...    32.00 (28.57%)
Average number of large shells per batch     ...     6.80 (70.83%)
Average number of large basis fcns per batch ...    19.60 (61.25%)
Maximum spatial batch extension              ...  18.98, 28.73, 16.39 au
Average spatial batch extension              ...   0.76,  1.04,  0.71 au

Time for grid setup =    0.029 sec

------------------------------
INITIAL GUESS: MODEL POTENTIAL
------------------------------
Loading Hartree-Fock densities                     ... done
Calculating cut-offs                               ... done
Setting up the integral package                    ... done
Initializing the effective Hamiltonian             ... done
Starting the Coulomb interaction                   ... done (   0.0 sec)
Reading the grid                                   ... done
Mapping shells                                     ... done
Starting the XC term evaluation                    ... done (   0.0 sec)
Transforming the Hamiltonian                       ... done (   0.0 sec)
Diagonalizing the Hamiltonian                      ... done (   0.0 sec)
Back transforming the eigenvectors                 ... done (   0.0 sec)
Now organizing SCF variables                       ... done
                      ------------------
                      INITIAL GUESS DONE (   0.1 sec)
                      ------------------
--------------
SCF ITERATIONS
--------------
ITER       Energy         Delta-E        Max-DP      RMS-DP      [F,P]     Damp
               ***  Starting incremental Fock matrix formation  ***
  0  -3515.2189106257   0.000000000000 0.02624162  0.00065192  0.1746514 0.7000
  1  -3515.2599305850  -0.041019959330 0.02349328  0.00051252  0.1214932 0.7000
                               ***Turning on DIIS***
  2  -3515.2864815383  -0.026550953252 0.06117219  0.00122972  0.0844254 0.0000
  3  -3515.1998711534   0.086610384853 0.01745764  0.00046401  0.0283662 0.0000
  4  -3515.4531004318  -0.253229278344 0.01442518  0.00024221  0.0157266 0.0000
  5  -3515.3571527768   0.095947654944 0.01244356  0.00017128  0.0069914 0.0000
  6  -3515.3527559078   0.004396869006 0.01064500  0.00013803  0.0045383 0.0000
  7  -3515.3554286934  -0.002672785573 0.00848041  0.00011151  0.0043024 0.0000
  8  -3515.3666232557  -0.011194562357 0.00785026  0.00010599  0.0042113 0.0000
  9  -3515.3671986398  -0.000575384031 0.00716913  0.00009730  0.0041703 0.0000
 10  -3515.3573043048   0.009894334996 0.00535627  0.00007500  0.0041203 0.0000
 11  -3515.3184153105   0.038888994244 0.00089220  0.00001647  0.0040690 0.0000
 12  -3515.2785933517   0.039821958801 0.00313891  0.00003669  0.0041118 0.0000
 13  -3515.2986375653  -0.020044213610 0.00194423  0.00002531  0.0043172 0.0000
 14  -3515.3256272011  -0.026989635816 0.00460143  0.00005810  0.0040964 0.0000
 15  -3515.3510476428  -0.025420441657 0.00639957  0.00008186  0.0040047 0.0000
 16  -3515.3622469335  -0.011199290741 0.00710556  0.00009131  0.0040601 0.0000
 17  -3515.3269424585   0.035304475052 0.00142086  0.00002549  0.0040948 0.0000
 18  -3515.2169710568   0.109971401685 0.01234640  0.00014504  0.0040182 0.0000
 19  -3515.2904599143  -0.073488857497 0.00403771  0.00004863  0.0047073 0.0000
               *** Restarting incremental Fock matrix formation ***
                                   *** Resetting DIIS ***
 20  -3515.3598182346  -0.069358320265 0.00693041  0.00008492  0.0040428 0.0000
 21  -3515.3607453100  -0.000927075408 0.00713327  0.00008886  0.0041221 0.0000
 22  -3515.3181900118   0.042555298211 0.00133783  0.00002382  0.0041125 0.0000
 23  -3515.2463343781   0.071855633643 0.00653670  0.00007324  0.0040993 0.0000
 24  -3515.2561595114  -0.009825133252 0.00146997  0.00001923  0.0044715 0.0000
 25  -3515.3166226821  -0.060463170737 0.00673674  0.00007793  0.0043184 0.0000
 26  -3515.3591237312  -0.042501049137 0.00936824  0.00011081  0.0040569 0.0000
 27  -3515.3577821913   0.001341539938 0.00712280  0.00008988  0.0042143 0.0000
 28  -3515.2920135095   0.065768681798 0.00296126  0.00003116  0.0043599 0.0000
 29  -3515.2604463231   0.031567186375 0.00394196  0.00004274  0.0042605 0.0000
 30  -3515.2828818267  -0.022435503532 0.00184028  0.00002089  0.0043757 0.0000
 31  -3515.3347033560  -0.051821529328 0.00893428  0.00010262  0.0041422 0.0000
 32  -3515.3483293019  -0.013625945893 0.00675637  0.00008454  0.0044546 0.0000
 33  -3515.3375830113   0.010746290563 0.00361582  0.00005292  0.0046350 0.0000
 34  -3515.2459081661   0.091674845180 0.00879443  0.00009582  0.0046910 0.0000
 35  -3515.2683208719  -0.022412705716 0.00052562  0.00001030  0.0045769 0.0000
 36  -3515.3320962424  -0.063775370564 0.00817602  0.00009281  0.0043459 0.0000
 37  -3515.3550101566  -0.022913914202 0.00864472  0.00010457  0.0047056 0.0000
 38  -3515.3247638206   0.030246335983 0.00262588  0.00004411  0.0049521 0.0000
 39  -3515.1963255021   0.128438318560 0.01337110  0.00014887  0.0049389 0.0000
               *** Restarting incremental Fock matrix formation ***
                                   *** Resetting DIIS ***
 40  -3515.3622594144  -0.165933912270 0.00894685  0.00010543  0.0048643 0.0000
 41  -3515.3624006500  -0.000141235671 0.00878823  0.00010790  0.0052899 0.0000
 42  -3515.3088644378   0.053536212218 0.00319577  0.00004930  0.0051292 0.0000
 43  -3515.2018975337   0.106966904135 0.00839170  0.00009139  0.0051133 0.0000
 44  -3515.2116362661  -0.009738732393 0.00216811  0.00002732  0.0049881 0.0000
 45  -3515.2712606143  -0.059624348235 0.00513144  0.00005788  0.0048170 0.0000
 46  -3515.3629789209  -0.091718306594 0.01338096  0.00015565  0.0049402 0.0000
 47  -3515.3628662670   0.000112653889 0.00887876  0.00011581  0.0054919 0.0000
 48  -3515.2870161581   0.075850108899 0.00148398  0.00002246  0.0056664 0.0000
 49  -3515.0911451582   0.195870999946 0.02129921  0.00025040  0.0054516 0.0000
 50  -3515.2167737547  -0.125628596564 0.00233098  0.00003318  0.0054341 0.0000
 51  -3515.2889070299  -0.072133275144 0.00550415  0.00005975  0.0049314 0.0000
 52  -3515.3025400565  -0.013633026606 0.00354962  0.00004408  0.0051823 0.0000
 53  -3515.2510688367   0.051471219752 0.00353196  0.00003914  0.0052751 0.0000
 54  -3515.3558843832  -0.104815546490 0.01307262  0.00015547  0.0050503 0.0000
 55  -3515.3511832936   0.004701089611 0.00677352  0.00009329  0.0056570 0.0000
 56  -3515.2416616363   0.109521657267 0.00746870  0.00008018  0.0057590 0.0000
 57  -3515.2619338578  -0.020272221464 0.00101198  0.00001366  0.0053155 0.0000
 58  -3515.3046013821  -0.042667524283 0.00610472  0.00007389  0.0054436 0.0000
 59  -3515.2969457306   0.007655651519 0.00359458  0.00004918  0.0056897 0.0000
               *** Restarting incremental Fock matrix formation ***
                                   *** Resetting DIIS ***
 60  -3515.3653335825  -0.068387851920 0.00891826  0.00011890  0.0057361 0.0000
 61  -3515.3662887624  -0.000955179921 0.00853098  0.00012198  0.0060776 0.0000
 62  -3515.2705522098   0.095736552574 0.00237962  0.00002602  0.0062385 0.0000
 63  -3515.2310086579   0.039543551970 0.00194600  0.00001924  0.0059694 0.0000
 64  -3515.2165101204   0.014498537506 0.00102636  0.00001252  0.0058858 0.0000
 65  -3515.2963126930  -0.079802572685 0.00892273  0.00011317  0.0058543 0.0000
 66  -3515.3306712139  -0.034358520857 0.00723284  0.00010391  0.0062342 0.0000
 67  -3515.3800967864  -0.049425572507 0.01030611  0.00015342  0.0064011 0.0000
 68  -3515.3512843898   0.028812396620 0.00538870  0.00010109  0.0066496 0.0000
 69  -3515.1861842475   0.165100142292 0.01033444  0.00012542  0.0066269 0.0000
 70  -3515.1931718379  -0.006987590441 0.00192757  0.00003071  0.0061017 0.0000
 71  -3515.3070590371  -0.113887199120 0.00965819  0.00012995  0.0061827 0.0000
 72  -3515.3517554289  -0.044696391852 0.00970701  0.00014808  0.0065896 0.0000
 73  -3515.3707887562  -0.019033327244 0.00823923  0.00014614  0.0067360 0.0000
 74  -3515.3756215939  -0.004832837732 0.00715270  0.00014329  0.0067863 0.0000
 75  -3515.3596662252   0.015955368704 0.00505111  0.00011619  0.0067547 0.0000
 76  -3515.3159119274   0.043754297765 0.00287277  0.00005674  0.0066430 0.0000
 77  -3515.2178613776   0.098050549859 0.00446676  0.00005869  0.0064844 0.0000
 78  -3515.3039711554  -0.086109777801 0.00579045  0.00010497  0.0062944 0.0000
 79  -3515.3534929268  -0.049521771421 0.00571546  0.00012518  0.0064883 0.0000
               *** Restarting incremental Fock matrix formation ***
                                   *** Resetting DIIS ***
 80  -3515.3744474793  -0.020954552502 0.00513979  0.00012358  0.0064388 0.0000
 81  -3515.3959296275  -0.021482148261 0.00617673  0.00015103  0.0062735 0.0000
 82  -3515.4856182801  -0.089688652555 0.01150404  0.00027431  0.0060449 0.0000
 83  -3515.4286841587   0.056934121389 0.00805737  0.00018645  0.0055973 0.0000
 84  -3515.7322667429  -0.303582584228 0.02461232  0.00057001  0.0048798 0.0000
 85  -3515.4162822975   0.315984445439 0.01078813  0.00015415  0.0065963 0.0000
 86  -3515.5117586068  -0.095476309349 0.01239545  0.00029685  0.0039345 0.0000
 87  -3515.5562301929  -0.044471586049 0.00901061  0.00024316  0.0042351 0.0000
 88  -3515.4731952125   0.083034980438 0.00651252  0.00012646  0.0040438 0.0000
 89  -3515.4401173219   0.033077890546 0.00577784  0.00011207  0.0028935 0.0000
 90  -3515.4193332186   0.020784103308 0.00519818  0.00008255  0.0024980 0.0000
 91  -3515.4068437296   0.012489488959 0.00571679  0.00008062  0.0019488 0.0000
 92  -3515.4027700842   0.004073645487 0.00591807  0.00008006  0.0015523 0.0000
 93  -3515.3934083843   0.009361699863 0.00418106  0.00005613  0.0011312 0.0000
 94  -3515.3887103710   0.004698013250 0.00502168  0.00006941  0.0007449 0.0000
 95  -3515.3838405348   0.004869836234 0.00076099  0.00001295  0.0001517 0.0000
 96  -3515.3835752374   0.000265297423 0.00030165  0.00000450  0.0000884 0.0000
 97  -3515.3833893836   0.000185853755 0.00016499  0.00000283  0.0000552 0.0000
 98  -3515.3830360475   0.000353336086 0.00014574  0.00000316  0.0000356 0.0000
 99  -3515.3832043765  -0.000168328912 0.00009837  0.00000219  0.0000171 0.0000
               *** Restarting incremental Fock matrix formation ***
                                   *** Resetting DIIS ***
100  -3515.3835802962  -0.000375919726 0.00001719  0.00000023  0.0000056 0.0000
101  -3515.3835627700   0.000017526200 0.00001446  0.00000026  0.0000050 0.0000
102  -3515.3835700865  -0.000007316481 0.00000733  0.00000018  0.0000047 0.0000
103  -3515.3835608424   0.000009244086 0.00000782  0.00000016  0.0000045 0.0000
104  -3515.3835513212   0.000009521160 0.00001142  0.00000022  0.0000042 0.0000
105  -3515.3835611883  -0.000009867106 0.00000846  0.00000013  0.0000034 0.0000
106  -3515.3835707967  -0.000009608334 0.00000772  0.00000011  0.0000027 0.0000
107  -3515.3835755968  -0.000004800173 0.00000887  0.00000012  0.0000018 0.0000
108  -3515.3835812194  -0.000005622616 0.00000635  0.00000009  0.0000009 0.0000
109  -3515.3835822879  -0.000001068421 0.00000174  0.00000003  0.0000002 0.0000
110  -3515.3835809327   0.000001355157 0.00000048  0.00000001  0.0000001 0.0000
111  -3515.3835806603   0.000000272404 0.00000013  0.00000000  0.0000000 0.0000
112  -3515.3835801243   0.000000536023 0.00000005  0.00000000  0.0000000 0.0000
113  -3515.3835801201   0.000000004195 0.00000007  0.00000000  0.0000000 0.0000
114  -3515.3835800595   0.000000060586 0.00000005  0.00000000  0.0000000 0.0000
                            ***DIIS convergence achieved***

               *****************************************************
               *                     SUCCESS                       *
               *           SCF CONVERGED AFTER 115 CYCLES          *
               *****************************************************


----------------
TOTAL SCF ENERGY
----------------

Total Energy       :        -3515.38358016 Eh          -95658.45040 eV

Components:
Nuclear Repulsion  :          180.43420028 Eh            4909.86420 eV
Electronic Energy  :        -3695.81778044 Eh         -100568.31460 eV
One Electron Energy:        -5239.27088631 Eh         -142567.80882 eV
Two Electron Energy:         1543.45310587 Eh           41999.49422 eV

Virial components:
Potential Energy   :        -7030.80069957 Eh         -191317.81344 eV
Kinetic Energy     :         3515.41711941 Eh           95659.36305 eV
Virial Ratio       :            1.99999046


---------------
SCF CONVERGENCE
---------------

  Last Energy change         ...   -9.9590e-08  Tolerance :   1.0000e-09
  Last MAX-Density change    ...    4.0626e-08  Tolerance :   1.0000e-08
  Last RMS-Density change    ...    8.1977e-10  Tolerance :   1.0000e-09
  Last DIIS Error            ...    1.8652e-08  Tolerance :   1.0000e-08

             **** THE GBW FILE WAS UPDATED (16_VBr.gbw) ****
             **** DENSITY FILE WAS UPDATED (16_VBr.scfp) ****
             **** ENERGY FILE WAS UPDATED (16_VBr.en.tmp) ****
----------------------
UHF SPIN CONTAMINATION
----------------------

Expectation value of <S**2>     :     6.006264
Ideal value S*(S+1) for S=2.0   :     6.000000
Deviation                       :     0.006264

             **** THE GBW FILE WAS UPDATED (16_VBr.gbw) ****
             **** DENSITY FILE WAS UPDATED (16_VBr.scfp) ****
----------------
ORBITAL ENERGIES
----------------
                 SPIN UP ORBITALS
  NO   OCC          E(Eh)            E(eV) 
   0   1.0000    -489.974849    -13332.8935 
   1   1.0000    -201.519791     -5483.6323 
   2   1.0000     -65.118321     -1771.9596 
   3   1.0000     -58.472635     -1591.1213 
   4   1.0000     -58.472628     -1591.1211 
   5   1.0000     -58.472511     -1591.1179 
   6   1.0000     -23.920902      -650.9208 
   7   1.0000     -20.069263      -546.1124 
   8   1.0000     -20.069070      -546.1072 
   9   1.0000     -20.068776      -546.0991 
  10   1.0000      -9.792251      -266.4607 
  11   1.0000      -7.400887      -201.3884 
  12   1.0000      -7.399778      -201.3582 
  13   1.0000      -7.399627      -201.3541 
  14   1.0000      -3.306356       -89.9705 
  15   1.0000      -3.141623       -85.4879 
  16   1.0000      -3.141202       -85.4765 
  17   1.0000      -3.140913       -85.4686 
  18   1.0000      -3.140159       -85.4481 
  19   1.0000      -3.140136       -85.4475 
  20   1.0000      -2.177039       -59.2402 
  21   1.0000      -2.172429       -59.1148 
  22   1.0000      -2.158620       -58.7390 
  23   1.0000      -0.964326       -26.2406 
  24   1.0000      -0.548213       -14.9176 
  25   1.0000      -0.541180       -14.7263 
  26   1.0000      -0.522372       -14.2145 
  27   1.0000      -0.429289       -11.6815 
  28   1.0000      -0.401861       -10.9352 
  29   1.0000      -0.390170       -10.6171 
  30   1.0000      -0.264455        -7.1962 
  31   0.0000       0.034120         0.9284 
  32   0.0000       0.038052         1.0354 
  33   0.0000       0.065214         1.7746 
  34   0.0000       0.112492         3.0611 
  35   0.0000       0.125674         3.4198 
  36   0.0000       0.161717         4.4006 
  37   0.0000       0.170191         4.6311 
  38   0.0000       0.205112         5.5814 
  39   0.0000       0.213883         5.8201 
  40   0.0000       0.235763         6.4154 
  41   0.0000       0.236651         6.4396 
  42   0.0000       0.355027         9.6608 
  43   0.0000       0.358364         9.7516 
  44   0.0000       0.363506         9.8915 
  45   0.0000       0.442122        12.0307 
  46   0.0000       0.449068        12.2198 
  47   0.0000       0.449218        12.2238 
  48   0.0000       0.492504        13.4017 
  49   0.0000       0.492770        13.4090 
  50   0.0000       0.570472        15.5233 
  51   0.0000       0.588462        16.0129 
  52   0.0000       0.669144        18.2083 
  53   0.0000       0.716317        19.4920 
  54   0.0000       0.760963        20.7069 
  55   0.0000       0.786169        21.3927 
  56   0.0000       0.847074        23.0501 
  57   0.0000       0.901000        24.5175 
  58   0.0000       1.169968        31.8365 
  59   0.0000       1.246687        33.9241 
  60   0.0000       1.248755        33.9804 
  61   0.0000       1.256354        34.1871 
  62   0.0000       1.266421        34.4611 
  63   0.0000       1.327354        36.1191 
  64   0.0000       1.342384        36.5281 
  65   0.0000       1.382569        37.6216 
  66   0.0000       1.641873        44.6776 
  67   0.0000       1.641932        44.6793 
  68   0.0000       1.680057        45.7167 
  69   0.0000       1.680524        45.7294 
  70   0.0000       1.832668        49.8694 
  71   0.0000       1.845613        50.2217 
  72   0.0000       1.845616        50.2218 
  73   0.0000       1.864038        50.7231 
  74   0.0000       1.865158        50.7535 
  75   0.0000       1.872586        50.9557 
  76   0.0000       1.873161        50.9713 
  77   0.0000       1.881263        51.1918 
  78   0.0000       1.969604        53.5956 
  79   0.0000       1.970624        53.6234 
  80   0.0000       1.975135        53.7462 
  81   0.0000       2.137579        58.1665 
  82   0.0000       2.141046        58.2608 
  83   0.0000       2.310977        62.8849 
  84   0.0000       2.527839        68.7860 
  85   0.0000       2.708156        73.6927 
  86   0.0000       2.731183        74.3193 
  87   0.0000       2.748350        74.7864 
  88   0.0000       2.817541        76.6692 
  89   0.0000       2.938058        79.9486 
  90   0.0000       4.340581       118.1132 
  91   0.0000       4.366659       118.8228 
  92   0.0000       4.372938       118.9937 
  93   0.0000       4.378766       119.1523 
  94   0.0000       4.379367       119.1686 
  95   0.0000       4.386017       119.3496 
  96   0.0000       4.386106       119.3520 
  97   0.0000       4.392465       119.5250 
  98   0.0000       4.395948       119.6198 
  99   0.0000       4.479389       121.8904 
 100   0.0000       4.479416       121.8911 
 101   0.0000       4.595921       125.0614 
 102   0.0000       4.598639       125.1353 
 103   0.0000       4.769624       129.7881 
 104   0.0000       4.915607       133.7605 
 105   0.0000       4.925522       134.0303 
 106   0.0000       4.941040       134.4525 
 107   0.0000       4.966201       135.1372 
 108   0.0000       5.041554       137.1877 
 109   0.0000       5.075714       138.1172 
 110   0.0000       5.397533       146.8743 
 111   0.0000       8.090534       220.1546 

                 SPIN DOWN ORBITALS
  NO   OCC          E(Eh)            E(eV) 
   0   1.0000    -489.974827    -13332.8929 
   1   1.0000    -201.517163     -5483.5608 
   2   1.0000     -65.118265     -1771.9581 
   3   1.0000     -58.472757     -1591.1246 
   4   1.0000     -58.472495     -1591.1175 
   5   1.0000     -58.472469     -1591.1168 
   6   1.0000     -23.858800      -649.2309 
   7   1.0000     -20.014490      -544.6220 
   8   1.0000     -20.006657      -544.4088 
   9   1.0000     -20.004182      -544.3415 
  10   1.0000      -9.792150      -266.4579 
  11   1.0000      -7.400645      -201.3818 
  12   1.0000      -7.400206      -201.3698 
  13   1.0000      -7.399363      -201.3469 
  14   1.0000      -3.141598       -85.4872 
  15   1.0000      -3.141266       -85.4782 
  16   1.0000      -3.140694       -85.4626 
  17   1.0000      -3.140186       -85.4488 
  18   1.0000      -3.140102       -85.4465 
  19   1.0000      -3.090631       -84.1003 
  20   1.0000      -1.926345       -52.4185 
  21   1.0000      -1.904983       -51.8372 
  22   1.0000      -1.898153       -51.6514 
  23   1.0000      -0.961582       -26.1660 
  24   1.0000      -0.439741       -11.9660 
  25   1.0000      -0.402684       -10.9576 
  26   1.0000      -0.400611       -10.9012 
  27   0.0000       0.011280         0.3069 
  28   0.0000       0.091237         2.4827 
  29   0.0000       0.092681         2.5220 
  30   0.0000       0.114359         3.1119 
  31   0.0000       0.136894         3.7251 
  32   0.0000       0.141328         3.8457 
  33   0.0000       0.158845         4.3224 
  34   0.0000       0.171656         4.6710 
  35   0.0000       0.190468         5.1829 
  36   0.0000       0.240391         6.5414 
  37   0.0000       0.261976         7.1287 
  38   0.0000       0.262765         7.1502 
  39   0.0000       0.275939         7.5087 
  40   0.0000       0.280495         7.6327 
  41   0.0000       0.282082         7.6759 
  42   0.0000       0.386464        10.5162 
  43   0.0000       0.390559        10.6276 
  44   0.0000       0.393758        10.7147 
  45   0.0000       0.469163        12.7666 
  46   0.0000       0.469761        12.7828 
  47   0.0000       0.487671        13.2702 
  48   0.0000       0.494153        13.4466 
  49   0.0000       0.494299        13.4506 
  50   0.0000       0.601589        16.3701 
  51   0.0000       0.604243        16.4423 
  52   0.0000       0.715141        19.4600 
  53   0.0000       0.840603        22.8740 
  54   0.0000       0.849938        23.1280 
  55   0.0000       0.887703        24.1556 
  56   0.0000       0.902239        24.5512 
  57   0.0000       0.960660        26.1409 
  58   0.0000       1.184147        32.2223 
  59   0.0000       1.324012        36.0282 
  60   0.0000       1.328730        36.1566 
  61   0.0000       1.330445        36.2033 
  62   0.0000       1.331000        36.2184 
  63   0.0000       1.378385        37.5078 
  64   0.0000       1.386546        37.7298 
  65   0.0000       1.409089        38.3433 
  66   0.0000       1.642344        44.6905 
  67   0.0000       1.642439        44.6930 
  68   0.0000       1.682880        45.7935 
  69   0.0000       1.684027        45.8247 
  70   0.0000       1.845515        50.2190 
  71   0.0000       1.845515        50.2190 
  72   0.0000       1.855070        50.4790 
  73   0.0000       1.876919        51.0736 
  74   0.0000       1.877392        51.0864 
  75   0.0000       1.893322        51.5199 
  76   0.0000       1.928396        52.4743 
  77   0.0000       1.930577        52.5337 
  78   0.0000       1.976035        53.7706 
  79   0.0000       1.977321        53.8056 
  80   0.0000       2.046321        55.6832 
  81   0.0000       2.154744        58.6336 
  82   0.0000       2.156060        58.6694 
  83   0.0000       2.379286        64.7437 
  84   0.0000       2.565483        69.8103 
  85   0.0000       2.843931        77.3873 
  86   0.0000       2.858893        77.7944 
  87   0.0000       2.858995        77.7972 
  88   0.0000       2.884380        78.4880 
  89   0.0000       3.009312        81.8876 
  90   0.0000       4.378579       119.1472 
  91   0.0000       4.407167       119.9251 
  92   0.0000       4.414580       120.1268 
  93   0.0000       4.442188       120.8781 
  94   0.0000       4.446745       121.0021 
  95   0.0000       4.453728       121.1921 
  96   0.0000       4.454687       121.2182 
  97   0.0000       4.467605       121.5697 
  98   0.0000       4.471020       121.6626 
  99   0.0000       4.479902       121.9043 
 100   0.0000       4.480203       121.9125 
 101   0.0000       4.616104       125.6106 
 102   0.0000       4.622608       125.7875 
 103   0.0000       4.816597       131.0663 
 104   0.0000       5.088650       138.4692 
 105   0.0000       5.090594       138.5221 
 106   0.0000       5.093523       138.6018 
 107   0.0000       5.102305       138.8408 
 108   0.0000       5.171674       140.7284 
 109   0.0000       5.197564       141.4329 
 110   0.0000       5.498155       149.6124 
 111   0.0000       8.090813       220.1622 

                    ********************************
                    * MULLIKEN POPULATION ANALYSIS *
                    ********************************

--------------------------------------------
MULLIKEN ATOMIC CHARGES AND SPIN POPULATIONS
--------------------------------------------
   0 V :    0.506780    4.011138
   1 Br:   -0.506780   -0.011138
Sum of atomic charges         :   -0.0000000
Sum of atomic spin populations:    4.0000000

-----------------------------------------------------
MULLIKEN REDUCED ORBITAL CHARGES AND SPIN POPULATIONS
-----------------------------------------------------
CHARGE
  0 V s       :     6.889449  s :     6.889449
      pz      :     4.331273  p :    12.415087
      px      :     4.039310
      py      :     4.044503
      dz2     :     0.608879  d :     3.174618
      dxz     :     0.062080
      dyz     :     1.025505
      dx2y2   :     0.478359
      dxy     :     0.999795
      f0      :     0.005509  f :     0.013799
      f+1     :     0.003924
      f-1     :     0.003579
      f+2     :     0.000562
      f-2     :     0.000006
      f+3     :     0.000020
      f-3     :     0.000198
      g0      :     0.000116  g :     0.000267
      g+1     :     0.000044
      g-1     :     0.000046
      g+2     :     0.000044
      g-2     :     0.000002
      g+3     :     0.000000
      g-3     :     0.000005
      g+4     :     0.000007
      g-4     :     0.000003
  1 Brs       :     7.931425  s :     7.931425
      pz      :     5.745017  p :    17.551703
      px      :     5.887003
      py      :     5.919683
      dz2     :     2.008343  d :    10.021767
      dxz     :     2.007230
      dyz     :     2.005874
      dx2y2   :     2.000159
      dxy     :     2.000161
      f0      :     0.000836  f :     0.001885
      f+1     :     0.000388
      f-1     :     0.000605
      f+2     :     0.000022
      f-2     :     0.000032
      f+3     :     0.000000
      f-3     :     0.000000

SPIN
  0 V s       :     0.772807  s :     0.772807
      pz      :     0.239660  p :     0.263113
      px      :     0.009765
      py      :     0.013689
      dz2     :     0.510310  d :     2.974133
      dxz     :     0.010245
      dyz     :     0.975475
      dx2y2   :     0.478301
      dxy     :     0.999803
      f0      :    -0.000128  f :     0.001035
      f+1     :     0.000277
      f-1     :     0.000164
      f+2     :     0.000525
      f-2     :     0.000007
      f+3     :     0.000019
      f-3     :     0.000172
      g0      :     0.000016  g :     0.000050
      g+1     :    -0.000011
      g-1     :     0.000003
      g+2     :     0.000027
      g-2     :     0.000002
      g+3     :     0.000000
      g-3     :     0.000005
      g+4     :     0.000004
      g-4     :     0.000003
  1 Brs       :    -0.000278  s :    -0.000278
      pz      :    -0.002519  p :    -0.013364
      px      :    -0.021595
      py      :     0.010750
      dz2     :     0.000803  d :     0.001822
      dxz     :     0.001242
      dyz     :    -0.000522
      dx2y2   :     0.000147
      dxy     :     0.000153
      f0      :     0.000306  f :     0.000681
      f+1     :     0.000058
      f-1     :     0.000265
      f+2     :     0.000021
      f-2     :     0.000032
      f+3     :    -0.000000
      f-3     :    -0.000000


                     *******************************
                     * LOEWDIN POPULATION ANALYSIS *
                     *******************************

-------------------------------------------
LOEWDIN ATOMIC CHARGES AND SPIN POPULATIONS
-------------------------------------------
   0 V :   -0.049142    3.974723
   1 Br:    0.049142    0.025277

----------------------------------------------------
LOEWDIN REDUCED ORBITAL CHARGES AND SPIN POPULATIONS
----------------------------------------------------
CHARGE
  0 V s       :     6.881705  s :     6.881705
      pz      :     4.510230  p :    12.649897
      px      :     4.066165
      py      :     4.073503
      dz2     :     0.764661  d :     3.476047
      dxz     :     0.139104
      dyz     :     1.094475
      dx2y2   :     0.478245
      dxy     :     0.999562
      f0      :     0.020783  f :     0.040758
      f+1     :     0.009633
      f-1     :     0.009549
      f+2     :     0.000565
      f-2     :     0.000009
      f+3     :     0.000020
      f-3     :     0.000198
      g0      :     0.000399  g :     0.000734
      g+1     :     0.000137
      g-1     :     0.000137
      g+2     :     0.000044
      g-2     :     0.000003
      g+3     :     0.000000
      g-3     :     0.000005
      g+4     :     0.000007
      g-4     :     0.000003
  1 Brs       :     7.596498  s :     7.596498
      pz      :     5.719770  p :    17.314741
      px      :     5.781196
      py      :     5.813774
      dz2     :     2.025164  d :    10.036746
      dxz     :     2.003591
      dyz     :     2.007388
      dx2y2   :     2.000250
      dxy     :     2.000352
      f0      :     0.001637  f :     0.002874
      f+1     :     0.000154
      f-1     :     0.000970
      f+2     :     0.000041
      f-2     :     0.000071
      f+3     :     0.000000
      f-3     :     0.000000

SPIN
  0 V s       :     0.719552  s :     0.719552
      pz      :     0.269886  p :     0.293705
      px      :     0.009019
      py      :     0.014800
      dz2     :     0.507773  d :     2.960172
      dxz     :     0.008768
      dyz     :     0.965898
      dx2y2   :     0.478175
      dxy     :     0.999559
      f0      :     0.000153  f :     0.001241
      f+1     :     0.000137
      f-1     :     0.000224
      f+2     :     0.000527
      f-2     :     0.000009
      f+3     :     0.000019
      f-3     :     0.000172
      g0      :     0.000025  g :     0.000054
      g+1     :    -0.000012
      g-1     :    -0.000000
      g+2     :     0.000026
      g-2     :     0.000003
      g+3     :     0.000000
      g-3     :     0.000005
      g+4     :     0.000004
      g-4     :     0.000003
  1 Brs       :     0.002796  s :     0.002796
      pz      :     0.015015  p :     0.009732
      px      :    -0.018845
      py      :     0.013562
      dz2     :     0.005000  d :     0.010966
      dxz     :     0.000876
      dyz     :     0.004483
      dx2y2   :     0.000251
      dxy     :     0.000356
      f0      :     0.000776  f :     0.001784
      f+1     :     0.000039
      f-1     :     0.000858
      f+2     :     0.000040
      f-2     :     0.000070
      f+3     :    -0.000000
      f-3     :    -0.000000


                      *****************************
                      * MAYER POPULATION ANALYSIS *
                      *****************************

  NA   - Mulliken gross atomic population
  ZA   - Total nuclear charge
  QA   - Mulliken gross atomic charge
  VA   - Mayer's total valence
  BVA  - Mayer's bonded valence
  FA   - Mayer's free valence

  ATOM       NA         ZA         QA         VA         BVA        FA
  0 V     22.4932    23.0000     0.5068     4.8390     0.8961     3.9429
  1 Br    35.5068    35.0000    -0.5068     0.8979     0.8961     0.0017

  Mayer bond orders larger than 0.100000
B(  0-V ,  1-Br) :   0.8961 

-------
TIMINGS
-------

Total SCF time: 0 days 0 hours 0 min 20 sec 

Total time                  ....      20.646 sec
Sum of individual times     ....      20.214 sec  ( 97.9%)

Fock matrix formation       ....      19.504 sec  ( 94.5%)
Diagonalization             ....       0.338 sec  (  1.6%)
Density matrix formation    ....       0.057 sec  (  0.3%)
Population analysis         ....       0.006 sec  (  0.0%)
Initial guess               ....       0.110 sec  (  0.5%)
Orbital Transformation      ....       0.000 sec  (  0.0%)
Orbital Orthonormalization  ....       0.000 sec  (  0.0%)
DIIS solution               ....       0.171 sec  (  0.8%)


           ************************************************************
           *        Program running with 24 parallel MPI-processes    *
           *              working on a common directory               *
           ************************************************************


------------------------------------------------------------------------------- 
                              ORCA-MATRIX DRIVEN CI                            
------------------------------------------------------------------------------- 

--------------------------------
AUTOMATIC CHOICE OF INCORE LEVEL
--------------------------------

Memory available                           ...   2500.00 MB
Memory needed for S+T                      ...     22.98 MB
Memory needed for J+K                      ...     46.14 MB
Memory needed for DIIS                     ...    321.66 MB
Memory needed for 3-ext                    ...     68.93 MB
Memory needed for 4-ext                    ...    166.24 MB
Memory needed for triples                  ...     20.27 MB
 -> Final InCoreLevel    ... 5
 -> check shows that triples correction can be computed


Wavefunction type
-----------------
Correlation treatment                      ...      CCSD     
Single excitations                         ... ON
Orbital optimization                       ... OFF
Calculation of Z vector                    ... OFF
Calculation of Brueckner orbitals          ... OFF
Perturbative triple excitations            ... ON
Calculation of F12 correction              ... OFF
Frozen core treatment                      ... chemical core (28 el)
Reference Wavefunction                     ... UHF
  Alpha-MOs occ    :    14 ...   30 ( 17 MO's/ 17 electrons)
  Beta-MOs occ     :    14 ...   26 ( 13 MO's/ 13 electrons)
  Alpha-MOs virt   :    31 ...  111 ( 81 MO's              )
  Beta-MOs virt    :    27 ...  111 ( 85 MO's              )
Number of AO's                             ...    112
Number of electrons                        ...     58
Number of correlated electrons             ...     30

Algorithmic settings
--------------------
Integral transformation                    ... AO direct full transformation
K(C) Formation                             ... FULL-MO TRAFO
Maximum number of iterations               ...        50
Convergence tolerance (max. residuum)      ... 1.000e-06
Level shift for amplitude update           ... 2.000e-01
Maximum number of DIIS vectors             ...         7
DIIS turned on at iteration                ...         0
Damping before turning on DIIS             ...     0.500
Damping after turning on DIIS              ...     0.000
Pair specific amplitude update             ... OFF
Natural orbital iterations                 ... OFF
Perturbative natural orbital generation    ... OFF
Printlevel                                 ... 2

Memory handling:
----------------
Maximum memory for working arrays          ...   2500 MB
Data storage in matrix containers          ... UNCOMPRESSED
Data type for integral storage             ... DOUBLE
In-Core Storage of quantities:
   Amplitudes+Sigma Vector      ... YES
   J+K operators                ... YES
   DIIS vectors                 ... YES
   3-external integrals         ... YES
   4-external integrals         ... YES


Initializing the integral package          ... done
Warning: reference  - re-canonicalizations have been set to INT 1 VIRT 1

--------------------------
UNRESTRICTED FOCK OPERATOR
--------------------------

<ss|ss>:         2556 b          153 skpd (  6.0%)    0.001 s ( 0.000 ms/b)
<ss|sp>:         8094 b          464 skpd (  5.7%)    0.003 s ( 0.000 ms/b)
<ss|sd>:         6603 b          338 skpd (  5.1%)    0.002 s ( 0.000 ms/b)
<ss|sf>:         2485 b          158 skpd (  6.4%)    0.001 s ( 0.000 ms/b)
<ss|sg>:          852 b           45 skpd (  5.3%)    0.001 s ( 0.001 ms/b)
<ss|pp>:         3834 b          195 skpd (  5.1%)    0.002 s ( 0.000 ms/b)
<ss|pd>:         5609 b          308 skpd (  5.5%)    0.002 s ( 0.000 ms/b)
<ss|pf>:         2130 b          140 skpd (  6.6%)    0.001 s ( 0.000 ms/b)
<ss|pg>:          710 b           37 skpd (  5.2%)    0.001 s ( 0.001 ms/b)
<ss|dd>:         2556 b          107 skpd (  4.2%)    0.002 s ( 0.001 ms/b)
<ss|df>:         1704 b           82 skpd (  4.8%)    0.001 s ( 0.000 ms/b)
<ss|dg>:          568 b           26 skpd (  4.6%)    0.001 s ( 0.002 ms/b)
<ss|ff>:          426 b           18 skpd (  4.2%)    0.000 s ( 0.001 ms/b)
<ss|fg>:          213 b            9 skpd (  4.2%)    0.000 s ( 0.002 ms/b)
<ss|gg>:           71 b            3 skpd (  4.2%)    0.001 s ( 0.009 ms/b)
<sp|sp>:         6555 b          340 skpd (  5.2%)    0.003 s ( 0.000 ms/b)
<sp|sd>:        10602 b          507 skpd (  4.8%)    0.004 s ( 0.000 ms/b)
<sp|sf>:         3990 b          261 skpd (  6.5%)    0.001 s ( 0.000 ms/b)
<sp|sg>:         1368 b           68 skpd (  5.0%)    0.001 s ( 0.001 ms/b)
<sp|pp>:         6156 b          250 skpd (  4.1%)    0.003 s ( 0.001 ms/b)
<sp|pd>:         9006 b          371 skpd (  4.1%)    0.006 s ( 0.001 ms/b)
<sp|pf>:         3420 b          206 skpd (  6.0%)    0.002 s ( 0.001 ms/b)
<sp|pg>:         1140 b           44 skpd (  3.9%)    0.002 s ( 0.002 ms/b)
<sp|dd>:         4104 b          132 skpd (  3.2%)    0.006 s ( 0.002 ms/b)
<sp|df>:         2736 b          106 skpd (  3.9%)    0.002 s ( 0.001 ms/b)
<sp|dg>:          912 b           34 skpd (  3.7%)    0.003 s ( 0.003 ms/b)
<sp|ff>:          684 b           21 skpd (  3.1%)    0.001 s ( 0.002 ms/b)
<sp|fg>:          342 b           11 skpd (  3.2%)    0.002 s ( 0.005 ms/b)
<sp|gg>:          114 b            4 skpd (  3.5%)    0.002 s ( 0.020 ms/b)
<sd|sd>:         4371 b          160 skpd (  3.7%)    0.003 s ( 0.001 ms/b)
<sd|sf>:         3255 b          191 skpd (  5.9%)    0.002 s ( 0.001 ms/b)
<sd|sg>:         1116 b           52 skpd (  4.7%)    0.002 s ( 0.002 ms/b)
<sd|pp>:         5022 b          187 skpd (  3.7%)    0.005 s ( 0.001 ms/b)
<sd|pd>:         7347 b          225 skpd (  3.1%)    0.008 s ( 0.001 ms/b)
<sd|pf>:         2790 b          142 skpd (  5.1%)    0.003 s ( 0.001 ms/b)
<sd|pg>:          930 b           27 skpd (  2.9%)    0.004 s ( 0.004 ms/b)
<sd|dd>:         3348 b           45 skpd (  1.3%)    0.010 s ( 0.003 ms/b)
<sd|df>:         2232 b           47 skpd (  2.1%)    0.004 s ( 0.002 ms/b)
<sd|dg>:          744 b           13 skpd (  1.7%)    0.005 s ( 0.007 ms/b)
<sd|ff>:          558 b            9 skpd (  1.6%)    0.002 s ( 0.004 ms/b)
<sd|fg>:          279 b            4 skpd (  1.4%)    0.003 s ( 0.010 ms/b)
<sd|gg>:           93 b            1 skpd (  1.1%)    0.004 s ( 0.043 ms/b)
<sf|sf>:          630 b           49 skpd (  7.8%)    0.001 s ( 0.001 ms/b)
<sf|sg>:          420 b           27 skpd (  6.4%)    0.001 s ( 0.002 ms/b)
<sf|pp>:         1890 b           98 skpd (  5.2%)    0.002 s ( 0.001 ms/b)
<sf|pd>:         2765 b          138 skpd (  5.0%)    0.004 s ( 0.002 ms/b)
<sf|pf>:         1050 b           73 skpd (  7.0%)    0.002 s ( 0.002 ms/b)
<sf|pg>:          350 b           18 skpd (  5.1%)    0.002 s ( 0.006 ms/b)
<sf|dd>:         1260 b           43 skpd (  3.4%)    0.005 s ( 0.004 ms/b)
<sf|df>:          840 b           37 skpd (  4.4%)    0.002 s ( 0.003 ms/b)
<sf|dg>:          280 b           13 skpd (  4.6%)    0.003 s ( 0.011 ms/b)
<sf|ff>:          210 b            7 skpd (  3.3%)    0.001 s ( 0.007 ms/b)
<sf|fg>:          105 b            4 skpd (  3.8%)    0.002 s ( 0.017 ms/b)
<sf|gg>:           35 b            1 skpd (  2.9%)    0.002 s ( 0.067 ms/b)
<sg|sg>:           78 b            6 skpd (  7.7%)    0.000 s ( 0.004 ms/b)
<sg|pp>:          648 b           23 skpd (  3.5%)    0.002 s ( 0.003 ms/b)
<sg|pd>:          948 b           29 skpd (  3.1%)    0.003 s ( 0.003 ms/b)
<sg|pf>:          360 b           20 skpd (  5.6%)    0.001 s ( 0.004 ms/b)
<sg|pg>:          120 b            6 skpd (  5.0%)    0.001 s ( 0.011 ms/b)
<sg|dd>:          432 b            6 skpd (  1.4%)    0.004 s ( 0.009 ms/b)
<sg|df>:          288 b            9 skpd (  3.1%)    0.002 s ( 0.005 ms/b)
<sg|dg>:           96 b            3 skpd (  3.1%)    0.002 s ( 0.022 ms/b)
<sg|ff>:           72 b            1 skpd (  1.4%)    0.001 s ( 0.010 ms/b)
<sg|fg>:           36 b            0 skpd (  0.0%)    0.001 s ( 0.033 ms/b)
<sg|gg>:           12 b            0 skpd (  0.0%)    0.002 s ( 0.134 ms/b)
<pp|pp>:         1485 b           44 skpd (  3.0%)    0.003 s ( 0.002 ms/b)
<pp|pd>:         4266 b          120 skpd (  2.8%)    0.007 s ( 0.002 ms/b)
<pp|pf>:         1620 b           70 skpd (  4.3%)    0.003 s ( 0.002 ms/b)
<pp|pg>:          540 b           12 skpd (  2.2%)    0.003 s ( 0.005 ms/b)
<pp|dd>:         1944 b           38 skpd (  2.0%)    0.008 s ( 0.004 ms/b)
<pp|df>:         1296 b           30 skpd (  2.3%)    0.003 s ( 0.002 ms/b)
<pp|dg>:          432 b           10 skpd (  2.3%)    0.004 s ( 0.010 ms/b)
<pp|ff>:          324 b            6 skpd (  1.9%)    0.002 s ( 0.005 ms/b)
<pp|fg>:          162 b            3 skpd (  1.9%)    0.002 s ( 0.015 ms/b)
<pp|gg>:           54 b            1 skpd (  1.9%)    0.003 s ( 0.062 ms/b)
<pd|pd>:         3160 b           79 skpd (  2.5%)    0.011 s ( 0.004 ms/b)
<pd|pf>:         2370 b          107 skpd (  4.5%)    0.007 s ( 0.003 ms/b)
<pd|pg>:          790 b           13 skpd (  1.6%)    0.007 s ( 0.010 ms/b)
<pd|dd>:         2844 b           35 skpd (  1.2%)    0.019 s ( 0.007 ms/b)
<pd|df>:         1896 b           26 skpd (  1.4%)    0.008 s ( 0.004 ms/b)
<pd|dg>:          632 b            8 skpd (  1.3%)    0.011 s ( 0.018 ms/b)
<pd|ff>:          474 b            6 skpd (  1.3%)    0.005 s ( 0.010 ms/b)
<pd|fg>:          237 b            3 skpd (  1.3%)    0.006 s ( 0.027 ms/b)
<pd|gg>:           79 b            1 skpd (  1.3%)    0.009 s ( 0.116 ms/b)
<pf|pf>:          465 b           30 skpd (  6.5%)    0.002 s ( 0.004 ms/b)
<pf|pg>:          300 b           10 skpd (  3.3%)    0.004 s ( 0.012 ms/b)
<pf|dd>:         1080 b           32 skpd (  3.0%)    0.009 s ( 0.009 ms/b)
<pf|df>:          720 b           26 skpd (  3.6%)    0.004 s ( 0.006 ms/b)
<pf|dg>:          240 b            8 skpd (  3.3%)    0.006 s ( 0.024 ms/b)
<pf|ff>:          180 b            6 skpd (  3.3%)    0.003 s ( 0.016 ms/b)
<pf|fg>:           90 b            3 skpd (  3.3%)    0.004 s ( 0.041 ms/b)
<pf|gg>:           30 b            1 skpd (  3.3%)    0.005 s ( 0.161 ms/b)
<pg|pg>:           55 b            0 skpd (  0.0%)    0.001 s ( 0.027 ms/b)
<pg|dd>:          360 b            1 skpd (  0.3%)    0.006 s ( 0.017 ms/b)
<pg|df>:          240 b            3 skpd (  1.2%)    0.002 s ( 0.010 ms/b)
<pg|dg>:           80 b            1 skpd (  1.2%)    0.003 s ( 0.042 ms/b)
<pg|ff>:           60 b            0 skpd (  0.0%)    0.001 s ( 0.022 ms/b)
<pg|fg>:           30 b            0 skpd (  0.0%)    0.002 s ( 0.079 ms/b)
<pg|gg>:           10 b            0 skpd (  0.0%)    0.003 s ( 0.279 ms/b)
<dd|dd>:          666 b            1 skpd (  0.2%)    0.014 s ( 0.021 ms/b)
<dd|df>:          864 b            1 skpd (  0.1%)    0.006 s ( 0.007 ms/b)
<dd|dg>:          288 b            0 skpd (  0.0%)    0.010 s ( 0.034 ms/b)
<dd|ff>:          216 b            0 skpd (  0.0%)    0.004 s ( 0.018 ms/b)
<dd|fg>:          108 b            0 skpd (  0.0%)    0.005 s ( 0.051 ms/b)
<dd|gg>:           36 b            0 skpd (  0.0%)    0.008 s ( 0.215 ms/b)
<df|df>:          300 b            1 skpd (  0.3%)    0.004 s ( 0.015 ms/b)
<df|dg>:          192 b            0 skpd (  0.0%)    0.007 s ( 0.039 ms/b)
<df|ff>:          144 b            0 skpd (  0.0%)    0.004 s ( 0.028 ms/b)
<df|fg>:           72 b            0 skpd (  0.0%)    0.005 s ( 0.072 ms/b)
<df|gg>:           24 b            0 skpd (  0.0%)    0.007 s ( 0.291 ms/b)
<dg|dg>:           36 b            0 skpd (  0.0%)    0.004 s ( 0.098 ms/b)
<dg|ff>:           48 b            0 skpd (  0.0%)    0.002 s ( 0.036 ms/b)
<dg|fg>:           24 b            0 skpd (  0.0%)    0.003 s ( 0.126 ms/b)
<dg|gg>:            8 b            0 skpd (  0.0%)    0.004 s ( 0.455 ms/b)
<ff|ff>:           21 b            0 skpd (  0.0%)    0.001 s ( 0.051 ms/b)
<ff|fg>:           18 b            0 skpd (  0.0%)    0.002 s ( 0.106 ms/b)
<ff|gg>:            6 b            0 skpd (  0.0%)    0.003 s ( 0.492 ms/b)
<fg|fg>:            6 b            0 skpd (  0.0%)    0.001 s ( 0.237 ms/b)
<fg|gg>:            3 b            0 skpd (  0.0%)    0.002 s ( 0.671 ms/b)
<gg|gg>:            1 b            0 skpd (  0.0%)    0.001 s ( 1.171 ms/b)
Recanonicalizing the internal orbitals
Recanonicalizing the virtual orbitals
Time needed for Fock operator              ...            0.440 sec
Reference energy                           ...  -3515.383580300
Warning: for UHF the TrafoType has to be JK
Warning: for UHF the K(C)-option cannot be MO but must be AOX

-------------------------------
PARTIAL EXCHANGE TRANSFORMATION
-------------------------------

Transformation type                        ... two-operators
Generation of integrals (i,mue|j,nue)      ... ON
Generation of integrals (mue,kappa|nue,tau)... ON
Generation of integrals (i,mue|a,nue)      ... ON
Dimension of the basis                     ...  112
Number of internal alpha-MOs               ...   17 (  14-  30)
Number of internal beta-MOs                ...   13 (  14-  26)
Number of external alpha-MOs               ...   81 (  31- 111)
Number of external beta-MOs                ...   85 (  27- 111)
Pair cutoff                                ... 0.000e+00 Eh
Number of AO pairs in the trafo            ... 6328
Total Number of distinct AO pairs          ... 6328
Memory devoted for trafo                   ... 2500.0 MB 
Max. Number of MO pairs treated together   ... 26122      
Number Format for Storage                  ... Double (8 Byte)
Integral package used                      ... LIBINT

Starting integral evaluation:
    ... done with AO integral generation
Closing buffer AOK[aa] ( 0.00 GB; CompressionRatio= 0.99)
Closing buffer AOK[bb] ( 0.00 GB; CompressionRatio= 0.99)
Closing buffer AOK[ab] ( 0.00 GB; CompressionRatio= 0.99)
Closing buffer AOK[ba] ( 0.00 GB; CompressionRatio= 0.99)
Collecting buffer AOK 
Closing buffer IAAO1[aa] ( 0.00 GB; CompressionRatio= 1.00)
Closing buffer IAAO1[bb] ( 0.00 GB; CompressionRatio= 1.00)
Closing buffer IAAO1[ab] ( 0.00 GB; CompressionRatio= 1.00)
Closing buffer IAAO1[ba] ( 0.00 GB; CompressionRatio= 1.00)
Closing buffer IAAO2[aa] ( 0.00 GB; CompressionRatio= 1.00)
Closing buffer IAAO2[bb] ( 0.00 GB; CompressionRatio= 1.00)
Closing buffer IAAO2[ab] ( 0.00 GB; CompressionRatio= 1.00)
Closing buffer IAAO2[ba] ( 0.00 GB; CompressionRatio= 1.00)
Collecting buffer IAAO 
Closing buffer PRQS    ( 0.01 GB; CompressionRatio= 1.00)
Collecting buffer PRQS 
Number of alpha/alpha MO pairs in trafo    ...  153
Number of beta /beta  MO pairs in trafo    ...   91
Number of alpha/ beta MO pairs in trafo    ...  221
------------------------
SORTING OF (i,mue|j,nue)
------------------------

SORTING OF ALPHA/ALPHA PAIRS
IBATCH = 1 of  1
Closing buffer KAO[aa] ( 0.00 GB; CompressionRatio= 1.00)
Collecting buffer KAO 
SORTING OF BETA /BETA  PAIRS
IBATCH = 1 of  1
Closing buffer KAO[bb] ( 0.00 GB; CompressionRatio= 1.00)
Collecting buffer KAO 
SORTING OF ALPHA/BETA  PAIRS
IBATCH = 1 of  1
Closing buffer KAO[ab] ( 0.00 GB; CompressionRatio= 0.999880435216)
Collecting buffer KAO[ab] 
------------------------
SORTING OF (i,mue|a,nue)
------------------------

Number of alpha/alpha (i,a) pairs in trafo  ... 1377
Number of beta /beta  (i,a) pairs in trafo  ... 1105
Number of alpha/ beta (i,a) pairs in trafo  ... 1445
Number of beta /alpha (i,a) pairs in trafo  ... 1053
Setting up the alpha/alpha list             ... done
Setting up the beta /beta  list             ... done
Setting up the alpha/beta  list             ... done
Setting up the beta /alpha list             ... done
    ... Now sorting (i,mue|a,nue)integrals
    ... Integrals (i,b|a,c) will be made on the fly
SORTING OF ALPHA/ALPHA PAIRS
IBATCH = 1 of  1
Closing buffer IPAQ[aa]  0.00 GB; CompressionRatio= 1.00)
SORTING OF BETA /BETA  PAIRS
IBATCH = 1 of  1
Closing buffer IPAQ[bb]( 0.00 GB; CompressionRatio= 1.00)
SORTING OF ALPHA/BETA  PAIRS (NMatSort_ab=61)
IBATCH = 1 of  1
Closing buffer IPAQ[ab]( 0.00 GB; CompressionRatio= 1.00)
SORTING OF BETA/ALPHA  PAIRS
IBATCH = 1 of  1
Closing buffer IPAQ[ba]( 0.00 GB; CompressionRatio= 1.00)
N(AO-Batches) Done                         ...     11896 
N(AO-Batches) Skipped                      ...         0 
N(IJ)-pairs Skipped                        ...         0 
TOTAL TIME for half transformation         ...     2.166 sec
AO-integral generation                     ...     0.152 sec
Half transformation                        ...     0.032 sec
K-integral sorting                         ...     1.169 sec
<ss|**>: 
------------------------------
PARTIAL COULOMB TRANSFORMATION
------------------------------

Transformation type                        ... two-operators
Dimension of the basis                     ...  112
Number of internal alpha-MOs               ...   17 (14-30)
Number of internal beta-MOs                ...   13 (14-26)
Pair cutoff                                ... 0.000e+00 Eh
Number of AO pairs included in the trafo   ... 6327
Total Number of distinct AO pairs          ... 6328
Memory devoted for trafo                   ... 2500.0 MB 
Max. Number of MO pairs treated together   ... 51782      
Max. Number of MOs treated per batch       ...  462      
Number Format for Storage                  ... Double (8 Byte)
AO-integral source                         ... DIRECT
Integral package used                      ... LIBINT

Starting integral evaluation:
<sp|**>:        40896 b        0 skpd     0.015 s (  0.000 ms/b)
<sd|**>:        65664 b        0 skpd     0.033 s (  0.001 ms/b)
       53568 b        0 skpd     0.046 s (  0.001 ms/b)
<sf|**>:        20160 b        0 skpd     0.018 s (  0.001 ms/b)
<sg|**>:         6912 b        0 skpd     0.029 s (  0.004 ms/b)
<pp|**>:        31104 b        0 skpd     0.041 s (  0.001 ms/b)
<pd|**>:        45504 b        0 skpd     0.083 s (  0.002 ms/b)
<pf|**>:        17280 b        0 skpd     0.035 s (  0.002 ms/b)
<pg|**>:         5760 b        0 skpd     0.042 s (  0.007 ms/b)
<dd|**>:        20736 b        0 skpd     0.102 s (  0.005 ms/b)
<df|**>:        13824 b        0 skpd     0.040 s (  0.003 ms/b)
<dg|**>:         4608 b        0 skpd     0.058 s (  0.013 ms/b)
<ff|**>:         3456 b        0 skpd     0.022 s (  0.006 ms/b)
<fg|**>:         1728 b        0 skpd     0.031 s (  0.018 ms/b)
<gg|**>:          576 b        0 skpd     0.046 s (  0.081 ms/b)
Closing buffer AOJ[aa] ( 0.00 GB; CompressionRatio= 0.99)
Closing buffer AOJ[bb] ( 0.00 GB; CompressionRatio= 0.00)
Collecting buffer AOJ 
    ... done with AO integral generation
Number of Alpha-MO pairs included          ...  153
Number of Beta-MO pairs included           ...   91
    ... Now sorting integrals
SORTING ALPHA/ALPHA PAIRS
IBATCH = 1 of  1
Closing buffer JAO[aa] ( 0.00 GB; CompressionRatio= 1.00)
SORTING BETA/BETA PAIRS
IBATCH = 1 of  1
Closing buffer JAO[bb] ( 0.00 GB; CompressionRatio= 1.00)
Collecting buffer JAO 
TOTAL TIME for half transformation         ...     0.808 sec
AO-integral generation                     ...     0.636 sec
Half transformation                        ...     0.017 sec
J-integral sorting                         ...     0.148 sec

-------------------------- SECOND HALF TRANSFORMATION -------------------------
Formation of (ij|kl),(ij|ka), (ij|ab)      ... ok (     0.094 sec)
Formation of (ik|jl),(ik|ja), (ia|jb)      ... ok (     0.169 sec)


-----------------------
SPIN UNRESTRICTED GUESS
-----------------------

Entering MDCI_UHF_Guess, Tailored=0
Spin-components of the MP2 energy:
EMP2(aa)=     -0.121772877
EMP2(bb)=     -0.074275667
EMP2(ab)=     -0.413207757

Initial guess performed in     0.081 sec
E(0)                                       ...  -3515.383580300
E(MP2)                                     ...     -0.609256301
Initial E(tot)                             ...  -3515.992836601
<T|T>                                      ...      0.144105231
Number of pairs included                   ... 435

------------------------------------------------
                  UHF COUPLED CLUSTER ITERATIONS
------------------------------------------------

Number of amplitudes to be optimized       ...      2250641

Iter       E(tot)           E(Corr)          Delta-E          Residual     Time      <S|S>**1/2
  0  -3515.992836601     -0.609256301      0.000000000      0.019527210    2.03      0.000000020
                           *** Turning on DIIS ***
  1  -3516.002227308     -0.618647008     -0.009390707      0.007700438    2.18      0.042975050
  2  -3516.013866519     -0.630286218     -0.011639210      0.007734107    2.22      0.057559510
  3  -3516.016791923     -0.633211623     -0.002925405      0.007130549    2.25      0.077028880
  4  -3516.018023674     -0.634443374     -0.001231751      0.006767051    2.25      0.092829150
  5  -3516.019125967     -0.635545667     -0.001102293      0.006151329    2.35      0.116569467
  6  -3516.019710839     -0.636130538     -0.000584872      0.005729218    2.34      0.135336271
  7  -3516.020479195     -0.636898895     -0.000768357      0.005127642    2.41      0.165813587
  8  -3516.022000969     -0.638420668     -0.001521773      0.003811066    2.30      0.234749860
  9  -3516.023766404     -0.640186104     -0.001765435      0.002082480    2.27      0.315241224
 10  -3516.024175558     -0.640595258     -0.000409154      0.001660510    2.28      0.339031835
 11  -3516.025595300     -0.642014999     -0.001419741      0.001164600    2.27      0.401190150
 12  -3516.025419289     -0.641838989      0.000176010      0.001196052    2.29      0.395973461
 13  -3516.025684976     -0.642104676     -0.000265687      0.000997495    2.32      0.407798974
 14  -3516.025840230     -0.642259930     -0.000155254      0.000796042    2.32      0.414955830
 15  -3516.025954913     -0.642374612     -0.000114683      0.000524112    2.34      0.421378841
 16  -3516.025939136     -0.642358836      0.000015776      0.000305490    2.32      0.421593929
 17  -3516.025973797     -0.642393496     -0.000034660      0.000211933    2.29      0.423462062
 18  -3516.025999555     -0.642419255     -0.000025759      0.000155407    2.27      0.424458901
 19  -3516.025986471     -0.642406171      0.000013084      0.000095656    2.25      0.423740448
 20  -3516.025988786     -0.642408486     -0.000002315      0.000059023    2.28      0.423761461
 21  -3516.025984650     -0.642404350      0.000004136      0.000030647    2.28      0.423536492
 22  -3516.025981733     -0.642401432      0.000002917      0.000014093    2.26      0.423380888
 23  -3516.025980414     -0.642400114      0.000001319      0.000009964    2.27      0.423346264
 24  -3516.025980111     -0.642399810      0.000000303      0.000004106    2.29      0.423345619
 25  -3516.025980492     -0.642400191     -0.000000381      0.000002870    2.34      0.423387654
 26  -3516.025980900     -0.642400599     -0.000000408      0.000002442    2.30      0.423410795
 27  -3516.025981293     -0.642400992     -0.000000393      0.000002070    2.30      0.423432634
 28  -3516.025981788     -0.642401488     -0.000000496      0.000001745    2.33      0.423455452
 29  -3516.025982248     -0.642401947     -0.000000459      0.000001388    2.32      0.423476420
 30  -3516.025982826     -0.642402526     -0.000000578      0.000000839    2.32      0.423503730
               --- The Coupled-Cluster iterations have converged ---

----------------------
COUPLED CLUSTER ENERGY
----------------------

E(0)                                       ...  -3515.383580300
E(CORR)                                    ...     -0.642402526
E(TOT)                                     ...  -3516.025982826
Singles norm <S|S>**1/2                    ...      0.423503730 ( 0.393525901, 0.029977829)  
T1 diagnostic                              ...      0.077320849                              

------------------
LARGEST AMPLITUDES
------------------
  30a-> 33a  -1a-> -1a       0.534115
  30a-> 39a  -1a-> -1a       0.242694
  30a-> 35a  -1a-> -1a       0.208607
  30a-> 40a  -1a-> -1a       0.143256
  25a-> 33a  -1a-> -1a       0.129924
  25a-> 35a  -1a-> -1a       0.086310
  25a-> 39a  -1a-> -1a       0.085005
  27a-> 33a  -1a-> -1a       0.080914
  27a-> 39a  -1a-> -1a       0.062302
  27a-> 35a  -1a-> -1a       0.055970
  30a-> 54a  -1a-> -1a       0.054534
  25a-> 40a  -1a-> -1a       0.053613
  30a-> 44a  -1a-> -1a       0.050651
  28a-> 34a  -1a-> -1a       0.044837
  25a-> 36a  -1a-> -1a       0.041392
  30a-> 36a  -1a-> -1a       0.040946

----------------------
UHF TRIPLES CORRECTION (Algorithm 1)
----------------------

Multiplier for the singles contribution    ...      1.000000000

SPIN-CASE Alpha-Alpha-Alpha:
10% done
20% done
30% done
40% done
50% done
60% done
70% done
80% done
90% done


SPIN-CASE Beta-Beta-Beta:
10% done
20% done
30% done
40% done
50% done
60% done
70% done
80% done
90% done


SPIN-CASE Alpha-Alpha-Beta:
10% done
20% done
30% done
40% done
50% done
60% done
70% done
80% done
90% done


SPIN-CASE Beta-Beta-Alpha:
10% done
20% done
30% done
40% done
50% done
60% done
70% done
80% done
90% done


Triples Correction (T)                     ...     -0.020114066
    alpha-alpha-alpha ... -0.001584289 (  7.9%)
    alpha-alpha-beta  ... -0.010860830 ( 54.0%)
    alpha-beta -beta  ... -0.007149778 ( 35.5%)
    beta -beta -beta  ... -0.000519168 (  2.6%)
Scaling of triples based on CCSD energies (Peterson et al. Molecular Physics 113, 1551 (2015))
E(T*) = f*E(T) where f = E(F12-CCSD)/E(CCSD) 
f = CCSD (with F12)/ CCSD (without F12)    ...      1.000000000
Scaled triples correction (T)              ...     -0.020114066

Final correlation energy                   ...     -0.662516591
E(CCSD)                                    ...  -3516.025982826
E(CCSD(T))                                 ...  -3516.046096892



        !!!!!!!!!!!!!!!!!!!!!!!!!!!!!!!!!!!!!!!!!!!!!!!!!!!!!!!!!!!!!!!!!!!!!!!!!! 
        !  Warning: Densities are linearized densities                           !
        !!!!!!!!!!!!!!!!!!!!!!!!!!!!!!!!!!!!!!!!!!!!!!!!!!!!!!!!!!!!!!!!!!!!!!!!!! 

NORM  =      1.684163753 sqrt=     1.297753348
W(HF) =      0.593766490
------------------------------------------------------------------------------
                           ORCA POPULATION ANALYSIS
------------------------------------------------------------------------------
Input electron density              ... 16_VBr.mdcip
Input spin density                  ... 16_VBr.mdcir
BaseName (.gbw .S,...)              ... 16_VBr

                    ********************************
                    * MULLIKEN POPULATION ANALYSIS *
                    ********************************

------------------------------------------
MULLIKEN ATOMIC CHARGES AND SPIN DENSITIES
------------------------------------------
   0 V :    0.379557    4.072999
   1 Br:   -0.379557   -0.072999
Sum of atomic charges       :   -0.0000000
Sum of atomic spin densities:    4.0000000

---------------------------------------------------
MULLIKEN REDUCED ORBITAL CHARGES AND SPIN DENSITIES
---------------------------------------------------
CHARGE
  0 V s       :     6.656390  s :     6.656390
      pz      :     4.025815  p :    12.106172
      px      :     4.029925
      py      :     4.050432
      dz2     :     0.639332  d :     3.815401
      dxz     :     0.113134
      dyz     :     1.020595
      dx2y2   :     1.044214
      dxy     :     0.998127
      f0      :     0.008095  f :     0.039482
      f+1     :     0.005927
      f-1     :     0.007614
      f+2     :     0.004026
      f-2     :     0.003947
      f+3     :     0.004977
      f-3     :     0.004896
      g0      :     0.000429  g :     0.002998
      g+1     :     0.000299
      g-1     :     0.000401
      g+2     :     0.000291
      g-2     :     0.000291
      g+3     :     0.000298
      g-3     :     0.000297
      g+4     :     0.000343
      g-4     :     0.000349
  1 Brs       :     7.921353  s :     7.921353
      pz      :     5.636066  p :    17.328914
      px      :     5.821135
      py      :     5.871713
      dz2     :     2.024948  d :    10.112461
      dxz     :     2.024476
      dyz     :     2.024715
      dx2y2   :     2.019227
      dxy     :     2.019096
      f0      :     0.003271  f :     0.016829
      f+1     :     0.002564
      f-1     :     0.002892
      f+2     :     0.002138
      f-2     :     0.002126
      f+3     :     0.001919
      f-3     :     0.001919

SPIN
  0 V s       :     0.533844  s :     0.533844
      pz      :    -0.018340  p :     0.045274
      px      :     0.020362
      py      :     0.043252
      dz2     :     0.497831  d :     3.473370
      dxz     :     0.022629
      dyz     :     0.942155
      dx2y2   :     1.028049
      dxy     :     0.982706
      f0      :     0.001880  f :     0.018959
      f+1     :     0.001103
      f-1     :     0.003107
      f+2     :     0.002574
      f-2     :     0.002503
      f+3     :     0.003908
      f-3     :     0.003884
      g0      :     0.000136  g :     0.001551
      g+1     :     0.000078
      g-1     :     0.000182
      g+2     :     0.000151
      g-2     :     0.000153
      g+3     :     0.000181
      g-3     :     0.000180
      g+4     :     0.000243
      g-4     :     0.000247
  1 Brs       :    -0.003934  s :    -0.003934
      pz      :    -0.055929  p :    -0.074726
      px      :    -0.028874
      py      :     0.010077
      dz2     :     0.001734  d :     0.004677
      dxz     :     0.000599
      dyz     :     0.001537
      dx2y2   :     0.000461
      dxy     :     0.000347
      f0      :     0.000492  f :     0.000983
      f+1     :     0.000037
      f-1     :     0.000367
      f+2     :     0.000057
      f-2     :     0.000046
      f+3     :    -0.000008
      f-3     :    -0.000008


                     *******************************
                     * LOEWDIN POPULATION ANALYSIS *
                     *******************************

-----------------------------------------
LOEWDIN ATOMIC CHARGES AND SPIN DENSITIES
-----------------------------------------
   0 V :   -0.132652    4.022840
   1 Br:    0.132652   -0.022840

--------------------------------------------------
LOEWDIN REDUCED ORBITAL CHARGES AND SPIN DENSITIES
--------------------------------------------------
CHARGE
  0 V s       :     6.652301  s :     6.652301
      pz      :     4.169451  p :    12.301158
      px      :     4.053655
      py      :     4.078052
      dz2     :     0.802652  d :     4.111131
      dxz     :     0.185350
      dyz     :     1.081599
      dx2y2   :     1.043772
      dxy     :     0.997758
      f0      :     0.022364  f :     0.064633
      f+1     :     0.011117
      f-1     :     0.013242
      f+2     :     0.004059
      f-2     :     0.003978
      f+3     :     0.004977
      f-3     :     0.004896
      g0      :     0.000693  g :     0.003430
      g+1     :     0.000383
      g-1     :     0.000483
      g+2     :     0.000292
      g-2     :     0.000292
      g+3     :     0.000298
      g-3     :     0.000297
      g+4     :     0.000343
      g-4     :     0.000349
  1 Brs       :     7.595843  s :     7.595843
      pz      :     5.628081  p :    17.124252
      px      :     5.722925
      py      :     5.773247
      dz2     :     2.040448  d :    10.129336
      dxz     :     2.021648
      dyz     :     2.028301
      dx2y2   :     2.019567
      dxy     :     2.019372
      f0      :     0.003867  f :     0.017916
      f+1     :     0.002382
      f-1     :     0.003437
      f+2     :     0.002204
      f-2     :     0.002186
      f+3     :     0.001919
      f-3     :     0.001919

SPIN
  0 V s       :     0.490802  s :     0.490802
      pz      :    -0.017447  p :     0.047229
      px      :     0.019170
      py      :     0.045505
      dz2     :     0.505909  d :     3.465070
      dxz     :     0.020864
[...]
 23  -3516.413208757     -0.962264738      0.000004739      0.000012972   10.83      0.429111543
 24  -3516.413206809     -0.962262789      0.000001948      0.000007973   10.77      0.429048780
 25  -3516.413205825     -0.962261805      0.000000984      0.000006629   10.85      0.429039763
 26  -3516.413205860     -0.962261840     -0.000000035      0.000005439   10.79      0.429047237
 27  -3516.413205969     -0.962261950     -0.000000109      0.000003831   11.18      0.429058812
 28  -3516.413206182     -0.962262163     -0.000000213      0.000002317   10.89      0.429076947
 29  -3516.413206354     -0.962262335     -0.000000172      0.000001574   10.96      0.429089385
 30  -3516.413206702     -0.962262683     -0.000000348      0.000001120   10.98      0.429107189
 31  -3516.413206990     -0.962262970     -0.000000287      0.000000771   10.99      0.429120326
               --- The Coupled-Cluster iterations have converged ---

----------------------
COUPLED CLUSTER ENERGY
----------------------

E(0)                                       ...  -3515.450944020
E(CORR)                                    ...     -0.962262970
E(TOT)                                     ...  -3516.413206990
Singles norm <S|S>**1/2                    ...      0.429120326 ( 0.400196801, 0.028923525)  
T1 diagnostic                              ...      0.078346294                              

------------------
LARGEST AMPLITUDES
------------------
  30a-> 35a  -1a-> -1a       0.442795
  30a-> 33a  -1a-> -1a       0.357813
  30a-> 42a  -1a-> -1a       0.228501
  30a-> 44a  -1a-> -1a       0.185928
  25a-> 35a  -1a-> -1a       0.131209
  30a-> 40a  -1a-> -1a       0.102152
  27a-> 35a  -1a-> -1a       0.082153
  25a-> 44a  -1a-> -1a       0.081645
  25a-> 42a  -1a-> -1a       0.076101
  25a-> 33a  -1a-> -1a       0.072131
  30a-> 58a  -1a-> -1a       0.070501
  30a-> 45a  -1a-> -1a       0.069680
  27a-> 44a  -1a-> -1a       0.058101
  30a-> 54a  -1a-> -1a       0.053368
  27a-> 42a  -1a-> -1a       0.046030
  27a-> 33a  -1a-> -1a       0.038703

----------------------
UHF TRIPLES CORRECTION (Algorithm 1)
----------------------

Multiplier for the singles contribution    ...      1.000000000

SPIN-CASE Alpha-Alpha-Alpha:
10% done
20% done
30% done
40% done
50% done
60% done
70% done
80% done
90% done


SPIN-CASE Beta-Beta-Beta:
10% done
20% done
30% done
40% done
50% done
60% done
70% done
80% done
90% done


SPIN-CASE Alpha-Alpha-Beta:
10% done
20% done
30% done
40% done
50% done
60% done
70% done
80% done
90% done


SPIN-CASE Beta-Beta-Alpha:
10% done
20% done
30% done
40% done
50% done
60% done
70% done
80% done
90% done


Triples Correction (T)                     ...     -0.026185961
    alpha-alpha-alpha ... -0.002061738 (  7.9%)
    alpha-alpha-beta  ... -0.013828349 ( 52.8%)
    alpha-beta -beta  ... -0.009565767 ( 36.5%)
    beta -beta -beta  ... -0.000730107 (  2.8%)
Scaling of triples based on CCSD energies (Peterson et al. Molecular Physics 113, 1551 (2015))
E(T*) = f*E(T) where f = E(F12-CCSD)/E(CCSD) 
f = CCSD (with F12)/ CCSD (without F12)    ...      1.000000000
Scaled triples correction (T)              ...     -0.026185961

Final correlation energy                   ...     -0.988448931
E(CCSD)                                    ...  -3516.413206990
E(CCSD(T))                                 ...  -3516.439392951



        !!!!!!!!!!!!!!!!!!!!!!!!!!!!!!!!!!!!!!!!!!!!!!!!!!!!!!!!!!!!!!!!!!!!!!!!!! 
        !  Warning: Densities are linearized densities                           !
        !!!!!!!!!!!!!!!!!!!!!!!!!!!!!!!!!!!!!!!!!!!!!!!!!!!!!!!!!!!!!!!!!!!!!!!!!! 

NORM  =      1.712504519 sqrt=     1.308626959
W(HF) =      0.583940065
------------------------------------------------------------------------------
                           ORCA POPULATION ANALYSIS
------------------------------------------------------------------------------
Input electron density              ... 16_VBr.mdcip
Input spin density                  ... 16_VBr.mdcir
BaseName (.gbw .S,...)              ... 16_VBr

                    ********************************
                    * MULLIKEN POPULATION ANALYSIS *
                    ********************************

------------------------------------------
MULLIKEN ATOMIC CHARGES AND SPIN DENSITIES
------------------------------------------
   0 V :    0.424189    4.063299
   1 Br:   -0.424189   -0.063299
Sum of atomic charges       :   -0.0000000
Sum of atomic spin densities:    4.0000000

---------------------------------------------------
MULLIKEN REDUCED ORBITAL CHARGES AND SPIN DENSITIES
---------------------------------------------------
CHARGE
  0 V s       :     6.618596  s :     6.618596
      pz      :     4.016048  p :    12.088225
      px      :     4.026564
      py      :     4.045614
      dz2     :     0.635156  d :     3.814266
      dxz     :     0.111050
      dyz     :     1.019034
      dx2y2   :     1.051324
      dxy     :     0.997702
      f0      :     0.008926  f :     0.048375
      f+1     :     0.008940
      f-1     :     0.010812
      f+2     :     0.004514
      f-2     :     0.004414
      f+3     :     0.005427
      f-3     :     0.005342
      g0      :     0.001324  g :     0.006349
      g+1     :     0.001022
      g-1     :     0.001125
      g+2     :     0.000496
      g-2     :     0.000489
      g+3     :     0.000450
      g-3     :     0.000448
      g+4     :     0.000492
      g-4     :     0.000501
  1 Brs       :     7.952399  s :     7.952399
      pz      :     5.642674  p :    17.335247
      px      :     5.821410
      py      :     5.871163
      dz2     :     2.021305  d :    10.094171
      dxz     :     2.020320
      dyz     :     2.021783
      dx2y2   :     2.015458
      dxy     :     2.015305
      f0      :     0.006435  f :     0.038345
      f+1     :     0.005833
      f-1     :     0.006569
      f+2     :     0.005134
      f-2     :     0.005092
      f+3     :     0.004641
      f-3     :     0.004641
      g0      :     0.000610  g :     0.004027
      g+1     :     0.000481
      g-1     :     0.000568
      g+2     :     0.000441
      g-2     :     0.000438
      g+3     :     0.000382
      g-3     :     0.000382
      g+4     :     0.000363
      g-4     :     0.000363

SPIN
  0 V s       :     0.517150  s :     0.517150
      pz      :    -0.020772  p :     0.040309
      px      :     0.019736
      py      :     0.041345
      dz2     :     0.504996  d :     3.483190
      dxz     :     0.020558
      dyz     :     0.940542
      dx2y2   :     1.034981
      dxy     :     0.982112
      f0      :     0.002016  f :     0.020560
      f+1     :     0.001082
      f-1     :     0.003540
      f+2     :     0.002792
      f-2     :     0.002703
      f+3     :     0.004224
      f-3     :     0.004203
      g0      :     0.000244  g :     0.002090
      g+1     :     0.000059
      g-1     :     0.000199
      g+2     :     0.000210
      g-2     :     0.000207
      g+3     :     0.000253
      g-3     :     0.000252
      g+4     :     0.000330
      g-4     :     0.000337
  1 Brs       :    -0.001802  s :    -0.001802
      pz      :    -0.055722  p :    -0.070444
      px      :    -0.026270
      py      :     0.011548
      dz2     :     0.002161  d :     0.006332
      dxz     :     0.000548
      dyz     :     0.002646
      dx2y2   :     0.000558
      dxy     :     0.000419
      f0      :     0.000956  f :     0.002321
      f+1     :     0.000100
      f-1     :     0.000860
      f+2     :     0.000227
      f-2     :     0.000188
      f+3     :    -0.000005
      f-3     :    -0.000005
      g0      :     0.000116  g :     0.000293
      g+1     :     0.000009
      g-1     :     0.000106
      g+2     :     0.000031
      g-2     :     0.000028
      g+3     :     0.000001
      g-3     :     0.000001
      g+4     :     0.000000
      g-4     :     0.000000


                     *******************************
                     * LOEWDIN POPULATION ANALYSIS *
                     *******************************

-----------------------------------------
LOEWDIN ATOMIC CHARGES AND SPIN DENSITIES
-----------------------------------------
   0 V :   -0.244023    4.004940
   1 Br:    0.244023   -0.004940

--------------------------------------------------
LOEWDIN REDUCED ORBITAL CHARGES AND SPIN DENSITIES
--------------------------------------------------
CHARGE
  0 V s       :     6.636307  s :     6.636307
      pz      :     4.174121  p :    12.318933
      px      :     4.060062
      py      :     4.084750
      dz2     :     0.814252  d :     4.136393
      dxz     :     0.190778
      dyz     :     1.083885
      dx2y2   :     1.050499
      dxy     :     0.996978
      f0      :     0.046143  f :     0.131149
      f+1     :     0.030697
      f-1     :     0.034311
      f+2     :     0.004668
      f-2     :     0.004561
      f+3     :     0.005427
      f-3     :     0.005342
      g0      :     0.007945  g :     0.021241
      g+1     :     0.005023
      g-1     :     0.005307
      g+2     :     0.000539
      g-2     :     0.000534
      g+3     :     0.000451
      g-3     :     0.000449
      g+4     :     0.000492
      g-4     :     0.000501
  1 Brs       :     7.574277  s :     7.574277
      pz      :     5.598177  p :    17.019090
      px      :     5.687290
      py      :     5.733624
      dz2     :     2.032985  d :    10.103108
      dxz     :     2.015731
      dyz     :     2.023519
      dx2y2   :     2.015535
      dxy     :     2.015339
      f0      :     0.017643  f :     0.053859
      f+1     :     0.005561
      f-1     :     0.010217
      f+2     :     0.005624
      f-2     :     0.005533
      f+3     :     0.004640
      f-3     :     0.004640
      g0      :     0.001623  g :     0.005643
      g+1     :     0.000478
      g-1     :     0.001056
      g+2     :     0.000502
      g-2     :     0.000494
      g+3     :     0.000382
      g-3     :     0.000382
      g+4     :     0.000363
      g-4     :     0.000363

SPIN
  0 V s       :     0.473144  s :     0.473144
      pz      :    -0.024431  p :     0.040088
      px      :     0.018917
      py      :     0.045603
      dz2     :     0.512933  d :     3.470732
      dxz     :     0.019090
      dyz     :     0.923425
      dx2y2   :     1.034027
      dxy     :     0.981258
      f0      :     0.000615  f :     0.019248
      f+1     :     0.000439
      f-1     :     0.004198
      f+2     :     0.002832
      f-2     :     0.002737
      f+3     :     0.004224
      f-3     :     0.004202
      g0      :     0.000005  g :     0.001728
      g+1     :    -0.000054
      g-1     :     0.000191
      g+2     :     0.000207
      g-2     :     0.000207
      g+3     :     0.000253
      g-3     :     0.000252
      g+4     :     0.000330
      g-4     :     0.000337
  1 Brs       :     0.004116  s :     0.004116
      pz      :    -0.019249  p :    -0.028355
      px      :    -0.022850
      py      :     0.013744
      dz2     :     0.000961  d :     0.011157
      dxz     :     0.000247
      dyz     :     0.008387
      dx2y2   :     0.000872
      dxy     :     0.000690
      f0      :     0.000999  f :     0.007132
      f+1     :     0.000035
      f-1     :     0.004663
      f+2     :     0.000766
      f-2     :     0.000679
      f+3     :    -0.000005
      f-3     :    -0.000005
      g0      :     0.000252  g :     0.001010
      g+1     :    -0.000001
      g-1     :     0.000574
      g+2     :     0.000094
      g-2     :     0.000087
      g+3     :     0.000001
      g-3     :     0.000001
      g+4     :     0.000000
      g-4     :     0.000000


                      *****************************
                      * MAYER POPULATION ANALYSIS *
                      *****************************

  NA   - Mulliken gross atomic population
  ZA   - Total nuclear charge
  QA   - Mulliken gross atomic charge
  VA   - Mayer's total valence
  BVA  - Mayer's bonded valence
  FA   - Mayer's free valence

  ATOM       NA         ZA         QA         VA         BVA        FA
  0 V     22.5758    23.0000     0.4242     4.9568     0.9932     3.9636
  1 Br    35.4242    35.0000    -0.4242     1.7545     0.9932     0.7613

  Mayer bond orders larger than 0.100000
B(  0-V ,  1-Br) :   0.9932 



------------------------------------------------------------------------------- 
                                     TIMINGS                                   
------------------------------------------------------------------------------- 


Total execution time                   ...      430.824 sec

Fock Matrix Formation                  ...        1.896 sec (  0.4%)
Initial Guess                          ...        0.226 sec (  0.1%)
DIIS Solver                            ...       26.438 sec (  6.1%)
State Vector Update                    ...        0.997 sec (  0.2%)
Sigma-vector construction              ...      320.374 sec ( 74.4%)
  <0|H|D>                              ...        0.052 sec (  0.0% of sigma)
  <D|H|D>(0-ext Fock)                  ...        0.668 sec (  0.2% of sigma)
  <D|H|D>(0-ext)                       ...        4.747 sec (  1.5% of sigma)
  <D|H|D>(2-ext Fock)                  ...        0.158 sec (  0.0% of sigma)
  <D|H|D>(2-ext)                       ...       11.728 sec (  3.7% of sigma)
  <D|H|D>(4-ext)                       ...      144.750 sec ( 45.2% of sigma)
  <S|H|0>                              ...       50.235 sec ( 15.7% of sigma)
  <S|H|S>                              ...        0.012 sec (  0.0% of sigma)
  <S|H|D>(1-ext)                       ...        0.139 sec (  0.0% of sigma)
  <D|H|S>(1-ext)                       ...        1.607 sec (  0.5% of sigma)
  Fock-dressing                        ...       43.858 sec ( 13.7% of sigma)
  (ik|jl)-dressing                     ...        5.676 sec (  1.8% of sigma)
  (ij|ab),(ia|jb)-dressing             ...       47.062 sec ( 14.7% of sigma)
  Pair energies                        ...        0.080 sec (  0.0% of sigma)
Total Time for computing (T)           ...       62.196 sec ( 14.4% of ALL)
  I/O of integral and amplitudes       ...       10.365 sec ( 16.7% of (T))
  External N**7 contributions          ...       21.925 sec ( 35.3% of (T))
  Internal N**7 contributions          ...        6.826 sec ( 11.0% of (T))
  N**6 triples energy contributions    ...       22.769 sec ( 36.6% of (T))


-------------------
EXTRAPOLATED ENERGY
-------------------


-----------------------------------------------------------------
                      EP1 - MDCI extrapolation:
-----------------------------------------------------------------
NOTE: We use as reference SCF energy, for the extrapolation, the one from the MDCI module and not the one 
from the SCF calculation. In case the first step is a DFT calculation these two might be different.

NOTE: For the SCF part we extrapolate based on the scheme proposed in J. Chem. Phys. 2008, 129, 184116
using the exponents from J. Chem. Theory Comput., 7, 33-43 (2011)

NOTE: For the correlation part we extrapolate based on the scheme proposed in J. Chem. Phys. 1997, 106, 9639
using the exponents from J. Chem. Theory Comput., 7, 33-43 (2011)


Alpha(3/4)     :  7.880 (SCF Extrapolation)
Beta(3/4)      :  2.970 (correlation extrapolation)

SCF energy with basis def2-TZVPP:                     -3515.383580300
SCF energy with basis def2-QZVPP:                     -3515.450944020
Extrapolated CBS SCF energy (3/4) :                   -3515.460222610 (-0.009278590) 

MDCI energy with basis def2-TZVPP:                       -0.662516591
MDCI energy with basis def2-QZVPP:                       -0.988448931
Extrapolated CBS correlation energy (3/4) :              -1.229880115 (-0.241431184)

Estimated CBS total energy (3/4) :                    -3516.690102725



-------------------------   --------------------
FINAL SINGLE POINT ENERGY     -3516.690102724994
-------------------------   --------------------


                            ***************************************
                            *     ORCA property calculations      *
                            ***************************************

                                    ---------------------
                                    Active property flags
                                    ---------------------
   (+) Dipole Moment


------------------------------------------------------------------------------
                       ORCA ELECTRIC PROPERTIES CALCULATION
------------------------------------------------------------------------------

Dipole Moment Calculation                       ... on
Quadrupole Moment Calculation                   ... off
Polarizability Calculation                      ... off
GBWName                                         ... 16_VBr.gbw
Electron density file                           ... 16_VBr.scfp
The origin for moment calculation is the CENTER OF MASS  = ( 0.000000,  0.000000  2.383474)

-------------
DIPOLE MOMENT
-------------
                                X             Y             Z
Electronic contribution:      0.00000      -0.00000       0.71202
Nuclear contribution   :      0.00000       0.00000      -1.86860
                        -----------------------------------------
Total Dipole Moment    :      0.00000      -0.00000      -1.15658
                        -----------------------------------------
Magnitude (a.u.)       :      1.15658
Magnitude (Debye)      :      2.93980



--------------------
Rotational spectrum 
--------------------
 
Rotational constants in cm-1:     0.000000     0.097224     0.097224 
Rotational constants in MHz :     0.000000  2914.715129  2914.715129 

 Dipole components along the rotational axes: 
x,y,z [a.u.] :    -1.156583    -0.000000     0.000000 
x,y,z [Debye]:    -2.939802    -0.000000     0.000000 

 

                           *** MDCI DENSITY ***

------------------------------------------------------------------------------
                       ORCA ELECTRIC PROPERTIES CALCULATION
------------------------------------------------------------------------------

Dipole Moment Calculation                       ... on
Quadrupole Moment Calculation                   ... off
Polarizability Calculation                      ... off
GBWName                                         ... 16_VBr.gbw
Electron density file                           ... 16_VBr.mdcip
The origin for moment calculation is the CENTER OF MASS  = ( 0.000000,  0.000000  2.383474)

-------------
DIPOLE MOMENT
-------------
                                X             Y             Z
Electronic contribution:      0.00000      -0.00000      -0.42545
Nuclear contribution   :      0.00000       0.00000      -1.86860
                        -----------------------------------------
Total Dipole Moment    :      0.00000      -0.00000      -2.29405
                        -----------------------------------------
Magnitude (a.u.)       :      2.29405
Magnitude (Debye)      :      5.83101



--------------------
Rotational spectrum 
--------------------
 
Rotational constants in cm-1:     0.000000     0.097224     0.097224 
Rotational constants in MHz :     0.000000  2914.715129  2914.715129 

 Dipole components along the rotational axes: 
x,y,z [a.u.] :    -2.294051    -0.000000     0.000000 
x,y,z [Debye]:    -5.831015    -0.000000     0.000000 

 

Timings for individual modules:

Sum of individual times         ...      555.562 sec (=   9.259 min)
GTO integral calculation        ...        1.737 sec (=   0.029 min)   0.3 %
SCF iterations                  ...       37.540 sec (=   0.626 min)   6.8 %
MDCI module                     ...      516.286 sec (=   8.605 min)  92.9 %
                             ****ORCA TERMINATED NORMALLY****
TOTAL RUN TIME: 0 days 0 hours 9 minutes 16 seconds 584 msec
