
                                 *****************
                                 * O   R   C   A *
                                 *****************

           --- An Ab Initio, DFT and Semiempirical electronic structure package ---

                  #######################################################
                  #                        -***-                        #
                  #          Department of theory and spectroscopy      #
                  #               Directorship: Frank Neese             #
                  #        Max Planck Institute fuer Kohlenforschung    #
                  #                Kaiser Wilhelm Platz 1               #
                  #                 D-45470 Muelheim/Ruhr               #
                  #                      Germany                        #
                  #                                                     #
                  #                  All rights reserved                #
                  #                        -***-                        #
                  #######################################################


                         Program Version 4.2.0 -  RELEASE  -


 With contributions from (in alphabetic order):
   Daniel Aravena         : Magnetic Suceptibility
   Michael Atanasov       : Ab Initio Ligand Field Theory (pilot matlab implementation)
   Alexander A. Auer      : GIAO ZORA, VPT2
   Ute Becker             : Parallelization
   Giovanni Bistoni       : ED, misc. LED, open-shell LED, HFLED
   Martin Brehm           : Molecular dynamics
   Dmytro Bykov           : SCF Hessian
   Vijay G. Chilkuri      : MRCI spin determinant printing, contributions to CSF-ICE
   Dipayan Datta          : RHF DLPNO-CCSD density
   Achintya Kumar Dutta   : EOM-CC, STEOM-CC
   Dmitry Ganyushin       : Spin-Orbit,Spin-Spin,Magnetic field MRCI
   Miquel Garcia          : C-PCM Hessian, Gaussian charge scheme
   Yang Guo               : DLPNO-NEVPT2, CIM, IAO-localization
   Andreas Hansen         : Spin unrestricted coupled pair/coupled cluster methods
   Benjamin Helmich-Paris : CASSCF linear response (MC-RPA)
   Lee Huntington         : MR-EOM, pCC
   Robert Izsak           : Overlap fitted RIJCOSX, COSX-SCS-MP3, EOM
   Christian Kollmar      : KDIIS, OOCD, Brueckner-CCSD(T), CCSD density
   Simone Kossmann        : Meta GGA functionals, TD-DFT gradient, OOMP2, MP2 Hessian
   Martin Krupicka        : AUTO-CI
   Lucas Lang             : DCDCAS
   Dagmar Lenk            : GEPOL surface, SMD
   Dimitrios Liakos       : Extrapolation schemes; Compound Job, initial MDCI parallelization
   Dimitrios Manganas     : Further ROCIS development; embedding schemes
   Dimitrios Pantazis     : SARC Basis sets
   Taras Petrenko         : DFT Hessian,TD-DFT gradient, ASA, ECA, R-Raman, ABS, FL, XAS/XES, NRVS
   Peter Pinski           : DLPNO-MP2, DLPNO-MP2 Gradient
   Christoph Reimann      : Effective Core Potentials
   Marius Retegan         : Local ZFS, SOC
   Christoph Riplinger    : Optimizer, TS searches, QM/MM, DLPNO-CCSD(T), (RO)-DLPNO pert. Triples
   Tobias Risthaus        : Range-separated hybrids, TD-DFT gradient, RPA, STAB
   Michael Roemelt        : Original ROCIS implementation
   Masaaki Saitow         : Open-shell DLPNO-CCSD energy and density
   Barbara Sandhoefer     : DKH picture change effects
   Avijit Sen             : IP-ROCIS
   Kantharuban Sivalingam : CASSCF convergence, NEVPT2, FIC-MRCI
   Bernardo de Souza      : ESD, SOC TD-DFT
   Georgi Stoychev        : AutoAux, RI-MP2 NMR
   Willem Van den Heuvel  : Paramagnetic NMR
   Boris Wezisla          : Elementary symmetry handling
   Frank Wennmohs         : Technical directorship


 We gratefully acknowledge several colleagues who have allowed us to
 interface, adapt or use parts of their codes:
   Stefan Grimme, W. Hujo, H. Kruse,             : VdW corrections, initial TS optimization,
                  C. Bannwarth                     DFT functionals, gCP, sTDA/sTD-DF
   Ed Valeev, F. Pavosevic, A. Kumar             : LibInt (2-el integral package), F12 methods
   Garnet Chan, S. Sharma, J. Yang, R. Olivares  : DMRG
   Ulf Ekstrom                                   : XCFun DFT Library
   Mihaly Kallay                                 : mrcc  (arbitrary order and MRCC methods)
   Andreas Klamt, Michael Diedenhofen            : otool_cosmo (COSMO solvation model)
   Jiri Pittner, Ondrej Demel                    : Mk-CCSD
   Frank Weinhold                                : gennbo (NPA and NBO analysis)
   Christopher J. Cramer and Donald G. Truhlar   : smd solvation model
   Lars Goerigk                                  : TD-DFT with DH, B97 family of functionals
   V. Asgeirsson, H. Jonsson                     : NEB implementation
   FAccTs GmbH                                   : IRC, NEB, NEB-TS, Multilevel, MM, QM/MM, CI optimization
   S Lehtola, MJT Oliveira, MAL Marques          : LibXC Library


 Your calculation uses the libint2 library for the computation of 2-el integrals
 For citations please refer to: http://libint.valeyev.net

 Your ORCA version has been built with support for libXC version: 4.2.3
 For citations please refer to: https://tddft.org/programs/libxc/

 This ORCA versions uses:
   CBLAS   interface :  Fast vector & matrix operations
   LAPACKE interface :  Fast linear algebra routines
   SCALAPACK package :  Parallel linear algebra routines


----- Orbital basis set information -----
Your calculation utilizes the basis: def2-TZVPP
   F. Weigend and R. Ahlrichs, Phys. Chem. Chem. Phys. 7, 3297 (2005).

================================================================================
                                        WARNINGS
                       Please study these warnings very carefully!
================================================================================


WARNING: your system is open-shell and RHF/RKS was chosen
  ===> : WILL SWITCH to UHF/UKS


WARNING: MDCI localization with Augmented Hessian Foster-Boys
  ===> : Switching off randomization!

WARNING: Post HF methods need fully converged wavefunctions
  ===> : Setting SCFConvForced true
         You can overwrite this default with %scf ConvForced false 


INFO   : the flag for use of LIBINT has been found!

================================================================================
                                       INPUT FILE
================================================================================
NAME = 17_VO.in
|  1> #
|  2> # 17_VO ccsd(t)/cbs
|  3> #
|  4> ! ccsd(t) extrapolate(3/4,def2) verytightscf
|  5> 
|  6> *xyz 0 4
|  7>   V   0.00000000000000      0.00000000000000      0.20415600493149
|  8>   O   0.00000000000000      0.00000000000000      1.79584399506851
|  9> *
| 10> 
| 11> %maxcore 5000
| 12> %pal
| 13> nprocs 24
| 14> end
| 15> 
| 16> 
| 17>                          ****END OF INPUT****
================================================================================

                   *****************************************
                   * Extrapolated Single Point Calculation *
                   *****************************************

----- Orbital basis set information -----
Your calculation utilizes the basis: def2-TZVPP
   F. Weigend and R. Ahlrichs, Phys. Chem. Chem. Phys. 7, 3297 (2005).

----- AuxJ basis set information -----
Your calculation utilizes the auxiliary basis: def2/J
   F. Weigend, Phys. Chem. Chem. Phys. 8, 1057 (2006).

----- AuxC basis set information -----
Your calculation utilizes the auxiliary basis: def2-TZVPP/C
  H-La, Hf-Rn : A. Hellweg, C. Hattig, S. Hofener and W. Klopper, Theor. Chem. Acc. 117, 587 (2007).
        Ce-Lu : J. Chmela and M. E. Harding, Mol. Phys. (2018).

----- AuxJK basis set information -----
Your calculation utilizes the auxiliary basis: def2/JK
   H-Ba, Hf-Rn: F. Weigend, J. Comput. Chem. 29, 167 (2008).

All done

                     -----------------------------------------
                     Extrapolated Energy 1 Basis=  def2-TZVPP
                     -----------------------------------------

---------------------------------
CARTESIAN COORDINATES (ANGSTROEM)
---------------------------------
  V      0.000000    0.000000    0.204156
  O      0.000000    0.000000    1.795844

----------------------------
CARTESIAN COORDINATES (A.U.)
----------------------------
  NO LB      ZA    FRAG     MASS         X           Y           Z
   0 V    23.0000    0    50.940    0.000000    0.000000    0.385799
   1 O     8.0000    0    15.999    0.000000    0.000000    3.393653

--------------------------------
INTERNAL COORDINATES (ANGSTROEM)
--------------------------------
 V      0   0   0     0.000000000000     0.00000000     0.00000000
 O      1   0   0     1.591687990137     0.00000000     0.00000000

---------------------------
INTERNAL COORDINATES (A.U.)
---------------------------
 V      0   0   0     0.000000000000     0.00000000     0.00000000
 O      1   0   0     3.007854392011     0.00000000     0.00000000

---------------------
BASIS SET INFORMATION
---------------------
There are 2 groups of distinct atoms

 Group   1 Type V   : 17s12p7d2f1g contracted to 6s5p4d2f1g pattern {842111/63111/4111/11/1}
 Group   2 Type O   : 11s6p2d1f contracted to 5s3p2d1f pattern {62111/411/11/1}

Atom   0V    basis set group =>   1
Atom   1O    basis set group =>   2
---------------------------------
AUXILIARY/J BASIS SET INFORMATION
---------------------------------
There are 2 groups of distinct atoms

 Group   1 Type V   : 19s5p5d3f3g contracted to 8s5p5d2f3g pattern {121111111/11111/11111/21/111}
 Group   2 Type O   : 12s5p4d2f1g contracted to 6s4p3d1f1g pattern {711111/2111/211/2/1}

Atom   0V    basis set group =>   1
Atom   1O    basis set group =>   2
---------------------------------
AUXILIARY/C BASIS SET INFORMATION
---------------------------------
There are 2 groups of distinct atoms

 Group   1 Type V   : 9s9p8d7f5g3h1i contracted to 9s9p8d7f5g3h1i pattern {111111111/111111111/11111111/1111111/11111/111/1}
 Group   2 Type O   : 8s6p5d3f1g contracted to 8s6p4d3f1g pattern {11111111/111111/2111/111/1}

Atom   0V    basis set group =>   1
Atom   1O    basis set group =>   2
----------------------------------
AUXILIARY/JK BASIS SET INFORMATION
----------------------------------
There are 2 groups of distinct atoms

 Group   1 Type V   : 19s14p12d10f7g3h1i contracted to 16s13p11d9f5g3h1i pattern {4111111111111111/2111111111111/21111111111/211111111/31111/111/1}
 Group   2 Type O   : 14s10p6d2f1g contracted to 10s8p4d2f1g pattern {5111111111/31111111/3111/11/1}

Atom   0V    basis set group =>   1
Atom   1O    basis set group =>   2


           ************************************************************
           *        Program running with 24 parallel MPI-processes    *
           *              working on a common directory               *
           ************************************************************
------------------------------------------------------------------------------
                           ORCA GTO INTEGRAL CALCULATION
------------------------------------------------------------------------------

                         BASIS SET STATISTICS AND STARTUP INFO

 # of primitive gaussian shells          ...   59
 # of primitive gaussian functions       ...  157
 # of contracted shells                  ...   29
 # of contracted basis functions         ...   95
 Highest angular momentum                ...    4
 Maximum contraction depth               ...    8
 Integral package used                   ... LIBINT
 Integral threshhold            Thresh   ...  1.000e-12
 Primitive cut-off              TCut     ...  1.000e-14


------------------------------ INTEGRAL EVALUATION ----------------------------


 * One electron integrals 
 Pre-screening matrix                    ... done
 Shell pair data                         ... done (   0.000 sec)



           ************************************************************
           *        Program running with 24 parallel MPI-processes    *
           *              working on a common directory               *
           ************************************************************
-------------------------------------------------------------------------------
                                 ORCA SCF
-------------------------------------------------------------------------------

------------
SCF SETTINGS
------------
Hamiltonian:
 Ab initio Hamiltonian  Method          .... Hartree-Fock(GTOs)


General Settings:
 Integral files         IntName         .... 17_VO
 Hartree-Fock type      HFTyp           .... UHF
 Total Charge           Charge          ....    0
 Multiplicity           Mult            ....    4
 Number of Electrons    NEL             ....   31
 Basis Dimension        Dim             ....   95
 Nuclear Repulsion      ENuc            ....     61.1731739704 Eh

Convergence Acceleration:
 DIIS                   CNVDIIS         .... on
   Start iteration      DIISMaxIt       ....    12
   Startup error        DIISStart       ....  0.200000
   # of expansion vecs  DIISMaxEq       ....     5
   Bias factor          DIISBfac        ....   1.050
   Max. coefficient     DIISMaxC        ....  10.000
 Newton-Raphson         CNVNR           .... off
 SOSCF                  CNVSOSCF        .... off
 Level Shifting         CNVShift        .... on
   Level shift para.    LevelShift      ....    0.2500
   Turn off err/grad.   ShiftErr        ....    0.0010
 Zerner damping         CNVZerner       .... off
 Static damping         CNVDamp         .... on
   Fraction old density DampFac         ....    0.7000
   Max. Damping (<1)    DampMax         ....    0.9800
   Min. Damping (>=0)   DampMin         ....    0.0000
   Turn off err/grad.   DampErr         ....    0.1000
 Fernandez-Rico         CNVRico         .... off

SCF Procedure:
 Maximum # iterations   MaxIter         ....   125
 SCF integral mode      SCFMode         .... Direct
   Integral package                     .... LIBINT
 Reset frequency        DirectResetFreq ....    20
 Integral Threshold     Thresh          ....  1.000e-12 Eh
 Primitive CutOff       TCut            ....  1.000e-14 Eh

Convergence Tolerance:
 Convergence Check Mode ConvCheckMode   .... Total+1el-Energy
 Convergence forced     ConvForced      .... 1
 Energy Change          TolE            ....  1.000e-09 Eh
 1-El. energy change                    ....  1.000e-06 Eh
 DIIS Error             TolErr          ....  1.000e-08


Diagonalization of the overlap matrix:
Smallest eigenvalue                        ... 2.418e-03
Time for diagonalization                   ...    0.017 sec
Threshold for overlap eigenvalues          ... 1.000e-08
Number of eigenvalues below threshold      ... 0
Time for construction of square roots      ...    0.002 sec
Total time needed                          ...    0.018 sec

-------------------
DFT GRID GENERATION
-------------------

General Integration Accuracy     IntAcc      ...  4.340
Radial Grid Type                 RadialGrid  ... Gauss-Chebyshev
Angular Grid (max. acc.)         AngularGrid ... Lebedev-110
Angular grid pruning method      GridPruning ... 3 (G Style)
Weight generation scheme         WeightScheme... Becke
Basis function cutoff            BFCut       ...    1.0000e-12
Integration weight cutoff        WCut        ...    1.0000e-14
Grids for H and He will be reduced by one unit

# of grid points (after initial pruning)     ...   4688 (   0.0 sec)
# of grid points (after weights+screening)   ...   4661 (   0.0 sec)
nearest neighbour list constructed           ...    0.0 sec
Grid point re-assignment to atoms done       ...    0.0 sec
Grid point division into batches done        ...    0.0 sec
Reduced shell lists constructed in    0.0 sec

Total number of grid points                  ...     4661
Total number of batches                      ...       73
Average number of points per batch           ...       63
Average number of grid points per atom       ...     2330
Average number of shells per batch           ...     8.80 (30.34%)
Average number of basis functions per batch  ...    28.00 (29.47%)
Average number of large shells per batch     ...     6.80 (77.27%)
Average number of large basis fcns per batch ...    20.40 (72.86%)
Maximum spatial batch extension              ...  19.25, 28.73, 15.77 au
Average spatial batch extension              ...   1.01,  1.32,  0.86 au

Time for grid setup =    0.018 sec

------------------------------
INITIAL GUESS: MODEL POTENTIAL
------------------------------
Loading Hartree-Fock densities                     ... done
Calculating cut-offs                               ... done
Setting up the integral package                    ... done
Initializing the effective Hamiltonian             ... done
Starting the Coulomb interaction                   ... done (   0.0 sec)
Reading the grid                                   ... done
Mapping shells                                     ... done
Starting the XC term evaluation                    ... done (   0.0 sec)
Transforming the Hamiltonian                       ... done (   0.0 sec)
Diagonalizing the Hamiltonian                      ... done (   0.0 sec)
Back transforming the eigenvectors                 ... done (   0.0 sec)
Now organizing SCF variables                       ... done
                      ------------------
                      INITIAL GUESS DONE (   0.1 sec)
                      ------------------
--------------
SCF ITERATIONS
--------------
ITER       Energy         Delta-E        Max-DP      RMS-DP      [F,P]     Damp
               ***  Starting incremental Fock matrix formation  ***
  0  -1017.4925547362   0.000000000000 0.03426297  0.00103392  0.4420819 0.7000
  1  -1017.5938645396  -0.101309803440 0.02144458  0.00064660  0.2210806 0.7000
                               ***Turning on DIIS***
  2  -1017.6354042475  -0.041539707823 0.01272909  0.00034275  0.1675224 0.7000
  3  -1017.8842596943  -0.248855446862 0.01039238  0.00023644  0.1245609 0.7000
  4  -1018.0657919512  -0.181532256863 0.03286158  0.00073273  0.0877294 0.0000
  5  -1017.7724422938   0.293349657398 0.01226878  0.00028078  0.0112129 0.0000
  6  -1017.7395805346   0.032861759211 0.01061118  0.00023813  0.0072490 0.0000
  7  -1017.7812357908  -0.041655256230 0.01275724  0.00030420  0.0068461 0.0000
  8  -1017.7834839296  -0.002248138810 0.01420938  0.00037011  0.0060087 0.0000
  9  -1017.7891891584  -0.005705228807 0.01220006  0.00036281  0.0052306 0.0000
 10  -1017.7902111400  -0.001021981521 0.01039447  0.00030937  0.0044929 0.0000
 11  -1017.7708351697   0.019375970288 0.00746582  0.00022764  0.0038764 0.0000
 12  -1017.7766646470  -0.005829477285 0.00739374  0.00023190  0.0040301 0.0000
 13  -1017.7604737124   0.016190934566 0.00521589  0.00016576  0.0043666 0.0000
 14  -1017.7762027946  -0.015729082194 0.00860582  0.00024181  0.0042224 0.0000
 15  -1017.7664720185   0.009730776072 0.00664611  0.00017390  0.0044574 0.0000
 16  -1017.7743853274  -0.007913308913 0.01664972  0.00039169  0.0039410 0.0000
 17  -1017.7739852649   0.000400062498 0.00459089  0.00008632  0.0047499 0.0000
 18  -1017.7576776760   0.016307588939 0.02200756  0.00047872  0.0032262 0.0000
 19  -1017.7693943439  -0.011716667920 0.00556042  0.00008772  0.0035586 0.0000
               *** Restarting incremental Fock matrix formation ***
                                   *** Resetting DIIS ***
 20  -1017.7563532557   0.013041088213 0.00281423  0.00003499  0.0015779 0.0000
 21  -1017.7553286151   0.001024640597 0.00294026  0.00003317  0.0008463 0.0000
 22  -1017.7592958938  -0.003967278709 0.00244695  0.00003484  0.0009997 0.0000
 23  -1017.7561873490   0.003108544831 0.00110279  0.00002561  0.0005077 0.0000
 24  -1017.7559222285   0.000265120488 0.00136078  0.00003086  0.0005386 0.0000
 25  -1017.7561670749  -0.000244846441 0.00112860  0.00002518  0.0002176 0.0000
 26  -1017.7559617097   0.000205365189 0.00052344  0.00001112  0.0000773 0.0000
 27  -1017.7564966697  -0.000534960006 0.00023247  0.00000544  0.0000431 0.0000
 28  -1017.7564515320   0.000045137782 0.00006006  0.00000197  0.0000194 0.0000
 29  -1017.7564679033  -0.000016371298 0.00004841  0.00000154  0.0000176 0.0000
 30  -1017.7564550546   0.000012848639 0.00002959  0.00000098  0.0000080 0.0000
 31  -1017.7564358953   0.000019159311 0.00001326  0.00000040  0.0000036 0.0000
 32  -1017.7564271668   0.000008728457 0.00000835  0.00000025  0.0000018 0.0000
 33  -1017.7564234760   0.000003690873 0.00000367  0.00000006  0.0000008 0.0000
 34  -1017.7564259260  -0.000002450052 0.00000208  0.00000007  0.0000005 0.0000
 35  -1017.7564243831   0.000001542902 0.00000065  0.00000002  0.0000003 0.0000
 36  -1017.7564265925  -0.000002209395 0.00000031  0.00000001  0.0000002 0.0000
 37  -1017.7564266112  -0.000000018669 0.00000029  0.00000001  0.0000002 0.0000
 38  -1017.7564265484   0.000000062756 0.00000030  0.00000001  0.0000002 0.0000
 39  -1017.7564266174  -0.000000068925 0.00000042  0.00000001  0.0000001 0.0000
               *** Restarting incremental Fock matrix formation ***
                                   *** Resetting DIIS ***
 40  -1017.7564266717  -0.000000054378 0.00000006  0.00000000  0.0000001 0.0000
 41  -1017.7564267425  -0.000000070745 0.00000008  0.00000000  0.0000001 0.0000
 42  -1017.7564267765  -0.000000034050 0.00000013  0.00000000  0.0000000 0.0000
 43  -1017.7564266552   0.000000121356 0.00000007  0.00000000  0.0000000 0.0000
                            ***DIIS convergence achieved***

               *****************************************************
               *                     SUCCESS                       *
               *           SCF CONVERGED AFTER  44 CYCLES          *
               *****************************************************


----------------
TOTAL SCF ENERGY
----------------

Total Energy       :        -1017.75642671 Eh          -27694.56034 eV

Components:
Nuclear Repulsion  :           61.17317397 Eh            1664.60669 eV
Electronic Energy  :        -1078.92960068 Eh          -29359.16703 eV
One Electron Energy:        -1520.68313566 Eh          -41379.89183 eV
Two Electron Energy:          441.75353497 Eh           12020.72481 eV

Virial components:
Potential Energy   :        -2035.53637983 Eh          -55389.76086 eV
Kinetic Energy     :         1017.77995311 Eh           27695.20052 eV
Virial Ratio       :            1.99997688


---------------
SCF CONVERGENCE
---------------

  Last Energy change         ...   -5.8873e-08  Tolerance :   1.0000e-09
  Last MAX-Density change    ...    3.9466e-08  Tolerance :   1.0000e-08
  Last RMS-Density change    ...    8.5290e-10  Tolerance :   1.0000e-09
  Last DIIS Error            ...    1.2770e-08  Tolerance :   1.0000e-08

             **** THE GBW FILE WAS UPDATED (17_VO.gbw) ****
             **** DENSITY FILE WAS UPDATED (17_VO.scfp) ****
             **** ENERGY FILE WAS UPDATED (17_VO.en.tmp) ****
----------------------
UHF SPIN CONTAMINATION
----------------------

Expectation value of <S**2>     :     4.258243
Ideal value S*(S+1) for S=1.5   :     3.750000
Deviation                       :     0.508243

             **** THE GBW FILE WAS UPDATED (17_VO.gbw) ****
             **** DENSITY FILE WAS UPDATED (17_VO.scfp) ****
----------------
ORBITAL ENERGIES
----------------
                 SPIN UP ORBITALS
  NO   OCC          E(Eh)            E(eV) 
   0   1.0000    -201.500784     -5483.1151 
   1   1.0000     -23.901834      -650.4020 
   2   1.0000     -20.532242      -558.7107 
   3   1.0000     -20.049341      -545.5703 
   4   1.0000     -20.049172      -545.5657 
   5   1.0000     -20.049172      -545.5657 
   6   1.0000      -3.272696       -89.0546 
   7   1.0000      -2.149442       -58.4893 
   8   1.0000      -2.149442       -58.4893 
   9   1.0000      -2.115801       -57.5739 
  10   1.0000      -1.144669       -31.1480 
  11   1.0000      -0.476036       -12.9536 
  12   1.0000      -0.473647       -12.8886 
  13   1.0000      -0.473647       -12.8886 
  14   1.0000      -0.469452       -12.7744 
  15   1.0000      -0.469452       -12.7744 
  16   1.0000      -0.260039        -7.0760 
  17   0.0000       0.040774         1.1095 
  18   0.0000       0.040774         1.1095 
  19   0.0000       0.062254         1.6940 
  20   0.0000       0.119471         3.2510 
  21   0.0000       0.185736         5.0541 
  22   0.0000       0.185736         5.0541 
  23   0.0000       0.188132         5.1193 
  24   0.0000       0.188132         5.1193 
  25   0.0000       0.221094         6.0163 
  26   0.0000       0.224648         6.1130 
  27   0.0000       0.224648         6.1130 
  28   0.0000       0.250934         6.8283 
  29   0.0000       0.413516        11.2523 
  30   0.0000       0.413516        11.2523 
  31   0.0000       0.556028        15.1303 
  32   0.0000       0.734316        19.9818 
  33   0.0000       0.743571        20.2336 
  34   0.0000       0.743571        20.2336 
  35   0.0000       0.756354        20.5815 
  36   0.0000       0.756354        20.5815 
  37   0.0000       0.811357        22.0781 
  38   0.0000       0.844888        22.9906 
  39   0.0000       0.844888        22.9906 
  40   0.0000       0.976805        26.5802 
  41   0.0000       1.250872        34.0380 
  42   0.0000       1.250872        34.0380 
  43   0.0000       1.272776        34.6340 
  44   0.0000       1.272776        34.6340 
  45   0.0000       1.413294        38.4577 
  46   0.0000       1.413294        38.4577 
  47   0.0000       1.514659        41.2160 
  48   0.0000       1.874635        51.0114 
  49   0.0000       1.874635        51.0114 
  50   0.0000       1.913055        52.0569 
  51   0.0000       1.913055        52.0569 
  52   0.0000       1.980645        53.8961 
  53   0.0000       2.054139        55.8960 
  54   0.0000       2.299917        62.5839 
  55   0.0000       2.299917        62.5839 
  56   0.0000       2.631001        71.5932 
  57   0.0000       2.745566        74.7106 
  58   0.0000       2.745566        74.7106 
  59   0.0000       2.863050        77.9075 
  60   0.0000       2.863050        77.9075 
  61   0.0000       2.912639        79.2569 
  62   0.0000       3.210151        87.3526 
  63   0.0000       3.210151        87.3526 
  64   0.0000       3.398498        92.4778 
  65   0.0000       4.267020       116.1115 
  66   0.0000       4.381133       119.2167 
  67   0.0000       4.381133       119.2167 
  68   0.0000       4.418967       120.2462 
  69   0.0000       4.418967       120.2462 
  70   0.0000       4.422672       120.3470 
  71   0.0000       4.422672       120.3470 
  72   0.0000       4.518280       122.9486 
  73   0.0000       4.518280       122.9486 
  74   0.0000       4.602336       125.2359 
  75   0.0000       4.942945       134.5044 
  76   0.0000       4.942945       134.5044 
  77   0.0000       5.013600       136.4270 
  78   0.0000       5.013600       136.4270 
  79   0.0000       5.087289       138.4322 
  80   0.0000       5.143200       139.9536 
  81   0.0000       5.143200       139.9536 
  82   0.0000       5.613641       152.7549 
  83   0.0000       5.613641       152.7549 
  84   0.0000       5.802822       157.9028 
  85   0.0000       5.802822       157.9028 
  86   0.0000       6.282762       170.9626 
  87   0.0000       6.282762       170.9626 
  88   0.0000       6.826514       185.7589 
  89   0.0000       6.842527       186.1946 
  90   0.0000       6.842527       186.1946 
  91   0.0000       7.309511       198.9019 
  92   0.0000       7.309511       198.9019 
  93   0.0000       7.605286       206.9504 
  94   0.0000      45.033407      1225.4213 

                 SPIN DOWN ORBITALS
  NO   OCC          E(Eh)            E(eV) 
   0   1.0000    -201.500005     -5483.0939 
   1   1.0000     -23.847385      -648.9203 
   2   1.0000     -20.569866      -559.7345 
   3   1.0000     -20.018227      -544.7236 
   4   1.0000     -19.986088      -543.8491 
   5   1.0000     -19.986088      -543.8491 
   6   1.0000      -3.082056       -83.8670 
   7   1.0000      -1.985359       -54.0244 
   8   1.0000      -1.870503       -50.8990 
   9   1.0000      -1.870503       -50.8990 
  10   1.0000      -1.265442       -34.4344 
  11   1.0000      -0.597983       -16.2719 
  12   1.0000      -0.529847       -14.4179 
  13   1.0000      -0.529847       -14.4179 
  14   0.0000       0.018041         0.4909 
  15   0.0000       0.101665         2.7664 
  16   0.0000       0.101665         2.7664 
  17   0.0000       0.121369         3.3026 
  18   0.0000       0.163273         4.4429 
  19   0.0000       0.163273         4.4429 
  20   0.0000       0.186772         5.0823 
  21   0.0000       0.206756         5.6261 
  22   0.0000       0.206756         5.6261 
  23   0.0000       0.244850         6.6627 
  24   0.0000       0.274120         7.4592 
  25   0.0000       0.274120         7.4592 
  26   0.0000       0.309887         8.4325 
  27   0.0000       0.309887         8.4325 
  28   0.0000       0.332294         9.0422 
  29   0.0000       0.471956        12.8426 
  30   0.0000       0.471956        12.8426 
  31   0.0000       0.607645        16.5349 
  32   0.0000       0.705744        19.2043 
  33   0.0000       0.747952        20.3528 
  34   0.0000       0.747952        20.3528 
  35   0.0000       0.877390        23.8750 
  36   0.0000       0.877390        23.8750 
  37   0.0000       0.880230        23.9523 
  38   0.0000       0.880230        23.9523 
  39   0.0000       0.881390        23.9838 
  40   0.0000       0.964683        26.2504 
  41   0.0000       1.297574        35.3088 
  42   0.0000       1.297574        35.3088 
  43   0.0000       1.374897        37.4128 
  44   0.0000       1.374897        37.4128 
  45   0.0000       1.440183        39.1894 
  46   0.0000       1.440183        39.1894 
  47   0.0000       1.551646        42.2224 
  48   0.0000       1.909508        51.9604 
  49   0.0000       1.909508        51.9604 
  50   0.0000       1.947738        53.0006 
  51   0.0000       1.947738        53.0006 
  52   0.0000       1.987936        54.0945 
  53   0.0000       2.096833        57.0577 
  54   0.0000       2.279652        62.0325 
  55   0.0000       2.279652        62.0325 
  56   0.0000       2.636669        71.7474 
  57   0.0000       2.884357        78.4873 
  58   0.0000       2.884357        78.4873 
  59   0.0000       2.889580        78.6295 
  60   0.0000       2.889580        78.6295 
  61   0.0000       2.944348        80.1198 
  62   0.0000       3.192821        86.8811 
  63   0.0000       3.192821        86.8811 
  64   0.0000       3.347167        91.0811 
  65   0.0000       4.269537       116.1800 
  66   0.0000       4.422105       120.3316 
  67   0.0000       4.422105       120.3316 
  68   0.0000       4.477684       121.8440 
  69   0.0000       4.477684       121.8440 
  70   0.0000       4.515398       122.8702 
  71   0.0000       4.515398       122.8702 
  72   0.0000       4.553985       123.9202 
  73   0.0000       4.553985       123.9202 
  74   0.0000       4.632254       126.0500 
  75   0.0000       5.101785       138.8266 
  76   0.0000       5.101785       138.8266 
  77   0.0000       5.149224       140.1175 
  78   0.0000       5.149224       140.1175 
  79   0.0000       5.175132       140.8225 
  80   0.0000       5.238238       142.5397 
  81   0.0000       5.238238       142.5397 
  82   0.0000       5.600798       152.4054 
  83   0.0000       5.600798       152.4054 
  84   0.0000       5.776698       157.1920 
  85   0.0000       5.776698       157.1920 
  86   0.0000       6.245712       169.9545 
  87   0.0000       6.245712       169.9545 
  88   0.0000       6.787651       184.7014 
  89   0.0000       6.808796       185.2768 
  90   0.0000       6.808796       185.2768 
  91   0.0000       7.246205       197.1793 
  92   0.0000       7.246205       197.1793 
  93   0.0000       7.549117       205.4219 
  94   0.0000      45.011848      1224.8347 

                    ********************************
                    * MULLIKEN POPULATION ANALYSIS *
                    ********************************

--------------------------------------------
MULLIKEN ATOMIC CHARGES AND SPIN POPULATIONS
--------------------------------------------
   0 V :    0.608173    3.816277
   1 O :   -0.608173   -0.816277
Sum of atomic charges         :    0.0000000
Sum of atomic spin populations:    3.0000000

-----------------------------------------------------
MULLIKEN REDUCED ORBITAL CHARGES AND SPIN POPULATIONS
-----------------------------------------------------
CHARGE
  0 V s       :     6.794122  s :     6.794122
      pz      :     4.188206  p :    12.274462
      px      :     4.043128
      py      :     4.043128
      dz2     :     0.872596  d :     3.278863
      dxz     :     0.203547
      dyz     :     0.203547
      dx2y2   :     0.999586
      dxy     :     0.999586
      f0      :     0.007222  f :     0.041693
      f+1     :     0.017205
      f-1     :     0.017205
      f+2     :     0.000031
      f-2     :     0.000031
      f+3     :     0.000000
      f-3     :     0.000000
      g0      :     0.000973  g :     0.002687
      g+1     :     0.000850
      g-1     :     0.000850
      g+2     :     0.000007
      g-2     :     0.000007
      g+3     :     0.000000
      g-3     :     0.000000
      g+4     :     0.000000
      g-4     :     0.000000
  1 O s       :     3.968672  s :     3.968672
      pz      :     1.158444  p :     4.617381
      px      :     1.729469
      py      :     1.729469
      dz2     :     0.008921  d :     0.020565
      dxz     :     0.005482
      dyz     :     0.005482
      dx2y2   :     0.000341
      dxy     :     0.000341
      f0      :     0.000844  f :     0.001554
      f+1     :     0.000320
      f-1     :     0.000320
      f+2     :     0.000035
      f-2     :     0.000035
      f+3     :     0.000000
      f-3     :     0.000000

SPIN
  0 V s       :     0.786494  s :     0.786494
      pz      :     0.178647  p :     0.213063
      px      :     0.017208
      py      :     0.017208
      dz2     :     0.685772  d :     2.817526
      dxz     :     0.066291
      dyz     :     0.066291
      dx2y2   :     0.999586
      dxy     :     0.999586
      f0      :    -0.001433  f :    -0.000559
      f+1     :     0.000406
      f-1     :     0.000406
      f+2     :     0.000031
      f-2     :     0.000031
      f+3     :     0.000000
      f-3     :     0.000000
      g0      :    -0.000108  g :    -0.000247
      g+1     :    -0.000076
      g-1     :    -0.000076
      g+2     :     0.000007
      g-2     :     0.000007
      g+3     :     0.000000
      g-3     :     0.000000
      g+4     :    -0.000000
      g-4     :     0.000000
  1 O s       :     0.012357  s :     0.012357
      pz      :    -0.666408  p :    -0.835986
      px      :    -0.084789
      py      :    -0.084789
      dz2     :     0.004504  d :     0.007326
      dxz     :     0.001070
      dyz     :     0.001070
      dx2y2   :     0.000341
      dxy     :     0.000341
      f0      :     0.000176  f :     0.000026
      f+1     :    -0.000110
      f-1     :    -0.000110
      f+2     :     0.000035
      f-2     :     0.000035
      f+3     :     0.000000
      f-3     :     0.000000


                     *******************************
                     * LOEWDIN POPULATION ANALYSIS *
                     *******************************

-------------------------------------------
LOEWDIN ATOMIC CHARGES AND SPIN POPULATIONS
-------------------------------------------
   0 V :    0.105332    3.710005
   1 O :   -0.105332   -0.710005

----------------------------------------------------
LOEWDIN REDUCED ORBITAL CHARGES AND SPIN POPULATIONS
----------------------------------------------------
CHARGE
  0 V s       :     6.740738  s :     6.740738
      pz      :     4.330859  p :    12.456072
      px      :     4.062607
      py      :     4.062607
      dz2     :     1.006380  d :     3.540233
      dxz     :     0.268017
      dyz     :     0.268017
      dx2y2   :     0.998910
      dxy     :     0.998910
      f0      :     0.054950  f :     0.146702
      f+1     :     0.045828
      f-1     :     0.045828
      f+2     :     0.000048
      f-2     :     0.000048
      f+3     :     0.000000
      f-3     :     0.000000
      g0      :     0.005085  g :     0.010923
      g+1     :     0.002908
      g-1     :     0.002908
      g+2     :     0.000011
      g-2     :     0.000011
      g+3     :     0.000000
      g-3     :     0.000000
      g+4     :     0.000000
      g-4     :     0.000000
  1 O s       :     3.594123  s :     3.594123
      pz      :     1.216977  p :     4.449308
      px      :     1.616166
      py      :     1.616166
      dz2     :     0.046473  d :     0.056595
      dxz     :     0.004158
      dyz     :     0.004158
      dx2y2   :     0.000903
      dxy     :     0.000903
      f0      :     0.004415  f :     0.005305
      f+1     :     0.000318
      f-1     :     0.000318
      f+2     :     0.000127
      f-2     :     0.000127
      f+3     :     0.000000
      f-3     :     0.000000

SPIN
  0 V s       :     0.724822  s :     0.724822
      pz      :     0.202572  p :     0.234959
      px      :     0.016194
      py      :     0.016194
      dz2     :     0.644040  d :     2.767504
      dxz     :     0.062822
      dyz     :     0.062822
      dx2y2   :     0.998910
      dxy     :     0.998910
      f0      :    -0.009124  f :    -0.014510
      f+1     :    -0.002741
      f-1     :    -0.002741
      f+2     :     0.000048
      f-2     :     0.000048
      f+3     :     0.000000
      f-3     :     0.000000
      g0      :    -0.002058  g :    -0.002771
      g+1     :    -0.000368
      g-1     :    -0.000368
      g+2     :     0.000011
      g-2     :     0.000011
      g+3     :     0.000000
      g-3     :     0.000000
      g+4     :    -0.000000
      g-4     :     0.000000
  1 O s       :     0.000367  s :     0.000367
      pz      :    -0.570539  p :    -0.723958
      px      :    -0.076710
      py      :    -0.076710
      dz2     :     0.008851  d :     0.012347
      dxz     :     0.000845
      dyz     :     0.000845
      dx2y2   :     0.000903
      dxy     :     0.000903
      f0      :     0.001069  f :     0.001240
      f+1     :    -0.000042
      f-1     :    -0.000042
      f+2     :     0.000127
      f-2     :     0.000127
      f+3     :     0.000000
      f-3     :     0.000000


                      *****************************
                      * MAYER POPULATION ANALYSIS *
                      *****************************

  NA   - Mulliken gross atomic population
  ZA   - Total nuclear charge
  QA   - Mulliken gross atomic charge
  VA   - Mayer's total valence
  BVA  - Mayer's bonded valence
  FA   - Mayer's free valence

  ATOM       NA         ZA         QA         VA         BVA        FA
  0 V     22.3918    23.0000     0.6082     4.9821     1.5408     3.4413
  1 O      8.6082     8.0000    -0.6082     2.0109     1.5408     0.4702

  Mayer bond orders larger than 0.100000
B(  0-V ,  1-O ) :   1.5408 

-------
TIMINGS
-------

Total SCF time: 0 days 0 hours 0 min 6 sec 

Total time                  ....       6.110 sec
Sum of individual times     ....       5.846 sec  ( 95.7%)

Fock matrix formation       ....       5.533 sec  ( 90.5%)
Diagonalization             ....       0.104 sec  (  1.7%)
Density matrix formation    ....       0.020 sec  (  0.3%)
Population analysis         ....       0.009 sec  (  0.2%)
Initial guess               ....       0.107 sec  (  1.8%)
Orbital Transformation      ....       0.000 sec  (  0.0%)
Orbital Orthonormalization  ....       0.000 sec  (  0.0%)
DIIS solution               ....       0.054 sec  (  0.9%)


           ************************************************************
           *        Program running with 24 parallel MPI-processes    *
           *              working on a common directory               *
           ************************************************************


------------------------------------------------------------------------------- 
                              ORCA-MATRIX DRIVEN CI                            
------------------------------------------------------------------------------- 

--------------------------------
AUTOMATIC CHOICE OF INCORE LEVEL
--------------------------------

Memory available                           ...   2500.00 MB
Memory needed for S+T                      ...      9.19 MB
Memory needed for J+K                      ...     18.46 MB
Memory needed for DIIS                     ...    128.67 MB
Memory needed for 3-ext                    ...     39.83 MB
Memory needed for 4-ext                    ...    143.01 MB
Memory needed for triples                  ...     18.10 MB
 -> Final InCoreLevel    ... 5
 -> check shows that triples correction can be computed


Wavefunction type
-----------------
Correlation treatment                      ...      CCSD     
Single excitations                         ... ON
Orbital optimization                       ... OFF
Calculation of Z vector                    ... OFF
Calculation of Brueckner orbitals          ... OFF
Perturbative triple excitations            ... ON
Calculation of F12 correction              ... OFF
Frozen core treatment                      ... chemical core (12 el)
Reference Wavefunction                     ... UHF
  Alpha-MOs occ    :     6 ...   16 ( 11 MO's/ 11 electrons)
  Beta-MOs occ     :     6 ...   13 (  8 MO's/  8 electrons)
  Alpha-MOs virt   :    17 ...   94 ( 78 MO's              )
  Beta-MOs virt    :    14 ...   94 ( 81 MO's              )
Number of AO's                             ...     95
Number of electrons                        ...     31
Number of correlated electrons             ...     19

Algorithmic settings
--------------------
Integral transformation                    ... AO direct full transformation
K(C) Formation                             ... FULL-MO TRAFO
Maximum number of iterations               ...        50
Convergence tolerance (max. residuum)      ... 1.000e-06
Level shift for amplitude update           ... 2.000e-01
Maximum number of DIIS vectors             ...         7
DIIS turned on at iteration                ...         0
Damping before turning on DIIS             ...     0.500
Damping after turning on DIIS              ...     0.000
Pair specific amplitude update             ... OFF
Natural orbital iterations                 ... OFF
Perturbative natural orbital generation    ... OFF
Printlevel                                 ... 2

Memory handling:
----------------
Maximum memory for working arrays          ...   2500 MB
Data storage in matrix containers          ... UNCOMPRESSED
Data type for integral storage             ... DOUBLE
In-Core Storage of quantities:
   Amplitudes+Sigma Vector      ... YES
   J+K operators                ... YES
   DIIS vectors                 ... YES
   3-external integrals         ... YES
   4-external integrals         ... YES


Initializing the integral package          ... done
Warning: reference  - re-canonicalizations have been set to INT 1 VIRT 1

--------------------------
UNRESTRICTED FOCK OPERATOR
--------------------------

<ss|ss>:         2016 b           24 skpd (  1.2%)    0.001 s ( 0.000 ms/b)
<ss|sp>:         5481 b           80 skpd (  1.5%)    0.001 s ( 0.000 ms/b)
<ss|sd>:         4158 b           52 skpd (  1.3%)    0.001 s ( 0.000 ms/b)
<ss|sf>:         2079 b           27 skpd (  1.3%)    0.000 s ( 0.000 ms/b)
<ss|sg>:          693 b           10 skpd (  1.4%)    0.000 s ( 0.001 ms/b)
<ss|pp>:         2268 b           25 skpd (  1.1%)    0.001 s ( 0.000 ms/b)
<ss|pd>:         3024 b           48 skpd (  1.6%)    0.001 s ( 0.000 ms/b)
<ss|pf>:         1512 b           24 skpd (  1.6%)    0.000 s ( 0.000 ms/b)
<ss|pg>:          504 b            8 skpd (  1.6%)    0.001 s ( 0.001 ms/b)
<ss|dd>:         1323 b           16 skpd (  1.2%)    0.001 s ( 0.001 ms/b)
<ss|df>:         1134 b           18 skpd (  1.6%)    0.000 s ( 0.000 ms/b)
<ss|dg>:          378 b            6 skpd (  1.6%)    0.001 s ( 0.002 ms/b)
<ss|ff>:          378 b            6 skpd (  1.6%)    0.000 s ( 0.001 ms/b)
<ss|fg>:          189 b            3 skpd (  1.6%)    0.000 s ( 0.002 ms/b)
<ss|gg>:           63 b            1 skpd (  1.6%)    0.001 s ( 0.009 ms/b)
<sp|sp>:         3828 b           40 skpd (  1.0%)    0.002 s ( 0.000 ms/b)
<sp|sd>:         5742 b           51 skpd (  0.9%)    0.002 s ( 0.000 ms/b)
<sp|sf>:         2871 b           26 skpd (  0.9%)    0.001 s ( 0.000 ms/b)
<sp|sg>:          957 b           10 skpd (  1.0%)    0.001 s ( 0.001 ms/b)
<sp|pp>:         3132 b            9 skpd (  0.3%)    0.002 s ( 0.001 ms/b)
<sp|pd>:         4176 b           34 skpd (  0.8%)    0.003 s ( 0.001 ms/b)
<sp|pf>:         2088 b           17 skpd (  0.8%)    0.001 s ( 0.001 ms/b)
<sp|pg>:          696 b            6 skpd (  0.9%)    0.002 s ( 0.002 ms/b)
<sp|dd>:         1827 b           15 skpd (  0.8%)    0.003 s ( 0.001 ms/b)
<sp|df>:         1566 b           18 skpd (  1.1%)    0.001 s ( 0.001 ms/b)
<sp|dg>:          522 b            6 skpd (  1.1%)    0.002 s ( 0.003 ms/b)
<sp|ff>:          522 b            6 skpd (  1.1%)    0.001 s ( 0.002 ms/b)
<sp|fg>:          261 b            3 skpd (  1.1%)    0.001 s ( 0.005 ms/b)
<sp|gg>:           87 b            1 skpd (  1.1%)    0.002 s ( 0.019 ms/b)
<sd|sd>:         2211 b            9 skpd (  0.4%)    0.001 s ( 0.000 ms/b)
<sd|sf>:         2178 b            7 skpd (  0.3%)    0.001 s ( 0.000 ms/b)
<sd|sg>:          726 b            3 skpd (  0.4%)    0.001 s ( 0.002 ms/b)
<sd|pp>:         2376 b            1 skpd (  0.0%)    0.003 s ( 0.001 ms/b)
<sd|pd>:         3168 b            5 skpd (  0.2%)    0.003 s ( 0.001 ms/b)
<sd|pf>:         1584 b            2 skpd (  0.1%)    0.001 s ( 0.001 ms/b)
<sd|pg>:          528 b            1 skpd (  0.2%)    0.002 s ( 0.004 ms/b)
<sd|dd>:         1386 b            1 skpd (  0.1%)    0.003 s ( 0.003 ms/b)
<sd|df>:         1188 b            3 skpd (  0.3%)    0.002 s ( 0.002 ms/b)
<sd|dg>:          396 b            1 skpd (  0.3%)    0.003 s ( 0.007 ms/b)
<sd|ff>:          396 b            1 skpd (  0.3%)    0.001 s ( 0.003 ms/b)
<sd|fg>:          198 b            0 skpd (  0.0%)    0.002 s ( 0.009 ms/b)
<sd|gg>:           66 b            0 skpd (  0.0%)    0.003 s ( 0.039 ms/b)
<sf|sf>:          561 b            1 skpd (  0.2%)    0.000 s ( 0.001 ms/b)
<sf|sg>:          363 b            1 skpd (  0.3%)    0.001 s ( 0.003 ms/b)
<sf|pp>:         1188 b            0 skpd (  0.0%)    0.002 s ( 0.002 ms/b)
<sf|pd>:         1584 b            0 skpd (  0.0%)    0.003 s ( 0.002 ms/b)
<sf|pf>:          792 b            0 skpd (  0.0%)    0.001 s ( 0.001 ms/b)
<sf|pg>:          264 b            0 skpd (  0.0%)    0.002 s ( 0.007 ms/b)
<sf|dd>:          693 b            0 skpd (  0.0%)    0.003 s ( 0.004 ms/b)
<sf|df>:          594 b            0 skpd (  0.0%)    0.002 s ( 0.003 ms/b)
<sf|dg>:          198 b            0 skpd (  0.0%)    0.002 s ( 0.012 ms/b)
<sf|ff>:          198 b            0 skpd (  0.0%)    0.001 s ( 0.006 ms/b)
<sf|fg>:           99 b            0 skpd (  0.0%)    0.002 s ( 0.017 ms/b)
<sf|gg>:           33 b            0 skpd (  0.0%)    0.002 s ( 0.066 ms/b)
<sg|sg>:           66 b            0 skpd (  0.0%)    0.000 s ( 0.004 ms/b)
<sg|pp>:          396 b            0 skpd (  0.0%)    0.001 s ( 0.003 ms/b)
<sg|pd>:          528 b            1 skpd (  0.2%)    0.002 s ( 0.003 ms/b)
<sg|pf>:          264 b            0 skpd (  0.0%)    0.001 s ( 0.003 ms/b)
<sg|pg>:           88 b            0 skpd (  0.0%)    0.001 s ( 0.015 ms/b)
<sg|dd>:          231 b            0 skpd (  0.0%)    0.002 s ( 0.008 ms/b)
<sg|df>:          198 b            0 skpd (  0.0%)    0.001 s ( 0.005 ms/b)
<sg|dg>:           66 b            0 skpd (  0.0%)    0.002 s ( 0.026 ms/b)
<sg|ff>:           66 b            0 skpd (  0.0%)    0.001 s ( 0.010 ms/b)
<sg|fg>:           33 b            0 skpd (  0.0%)    0.001 s ( 0.032 ms/b)
<sg|gg>:           11 b            0 skpd (  0.0%)    0.001 s ( 0.126 ms/b)
<pp|pp>:          666 b            0 skpd (  0.0%)    0.002 s ( 0.003 ms/b)
<pp|pd>:         1728 b            0 skpd (  0.0%)    0.003 s ( 0.002 ms/b)
<pp|pf>:          864 b            0 skpd (  0.0%)    0.001 s ( 0.001 ms/b)
<pp|pg>:          288 b            0 skpd (  0.0%)    0.002 s ( 0.006 ms/b)
<pp|dd>:          756 b            0 skpd (  0.0%)    0.003 s ( 0.004 ms/b)
<pp|df>:          648 b            0 skpd (  0.0%)    0.002 s ( 0.003 ms/b)
<pp|dg>:          216 b            0 skpd (  0.0%)    0.002 s ( 0.011 ms/b)
<pp|ff>:          216 b            0 skpd (  0.0%)    0.001 s ( 0.005 ms/b)
<pp|fg>:          108 b            0 skpd (  0.0%)    0.002 s ( 0.015 ms/b)
<pp|gg>:           36 b            0 skpd (  0.0%)    0.002 s ( 0.060 ms/b)
<pd|pd>:         1176 b            0 skpd (  0.0%)    0.004 s ( 0.004 ms/b)
<pd|pf>:         1152 b            0 skpd (  0.0%)    0.002 s ( 0.002 ms/b)
<pd|pg>:          384 b            0 skpd (  0.0%)    0.004 s ( 0.010 ms/b)
<pd|dd>:         1008 b            0 skpd (  0.0%)    0.006 s ( 0.006 ms/b)
<pd|df>:          864 b            0 skpd (  0.0%)    0.004 s ( 0.004 ms/b)
<pd|dg>:          288 b            0 skpd (  0.0%)    0.005 s ( 0.018 ms/b)
<pd|ff>:          288 b            0 skpd (  0.0%)    0.003 s ( 0.009 ms/b)
<pd|fg>:          144 b            0 skpd (  0.0%)    0.004 s ( 0.026 ms/b)
<pd|gg>:           48 b            0 skpd (  0.0%)    0.005 s ( 0.108 ms/b)
<pf|pf>:          300 b            0 skpd (  0.0%)    0.001 s ( 0.004 ms/b)
<pf|pg>:          192 b            0 skpd (  0.0%)    0.003 s ( 0.015 ms/b)
<pf|dd>:          504 b            0 skpd (  0.0%)    0.004 s ( 0.008 ms/b)
<pf|df>:          432 b            0 skpd (  0.0%)    0.003 s ( 0.006 ms/b)
<pf|dg>:          144 b            0 skpd (  0.0%)    0.004 s ( 0.027 ms/b)
<pf|ff>:          144 b            0 skpd (  0.0%)    0.002 s ( 0.016 ms/b)
<pf|fg>:           72 b            0 skpd (  0.0%)    0.003 s ( 0.040 ms/b)
<pf|gg>:           24 b            0 skpd (  0.0%)    0.004 s ( 0.159 ms/b)
<pg|pg>:           36 b            0 skpd (  0.0%)    0.001 s ( 0.033 ms/b)
<pg|dd>:          168 b            0 skpd (  0.0%)    0.003 s ( 0.016 ms/b)
<pg|df>:          144 b            0 skpd (  0.0%)    0.002 s ( 0.011 ms/b)
<pg|dg>:           48 b            0 skpd (  0.0%)    0.003 s ( 0.052 ms/b)
<pg|ff>:           48 b            0 skpd (  0.0%)    0.001 s ( 0.021 ms/b)
<pg|fg>:           24 b            0 skpd (  0.0%)    0.002 s ( 0.075 ms/b)
<pg|gg>:            8 b            0 skpd (  0.0%)    0.002 s ( 0.265 ms/b)
<dd|dd>:          231 b            0 skpd (  0.0%)    0.004 s ( 0.017 ms/b)
<dd|df>:          378 b            0 skpd (  0.0%)    0.003 s ( 0.007 ms/b)
<dd|dg>:          126 b            0 skpd (  0.0%)    0.004 s ( 0.031 ms/b)
<dd|ff>:          126 b            0 skpd (  0.0%)    0.002 s ( 0.016 ms/b)
<dd|fg>:           63 b            0 skpd (  0.0%)    0.003 s ( 0.044 ms/b)
<dd|gg>:           21 b            0 skpd (  0.0%)    0.004 s ( 0.185 ms/b)
<df|df>:          171 b            0 skpd (  0.0%)    0.003 s ( 0.017 ms/b)
<df|dg>:          108 b            0 skpd (  0.0%)    0.004 s ( 0.040 ms/b)
<df|ff>:          108 b            0 skpd (  0.0%)    0.003 s ( 0.026 ms/b)
<df|fg>:           54 b            0 skpd (  0.0%)    0.004 s ( 0.067 ms/b)
<df|gg>:           18 b            0 skpd (  0.0%)    0.005 s ( 0.270 ms/b)
<dg|dg>:           21 b            0 skpd (  0.0%)    0.002 s ( 0.071 ms/b)
<dg|ff>:           36 b            0 skpd (  0.0%)    0.001 s ( 0.034 ms/b)
<dg|fg>:           18 b            0 skpd (  0.0%)    0.002 s ( 0.117 ms/b)
<dg|gg>:            6 b            0 skpd (  0.0%)    0.003 s ( 0.420 ms/b)
<ff|ff>:           21 b            0 skpd (  0.0%)    0.001 s ( 0.051 ms/b)
<ff|fg>:           18 b            0 skpd (  0.0%)    0.002 s ( 0.106 ms/b)
<ff|gg>:            6 b            0 skpd (  0.0%)    0.003 s ( 0.434 ms/b)
<fg|fg>:            6 b            0 skpd (  0.0%)    0.001 s ( 0.238 ms/b)
<fg|gg>:            3 b            0 skpd (  0.0%)    0.002 s ( 0.715 ms/b)
<gg|gg>:            1 b            0 skpd (  0.0%)    0.002 s ( 1.661 ms/b)
Recanonicalizing the internal orbitals
Recanonicalizing the virtual orbitals
Time needed for Fock operator              ...            0.307 sec
Reference energy                           ...  -1017.756426672
Warning: for UHF the TrafoType has to be JK
Warning: for UHF the K(C)-option cannot be MO but must be AOX

-------------------------------
PARTIAL EXCHANGE TRANSFORMATION
-------------------------------

Transformation type                        ... two-operators
Generation of integrals (i,mue|j,nue)      ... ON
Generation of integrals (mue,kappa|nue,tau)... ON
Generation of integrals (i,mue|a,nue)      ... ON
Dimension of the basis                     ...   95
Number of internal alpha-MOs               ...   11 (   6-  16)
Number of internal beta-MOs                ...    8 (   6-  13)
Number of external alpha-MOs               ...   78 (  17-  94)
Number of external beta-MOs                ...   81 (  14-  94)
Pair cutoff                                ... 0.000e+00 Eh
Number of AO pairs in the trafo            ... 4560
Total Number of distinct AO pairs          ... 4560
Memory devoted for trafo                   ... 2500.0 MB 
Max. Number of MO pairs treated together   ... 36308      
Number Format for Storage                  ... Double (8 Byte)
Integral package used                      ... LIBINT

Starting integral evaluation:
    ... done with AO integral generation
Closing buffer AOK[aa] ( 0.00 GB; CompressionRatio= 0.99)
Closing buffer AOK[bb] ( 0.00 GB; CompressionRatio= 0.98)
Closing buffer AOK[ab] ( 0.00 GB; CompressionRatio= 0.98)
Closing buffer AOK[ba] ( 0.00 GB; CompressionRatio= 0.98)
Collecting buffer AOK 
Closing buffer IAAO1[aa] ( 0.00 GB; CompressionRatio= 1.00)
Closing buffer IAAO1[bb] ( 0.00 GB; CompressionRatio= 1.00)
Closing buffer IAAO1[ab] ( 0.00 GB; CompressionRatio= 1.00)
Closing buffer IAAO1[ba] ( 0.00 GB; CompressionRatio= 1.00)
Closing buffer IAAO2[aa] ( 0.00 GB; CompressionRatio= 1.00)
Closing buffer IAAO2[bb] ( 0.00 GB; CompressionRatio= 1.00)
Closing buffer IAAO2[ab] ( 0.00 GB; CompressionRatio= 1.00)
Closing buffer IAAO2[ba] ( 0.00 GB; CompressionRatio= 1.00)
Collecting buffer IAAO 
Closing buffer PRQS    ( 0.00 GB; CompressionRatio= 1.00)
Collecting buffer PRQS 
Number of alpha/alpha MO pairs in trafo    ...   66
Number of beta /beta  MO pairs in trafo    ...   36
Number of alpha/ beta MO pairs in trafo    ...   88
------------------------
SORTING OF (i,mue|j,nue)
------------------------

SORTING OF ALPHA/ALPHA PAIRS
IBATCH = 1 of  1
Closing buffer KAO[aa] ( 0.00 GB; CompressionRatio= 1.00)
Collecting buffer KAO 
SORTING OF BETA /BETA  PAIRS
IBATCH = 1 of  1
Closing buffer KAO[bb] ( 0.00 GB; CompressionRatio= 1.00)
Collecting buffer KAO 
SORTING OF ALPHA/BETA  PAIRS
IBATCH = 1 of  1
Closing buffer KAO[ab] ( 0.00 GB; CompressionRatio= 0.999833822633)
Collecting buffer KAO[ab] 
------------------------
SORTING OF (i,mue|a,nue)
------------------------

Number of alpha/alpha (i,a) pairs in trafo  ...  858
Number of beta /beta  (i,a) pairs in trafo  ...  648
Number of alpha/ beta (i,a) pairs in trafo  ...  891
Number of beta /alpha (i,a) pairs in trafo  ...  624
Setting up the alpha/alpha list             ... done
Setting up the beta /beta  list             ... done
Setting up the alpha/beta  list             ... done
Setting up the beta /alpha list             ... done
    ... Now sorting (i,mue|a,nue)integrals
    ... Integrals (i,b|a,c) will be made on the fly
SORTING OF ALPHA/ALPHA PAIRS
IBATCH = 1 of  1
Closing buffer IPAQ[aa]  0.00 GB; CompressionRatio= 1.00)
SORTING OF BETA /BETA  PAIRS
IBATCH = 1 of  1
Closing buffer IPAQ[bb]( 0.00 GB; CompressionRatio= 1.00)
SORTING OF ALPHA/BETA  PAIRS (NMatSort_ab=38)
IBATCH = 1 of  1
Closing buffer IPAQ[ab]( 0.00 GB; CompressionRatio= 1.00)
SORTING OF BETA/ALPHA  PAIRS
IBATCH = 1 of  1
Closing buffer IPAQ[ba]( 0.00 GB; CompressionRatio= 1.00)
N(AO-Batches) Done                         ...      4959 
N(AO-Batches) Skipped                      ...         0 
N(IJ)-pairs Skipped                        ...         0 
TOTAL TIME for half transformation         ...     1.084 sec
AO-integral generation                     ...     0.022 sec
Half transformation                        ...     0.005 sec
K-integral sorting                         ...     0.621 sec
<ss|**>: 
------------------------------
PARTIAL COULOMB TRANSFORMATION
------------------------------

Transformation type                        ... two-operators
Dimension of the basis                     ...   95
Number of internal alpha-MOs               ...   11 (6-16)
Number of internal beta-MOs                ...    8 (6-13)
Pair cutoff                                ... 0.000e+00 Eh
Number of AO pairs included in the trafo   ... 4560
Total Number of distinct AO pairs          ... 4560
Memory devoted for trafo                   ... 2500.0 MB 
Max. Number of MO pairs treated together   ... 71859      
Max. Number of MOs treated per batch       ...  756      
Number Format for Storage                  ... Double (8 Byte)
AO-integral source                         ... DIRECT
Integral package used                      ... LIBINT

Starting integral evaluation:
<sp|**>:        27153 b        0 skpd     0.006 s (  0.000 ms/b)
<sd|**>:        37497 b        0 skpd     0.016 s (  0.000 ms/b)
<sf|**>:        28446 b        0 skpd     0.017 s (  0.001 ms/b)
       14223 b        0 skpd     0.011 s (  0.001 ms/b)
<sg|**>: <pp|**>:         4741 b        0 skpd     0.017 s (  0.004 ms/b)
       15516 b        0 skpd     0.024 s (  0.002 ms/b)
<pd|**>:        20688 b        0 skpd     0.035 s (  0.002 ms/b)
<pf|**>:        10344 b        0 skpd     0.014 s (  0.001 ms/b)
<pg|**>:         3448 b        0 skpd     0.026 s (  0.008 ms/b)
<dd|**>:         9051 b        0 skpd     0.039 s (  0.004 ms/b)
<df|**>:         7758 b        0 skpd     0.023 s (  0.003 ms/b)
<dg|**>:         2586 b        0 skpd     0.034 s (  0.013 ms/b)
<ff|**>:         2586 b        0 skpd     0.015 s (  0.006 ms/b)
<fg|**>:         1293 b        0 skpd     0.021 s (  0.016 ms/b)
<gg|**>:          431 b        0 skpd     0.032 s (  0.073 ms/b)
Closing buffer AOJ[aa] ( 0.00 GB; CompressionRatio= 0.98)
Closing buffer AOJ[bb] ( 0.00 GB; CompressionRatio= 0.00)
Collecting buffer AOJ 
    ... done with AO integral generation
Number of Alpha-MO pairs included          ...   66
Number of Beta-MO pairs included           ...   36
    ... Now sorting integrals
SORTING ALPHA/ALPHA PAIRS
IBATCH = 1 of  1
Closing buffer JAO[aa] ( 0.00 GB; CompressionRatio= 1.00)
SORTING BETA/BETA PAIRS
IBATCH = 1 of  1
Closing buffer JAO[bb] ( 0.00 GB; CompressionRatio= 1.00)
Collecting buffer JAO 
TOTAL TIME for half transformation         ...     0.357 sec
AO-integral generation                     ...     0.329 sec
Half transformation                        ...     0.009 sec
J-integral sorting                         ...     0.012 sec

-------------------------- SECOND HALF TRANSFORMATION -------------------------
Formation of (ij|kl),(ij|ka), (ij|ab)      ... ok (     0.039 sec)
Formation of (ik|jl),(ik|ja), (ia|jb)      ... ok (     0.063 sec)


-----------------------
SPIN UNRESTRICTED GUESS
-----------------------

Entering MDCI_UHF_Guess, Tailored=0
Spin-components of the MP2 energy:
EMP2(aa)=     -0.132552164
EMP2(bb)=     -0.069061014
EMP2(ab)=     -0.417861387

Initial guess performed in     0.026 sec
E(0)                                       ...  -1017.756426672
E(MP2)                                     ...     -0.619474564
Initial E(tot)                             ...  -1018.375901236
<T|T>                                      ...      0.153587898
Number of pairs included                   ... 171

------------------------------------------------
                  UHF COUPLED CLUSTER ITERATIONS
------------------------------------------------

Number of amplitudes to be optimized       ...       815887

Iter       E(tot)           E(Corr)          Delta-E          Residual     Time      <S|S>**1/2
  0  -1018.375901236     -0.619474564      0.000000000      0.040893970    0.77      0.000000046
                           *** Turning on DIIS ***
  1  -1018.359162016     -0.602735344      0.016739220      0.019493133    0.79      0.102390247
  2  -1018.381644010     -0.625217338     -0.022481994      0.018405304    0.84      0.122296319
  3  -1018.391872437     -0.635445765     -0.010228427      0.016574383    0.81      0.179633784
  4  -1018.404819176     -0.648392504     -0.012946739      0.010282171    0.83      0.252974104
  5  -1018.416559483     -0.660132811     -0.011740307      0.003387268    0.85      0.329812960
  6  -1018.417032117     -0.660605445     -0.000472634      0.001394821    0.84      0.343530859
  7  -1018.418228067     -0.661801395     -0.001195950      0.000517994    0.85      0.348677086
  8  -1018.418601809     -0.662175137     -0.000373742      0.000215886    0.83      0.352030765
  9  -1018.418603721     -0.662177049     -0.000001912      0.000128290    0.82      0.352277982
 10  -1018.418676096     -0.662249424     -0.000072375      0.000075063    0.84      0.352768480
 11  -1018.418639728     -0.662213056      0.000036368      0.000041723    0.83      0.352666979
 12  -1018.418651858     -0.662225186     -0.000012130      0.000020826    0.81      0.352717951
 13  -1018.418646489     -0.662219818      0.000005368      0.000011928    0.83      0.352704784
 14  -1018.418643073     -0.662216402      0.000003416      0.000008380    0.81      0.352684000
 15  -1018.418642326     -0.662215655      0.000000747      0.000005751    0.85      0.352679065
 16  -1018.418642191     -0.662215519      0.000000136      0.000003956    0.80      0.352683470
 17  -1018.418643298     -0.662216626     -0.000001107      0.000001930    0.80      0.352692280
 18  -1018.418643762     -0.662217090     -0.000000464      0.000001093    0.81      0.352697365
 19  -1018.418643892     -0.662217220     -0.000000130      0.000000710    0.81      0.352698828
               --- The Coupled-Cluster iterations have converged ---

----------------------
COUPLED CLUSTER ENERGY
----------------------

E(0)                                       ...  -1017.756426672
E(CORR)                                    ...     -0.662217220
E(TOT)                                     ...  -1018.418643892
Singles norm <S|S>**1/2                    ...      0.352698828 ( 0.251335012, 0.101363816)  
T1 diagnostic                              ...      0.080914660                              

------------------
LARGEST AMPLITUDES
------------------
  11a-> 19a  -1a-> -1a       0.222490
  16a-> 19a  -1a-> -1a       0.184925
  11a-> 28a  -1a-> -1a       0.144277
  11b-> 28b  -1b-> -1b       0.111080
  13a-> 24a  -1a-> -1a       0.103595
  12a-> 23a  -1a-> -1a       0.103595
  12a-> 27a  -1a-> -1a       0.093561
  13a-> 26a  -1a-> -1a       0.093561
  12b-> 25b  -1b-> -1b       0.088175
  13b-> 24b  -1b-> -1b       0.088175
  11a-> 32a  -1a-> -1a       0.080372
  11a-> 25a  -1a-> -1a       0.079470
  11b-> 17b  -1b-> -1b       0.078658
  13a-> 17a  -1a-> -1a       0.065932
  12a-> 18a  -1a-> -1a       0.065932
  16a-> 28a  -1a-> -1a       0.061242

----------------------
UHF TRIPLES CORRECTION (Algorithm 1)
----------------------

Multiplier for the singles contribution    ...      1.000000000

SPIN-CASE Alpha-Alpha-Alpha:
10% done
20% done
30% done
40% done
50% done
60% done
70% done
80% done
90% done


SPIN-CASE Beta-Beta-Beta:
10% done
20% done
30% done
40% done
50% done
60% done
70% done
80% done
90% done


SPIN-CASE Alpha-Alpha-Beta:
10% done
20% done
30% done
40% done
50% done
60% done
70% done
80% done
90% done


SPIN-CASE Beta-Beta-Alpha:
10% done
20% done
30% done
40% done
50% done
60% done
70% done
80% done
90% done


Triples Correction (T)                     ...     -0.037939303
    alpha-alpha-alpha ... -0.003979713 ( 10.5%)
    alpha-alpha-beta  ... -0.022238435 ( 58.6%)
    alpha-beta -beta  ... -0.011355571 ( 29.9%)
    beta -beta -beta  ... -0.000365584 (  1.0%)
Scaling of triples based on CCSD energies (Peterson et al. Molecular Physics 113, 1551 (2015))
E(T*) = f*E(T) where f = E(F12-CCSD)/E(CCSD) 
f = CCSD (with F12)/ CCSD (without F12)    ...      1.000000000
Scaled triples correction (T)              ...     -0.037939303

Final correlation energy                   ...     -0.700156523
E(CCSD)                                    ...  -1018.418643892
E(CCSD(T))                                 ...  -1018.456583195



        !!!!!!!!!!!!!!!!!!!!!!!!!!!!!!!!!!!!!!!!!!!!!!!!!!!!!!!!!!!!!!!!!!!!!!!!!! 
        !  Warning: Densities are linearized densities                           !
        !!!!!!!!!!!!!!!!!!!!!!!!!!!!!!!!!!!!!!!!!!!!!!!!!!!!!!!!!!!!!!!!!!!!!!!!!! 

NORM  =      1.448542788 sqrt=     1.203554232
W(HF) =      0.690348955
------------------------------------------------------------------------------
                           ORCA POPULATION ANALYSIS
------------------------------------------------------------------------------
Input electron density              ... 17_VO.mdcip
Input spin density                  ... 17_VO.mdcir
BaseName (.gbw .S,...)              ... 17_VO

                    ********************************
                    * MULLIKEN POPULATION ANALYSIS *
                    ********************************

------------------------------------------
MULLIKEN ATOMIC CHARGES AND SPIN DENSITIES
------------------------------------------
   0 V :    0.396477    3.328233
   1 O :   -0.396477   -0.328233
Sum of atomic charges       :    0.0000000
Sum of atomic spin densities:    3.0000000

---------------------------------------------------
MULLIKEN REDUCED ORBITAL CHARGES AND SPIN DENSITIES
---------------------------------------------------
CHARGE
  0 V s       :     6.777674  s :     6.777674
      pz      :     4.091251  p :    12.151852
      px      :     4.030301
      py      :     4.030301
      dz2     :     0.668916  d :     3.612486
      dxz     :     0.474244
      dyz     :     0.474244
      dx2y2   :     0.997540
      dxy     :     0.997540
      f0      :     0.009511  f :     0.055936
      f+1     :     0.014801
      f-1     :     0.014801
      f+2     :     0.003768
      f-2     :     0.003768
      f+3     :     0.004644
      f-3     :     0.004644
      g0      :     0.001449  g :     0.005576
      g+1     :     0.001136
      g-1     :     0.001136
      g+2     :     0.000312
      g-2     :     0.000312
      g+3     :     0.000280
      g-3     :     0.000280
      g+4     :     0.000336
      g-4     :     0.000336
  1 O s       :     3.940350  s :     3.940350
      pz      :     1.463315  p :     4.398582
      px      :     1.467634
      py      :     1.467634
      dz2     :     0.014007  d :     0.052921
      dxz     :     0.013001
      dyz     :     0.013001
      dx2y2   :     0.006456
      dxy     :     0.006456
      f0      :     0.001249  f :     0.004624
      f+1     :     0.000814
      f-1     :     0.000814
      f+2     :     0.000492
      f-2     :     0.000492
      f+3     :     0.000382
      f-3     :     0.000382

SPIN
  0 V s       :     0.763120  s :     0.763120
      pz      :     0.089299  p :     0.122036
      px      :     0.016369
      py      :     0.016369
      dz2     :     0.221087  d :     2.430482
      dxz     :     0.123716
      dyz     :     0.123716
      dx2y2   :     0.980981
      dxy     :     0.980981
      f0      :     0.000857  f :     0.011822
      f+1     :     0.000225
      f-1     :     0.000225
      f+2     :     0.001597
      f-2     :     0.001597
      f+3     :     0.003661
      f-3     :     0.003661
      g0      :    -0.000061  g :     0.000773
      g+1     :    -0.000046
      g-1     :    -0.000046
      g+2     :     0.000081
      g-2     :     0.000081
      g+3     :     0.000139
      g-3     :     0.000139
      g+4     :     0.000243
      g-4     :     0.000243
  1 O s       :    -0.001672  s :    -0.001672
      pz      :    -0.075943  p :    -0.327533
      px      :    -0.125795
      py      :    -0.125795
      dz2     :    -0.000023  d :     0.000984
      dxz     :     0.000260
      dyz     :     0.000260
      dx2y2   :     0.000244
      dxy     :     0.000244
      f0      :     0.000029  f :    -0.000012
      f+1     :    -0.000010
      f-1     :    -0.000010
      f+2     :     0.000014
      f-2     :     0.000014
      f+3     :    -0.000024
      f-3     :    -0.000024


                     *******************************
                     * LOEWDIN POPULATION ANALYSIS *
                     *******************************

-----------------------------------------
LOEWDIN ATOMIC CHARGES AND SPIN DENSITIES
-----------------------------------------
   0 V :   -0.020796    3.253580
   1 O :    0.020796   -0.253580

--------------------------------------------------
LOEWDIN REDUCED ORBITAL CHARGES AND SPIN DENSITIES
--------------------------------------------------
CHARGE
  0 V s       :     6.724920  s :     6.724920
      pz      :     4.206743  p :    12.286317
      px      :     4.039787
      py      :     4.039787
      dz2     :     0.823811  d :     3.853220
      dxz     :     0.517944
      dyz     :     0.517944
      dx2y2   :     0.996760
      dxy     :     0.996760
      f0      :     0.055593  f :     0.143442
      f+1     :     0.035468
      f-1     :     0.035468
      f+2     :     0.003814
      f-2     :     0.003814
      f+3     :     0.004643
      f-3     :     0.004643
      g0      :     0.005795  g :     0.012897
      g+1     :     0.002615
      g-1     :     0.002615
      g+2     :     0.000320
      g-2     :     0.000320
      g+3     :     0.000280
      g-3     :     0.000280
      g+4     :     0.000336
      g-4     :     0.000336
  1 O s       :     3.587290  s :     3.587290
      pz      :     1.512943  p :     4.295902
      px      :     1.391480
      py      :     1.391480
      dz2     :     0.046382  d :     0.087727
      dxz     :     0.013592
      dyz     :     0.013592
      dx2y2   :     0.007080
      dxy     :     0.007080
      f0      :     0.004244  f :     0.008285
      f+1     :     0.001044
      f-1     :     0.001044
      f+2     :     0.000594
      f-2     :     0.000594
      f+3     :     0.000382
      f-3     :     0.000382

SPIN
  0 V s       :     0.709330  s :     0.709330
      pz      :     0.103169  p :     0.128724
      px      :     0.012777
      py      :     0.012777
      dz2     :     0.223039  d :     2.412898
      dxz     :     0.114753
      dyz     :     0.114753
      dx2y2   :     0.980177
      dxy     :     0.980177
      f0      :    -0.001530  f :     0.002780
      f+1     :    -0.003108
      f-1     :    -0.003108
      f+2     :     0.001603
      f-2     :     0.001603
      f+3     :     0.003660
      f-3     :     0.003660
      g0      :    -0.000501  g :    -0.000152
      g+1     :    -0.000289
      g-1     :    -0.000289
      g+2     :     0.000081
      g-2     :     0.000081
      g+3     :     0.000139
      g-3     :     0.000139
      g+4     :     0.000243
      g-4     :     0.000243
  1 O s       :     0.006638  s :     0.006638
      pz      :    -0.043857  p :    -0.264970
      px      :    -0.110557
      py      :    -0.110557
      dz2     :     0.000177  d :     0.004224
      dxz     :     0.001084
      dyz     :     0.001084
      dx2y2   :     0.000940
      dxy     :     0.000940
      f0      :     0.000228  f :     0.000528
      f+1     :     0.000058
      f-1     :     0.000058
      f+2     :     0.000116
      f-2     :     0.000116
      f+3     :    -0.000024
      f-3     :    -0.000024


                      *****************************
                      * MAYER POPULATION ANALYSIS *
                      *****************************

  NA   - Mulliken gross atomic population
  ZA   - Total nuclear charge
  QA   - Mulliken gross atomic charge
  VA   - Mayer's total valence
  BVA  - Mayer's bonded valence
  FA   - Mayer's free valence

  ATOM       NA         ZA         QA         VA         BVA        FA
  0 V     22.6035    23.0000     0.3965     5.8090     2.2400     3.5690
  1 O      8.3965     8.0000    -0.3965     2.7299     2.2400     0.4900

  Mayer bond orders larger than 0.100000
B(  0-V ,  1-O ) :   2.2400 



------------------------------------------------------------------------------- 
                                     TIMINGS                                   
------------------------------------------------------------------------------- 


Total execution time                   ...       20.597 sec

Fock Matrix Formation                  ...        0.307 sec (  1.5%)
Initial Guess                          ...        0.026 sec (  0.1%)
DIIS Solver                            ...        1.385 sec (  6.7%)
State Vector Update                    ...        0.065 sec (  0.3%)
Sigma-vector construction              ...       14.958 sec ( 72.6%)
  <0|H|D>                              ...        0.004 sec (  0.0% of sigma)
  <D|H|D>(0-ext Fock)                  ...        0.025 sec (  0.2% of sigma)
  <D|H|D>(0-ext)                       ...        0.105 sec (  0.7% of sigma)
  <D|H|D>(2-ext Fock)                  ...        0.008 sec (  0.1% of sigma)
  <D|H|D>(2-ext)                       ...        0.354 sec (  2.4% of sigma)
  <D|H|D>(4-ext)                       ...        6.553 sec ( 43.8% of sigma)
  <S|H|0>                              ...        0.634 sec (  4.2% of sigma)
  <S|H|S>                              ...        0.003 sec (  0.0% of sigma)
  <S|H|D>(1-ext)                       ...        0.007 sec (  0.0% of sigma)
  <D|H|S>(1-ext)                       ...        0.108 sec (  0.7% of sigma)
  Fock-dressing                        ...        3.308 sec ( 22.1% of sigma)
  (ik|jl)-dressing                     ...        0.134 sec (  0.9% of sigma)
  (ij|ab),(ia|jb)-dressing             ...        2.939 sec ( 19.6% of sigma)
  Pair energies                        ...        0.005 sec (  0.0% of sigma)
Total Time for computing (T)           ...        1.765 sec (  8.6% of ALL)
  I/O of integral and amplitudes       ...        0.366 sec ( 20.8% of (T))
  External N**7 contributions          ...        0.484 sec ( 27.4% of (T))
  Internal N**7 contributions          ...        0.254 sec ( 14.4% of (T))
  N**6 triples energy contributions    ...        0.632 sec ( 35.8% of (T))

----- Orbital basis set information -----
Your calculation utilizes the basis: def2-QZVPP
   F. Weigend and R. Ahlrichs, Phys. Chem. Chem. Phys. 7, 3297 (2005).

----- AuxJ basis set information -----
Your calculation utilizes the auxiliary basis: def2/J
   F. Weigend, Phys. Chem. Chem. Phys. 8, 1057 (2006).

----- AuxC basis set information -----
Your calculation utilizes the auxiliary basis: def2-QZVPP/C
  H-La, Hf-Rn : A. Hellweg, C. Hattig, S. Hofener and W. Klopper, Theor. Chem. Acc. 117, 587 (2007).
        Ce-Lu : J. Chmela and M. E. Harding, Mol. Phys. (2018).

----- AuxJK basis set information -----
Your calculation utilizes the auxiliary basis: def2/JK
   H-Ba, Hf-Rn: F. Weigend, J. Comput. Chem. 29, 167 (2008).

All done

                     -----------------------------------------
                     Extrapolated Energy 2 Basis=  def2-QZVPP
                     -----------------------------------------

---------------------------------
CARTESIAN COORDINATES (ANGSTROEM)
---------------------------------
  V      0.000000    0.000000    0.204156
  O      0.000000    0.000000    1.795844

----------------------------
CARTESIAN COORDINATES (A.U.)
----------------------------
  NO LB      ZA    FRAG     MASS         X           Y           Z
   0 V    23.0000    0    50.940    0.000000    0.000000    0.385799
   1 O     8.0000    0    15.999    0.000000    0.000000    3.393653

--------------------------------
INTERNAL COORDINATES (ANGSTROEM)
--------------------------------
 V      0   0   0     0.000000000000     0.00000000     0.00000000
 O      1   0   0     1.591687990137     0.00000000     0.00000000

---------------------------
INTERNAL COORDINATES (A.U.)
---------------------------
 V      0   0   0     0.000000000000     0.00000000     0.00000000
 O      1   0   0     3.007854392011     0.00000000     0.00000000

---------------------
BASIS SET INFORMATION
---------------------
There are 2 groups of distinct atoms

 Group   1 Type V   : 24s18p9d3f2g contracted to 11s6p5d3f2g pattern {114111111111/951111/51111/111/11}
 Group   2 Type O   : 15s8p3d2f1g contracted to 7s4p3d2f1g pattern {8211111/5111/111/11/1}

Atom   0V    basis set group =>   1
Atom   1O    basis set group =>   2
---------------------------------
AUXILIARY/J BASIS SET INFORMATION
---------------------------------
There are 2 groups of distinct atoms

 Group   1 Type V   : 19s5p5d3f3g contracted to 8s5p5d2f3g pattern {121111111/11111/11111/21/111}
 Group   2 Type O   : 12s5p4d2f1g contracted to 6s4p3d1f1g pattern {711111/2111/211/2/1}

Atom   0V    basis set group =>   1
Atom   1O    basis set group =>   2
---------------------------------
AUXILIARY/C BASIS SET INFORMATION
---------------------------------
There are 2 groups of distinct atoms

 Group   1 Type V   : 15s13p11d8f7g5h2i contracted to 15s13p11d8f7g5h2i pattern {111111111111111/1111111111111/11111111111/11111111/1111111/11111/11}
 Group   2 Type O   : 9s8p7d5f3g1h contracted to 9s8p7d5f3g1h pattern {111111111/11111111/1111111/11111/111/1}

Atom   0V    basis set group =>   1
Atom   1O    basis set group =>   2
----------------------------------
AUXILIARY/JK BASIS SET INFORMATION
----------------------------------
There are 2 groups of distinct atoms

 Group   1 Type V   : 19s14p12d10f7g3h1i contracted to 16s13p11d9f5g3h1i pattern {4111111111111111/2111111111111/21111111111/211111111/31111/111/1}
 Group   2 Type O   : 14s10p6d2f1g contracted to 10s8p4d2f1g pattern {5111111111/31111111/3111/11/1}

Atom   0V    basis set group =>   1
Atom   1O    basis set group =>   2

Checking for AutoStart:
The File: 17_VO.gbw exists
Trying to determine its content:
     ... Fine, the file contains calculation information
     ... Fine, the calculation information was read
     ... Fine, the file contains a basis set
     ... Fine, the basis set was read
     ... Fine, the file contains a geometry
     ... Fine, the geometry was read
     ... Fine, the file contains a set of orbitals
     ... Fine, the orbitals can be read
     => possible old guess file was deleted
     => GBW file was renamed to GES file
     => GES file is set as startup file
     => Guess is set to MORead
     ... now leaving AutoStart



           ************************************************************
           *        Program running with 24 parallel MPI-processes    *
           *              working on a common directory               *
           ************************************************************
------------------------------------------------------------------------------
                           ORCA GTO INTEGRAL CALCULATION
------------------------------------------------------------------------------

                         BASIS SET STATISTICS AND STARTUP INFO

 # of primitive gaussian shells          ...   85
[...]
 11  -1018.479134478     -0.701755712      0.000036869      0.000051267    3.25      0.354170753
 12  -1018.479147362     -0.701768596     -0.000012884      0.000031354    3.21      0.354242506
 13  -1018.479142405     -0.701763639      0.000004957      0.000022260    3.23      0.354242983
 14  -1018.479139223     -0.701760458      0.000003181      0.000013586    3.18      0.354232437
 15  -1018.479138950     -0.701760185      0.000000273      0.000007728    3.17      0.354234551
 16  -1018.479138806     -0.701760041      0.000000144      0.000004389    3.14      0.354244617
 17  -1018.479140411     -0.701761645     -0.000001605      0.000001740    3.12      0.354258617
 18  -1018.479140848     -0.701762083     -0.000000438      0.000001064    3.13      0.354264880
 19  -1018.479140906     -0.701762140     -0.000000057      0.000000677    3.13      0.354266226
               --- The Coupled-Cluster iterations have converged ---

----------------------
COUPLED CLUSTER ENERGY
----------------------

E(0)                                       ...  -1017.777378765
E(CORR)                                    ...     -0.701762140
E(TOT)                                     ...  -1018.479140906
Singles norm <S|S>**1/2                    ...      0.354266226 ( 0.253573580, 0.100692646)  
T1 diagnostic                              ...      0.081274246                              

------------------
LARGEST AMPLITUDES
------------------
  16a-> 19a  -1a-> -1a       0.158188
  11a-> 19a  -1a-> -1a       0.154111
  11a-> 21a  -1a-> -1a       0.139068
  13a-> 29a  -1a-> -1a       0.136193
  12a-> 30a  -1a-> -1a       0.136193
  11a-> 28a  -1a-> -1a       0.124766
  12b-> 28b  -1b-> -1b       0.113218
  13b-> 27b  -1b-> -1b       0.113218
  11a-> 31a  -1a-> -1a       0.107607
  16a-> 21a  -1a-> -1a       0.098494
  11b-> 31b  -1b-> -1b       0.092948
  11a-> 20a  -1a-> -1a       0.078760
  16a-> 28a  -1a-> -1a       0.075064
  11a-> 40a  -1a-> -1a       0.072401
  11a-> 43a  -1a-> -1a       0.070661
  13a-> 22a  -1a-> -1a       0.063208

----------------------
UHF TRIPLES CORRECTION (Algorithm 1)
----------------------

Multiplier for the singles contribution    ...      1.000000000

SPIN-CASE Alpha-Alpha-Alpha:
10% done
20% done
30% done
40% done
50% done
60% done
70% done
80% done
90% done


SPIN-CASE Beta-Beta-Beta:
10% done
20% done
30% done
40% done
50% done
60% done
70% done
80% done
90% done


SPIN-CASE Alpha-Alpha-Beta:
10% done
20% done
30% done
40% done
50% done
60% done
70% done
80% done
90% done


SPIN-CASE Beta-Beta-Alpha:
10% done
20% done
30% done
40% done
50% done
60% done
70% done
80% done
90% done


Triples Correction (T)                     ...     -0.041617966
    alpha-alpha-alpha ... -0.004317962 ( 10.4%)
    alpha-alpha-beta  ... -0.024123653 ( 58.0%)
    alpha-beta -beta  ... -0.012731481 ( 30.6%)
    beta -beta -beta  ... -0.000444871 (  1.1%)
Scaling of triples based on CCSD energies (Peterson et al. Molecular Physics 113, 1551 (2015))
E(T*) = f*E(T) where f = E(F12-CCSD)/E(CCSD) 
f = CCSD (with F12)/ CCSD (without F12)    ...      1.000000000
Scaled triples correction (T)              ...     -0.041617966

Final correlation energy                   ...     -0.743380106
E(CCSD)                                    ...  -1018.479140906
E(CCSD(T))                                 ...  -1018.520758872



        !!!!!!!!!!!!!!!!!!!!!!!!!!!!!!!!!!!!!!!!!!!!!!!!!!!!!!!!!!!!!!!!!!!!!!!!!! 
        !  Warning: Densities are linearized densities                           !
        !!!!!!!!!!!!!!!!!!!!!!!!!!!!!!!!!!!!!!!!!!!!!!!!!!!!!!!!!!!!!!!!!!!!!!!!!! 

NORM  =      1.452746920 sqrt=     1.205299515
W(HF) =      0.688351141
------------------------------------------------------------------------------
                           ORCA POPULATION ANALYSIS
------------------------------------------------------------------------------
Input electron density              ... 17_VO.mdcip
Input spin density                  ... 17_VO.mdcir
BaseName (.gbw .S,...)              ... 17_VO

                    ********************************
                    * MULLIKEN POPULATION ANALYSIS *
                    ********************************

------------------------------------------
MULLIKEN ATOMIC CHARGES AND SPIN DENSITIES
------------------------------------------
   0 V :    0.425370    3.327362
   1 O :   -0.425370   -0.327362
Sum of atomic charges       :   -0.0000000
Sum of atomic spin densities:    3.0000000

---------------------------------------------------
MULLIKEN REDUCED ORBITAL CHARGES AND SPIN DENSITIES
---------------------------------------------------
CHARGE
  0 V s       :     6.791350  s :     6.791350
      pz      :     4.081707  p :    12.129080
      px      :     4.023687
      py      :     4.023687
      dz2     :     0.669861  d :     3.582862
      dxz     :     0.459838
      dyz     :     0.459838
      dx2y2   :     0.996663
      dxy     :     0.996663
      f0      :     0.011960  f :     0.060364
      f+1     :     0.015096
      f-1     :     0.015096
      f+2     :     0.004070
      f-2     :     0.004070
      f+3     :     0.005037
      f-3     :     0.005037
      g0      :     0.002294  g :     0.010974
      g+1     :     0.002903
      g-1     :     0.002903
      g+2     :     0.000522
      g-2     :     0.000522
      g+3     :     0.000438
      g-3     :     0.000438
      g+4     :     0.000477
      g-4     :     0.000477
  1 O s       :     3.926792  s :     3.926792
      pz      :     1.465551  p :     4.427973
      px      :     1.481211
      py      :     1.481211
      dz2     :     0.014178  d :     0.061379
      dxz     :     0.016185
      dyz     :     0.016185
      dx2y2   :     0.007415
      dxy     :     0.007415
      f0      :     0.001914  f :     0.008503
      f+1     :     0.001885
      f-1     :     0.001885
      f+2     :     0.000851
      f-2     :     0.000851
      f+3     :     0.000559
      f-3     :     0.000559
      g0      :     0.000139  g :     0.000721
      g+1     :     0.000115
      g-1     :     0.000115
      g+2     :     0.000070
      g-2     :     0.000070
      g+3     :     0.000056
      g-3     :     0.000056
      g+4     :     0.000051
      g-4     :     0.000051

SPIN
  0 V s       :     0.786491  s :     0.786491
      pz      :     0.076089  p :     0.108809
      px      :     0.016360
      py      :     0.016360
      dz2     :     0.221576  d :     2.419836
      dxz     :     0.119036
      dyz     :     0.119036
      dx2y2   :     0.980094
      dxy     :     0.980094
      f0      :     0.000923  f :     0.011893
      f+1     :    -0.000176
      f-1     :    -0.000176
      f+2     :     0.001727
      f-2     :     0.001727
      f+3     :     0.003933
      f-3     :     0.003933
      g0      :    -0.000091  g :     0.000334
      g+1     :    -0.000418
      g-1     :    -0.000418
      g+2     :     0.000112
      g-2     :     0.000112
      g+3     :     0.000196
      g-3     :     0.000196
      g+4     :     0.000322
      g-4     :     0.000322
  1 O s       :    -0.011911  s :    -0.011911
      pz      :    -0.077742  p :    -0.319729
      px      :    -0.120993
      py      :    -0.120993
      dz2     :     0.000501  d :     0.003509
      dxz     :     0.000849
      dyz     :     0.000849
      dx2y2   :     0.000655
      dxy     :     0.000655
      f0      :     0.000252  f :     0.000719
      f+1     :     0.000128
      f-1     :     0.000128
      f+2     :     0.000133
      f-2     :     0.000133
      f+3     :    -0.000027
      f-3     :    -0.000027
      g0      :     0.000018  g :     0.000049
      g+1     :     0.000009
      g-1     :     0.000009
      g+2     :     0.000007
      g-2     :     0.000007
      g+3     :     0.000000
      g-3     :     0.000000
      g+4     :    -0.000000
      g-4     :    -0.000000


                     *******************************
                     * LOEWDIN POPULATION ANALYSIS *
                     *******************************

-----------------------------------------
LOEWDIN ATOMIC CHARGES AND SPIN DENSITIES
-----------------------------------------
   0 V :   -0.114665    3.220221
   1 O :    0.114665   -0.220221

--------------------------------------------------
LOEWDIN REDUCED ORBITAL CHARGES AND SPIN DENSITIES
--------------------------------------------------
CHARGE
  0 V s       :     6.715363  s :     6.715363
      pz      :     4.178677  p :    12.237807
      px      :     4.029565
      py      :     4.029565
      dz2     :     0.854986  d :     3.871757
      dxz     :     0.514291
      dyz     :     0.514291
      dx2y2   :     0.994094
      dxy     :     0.994094
      f0      :     0.089290  f :     0.214070
      f+1     :     0.053134
      f-1     :     0.053134
      f+2     :     0.004220
      f-2     :     0.004220
      f+3     :     0.005036
      f-3     :     0.005036
      g0      :     0.026654  g :     0.075668
      g+1     :     0.022950
      g-1     :     0.022950
      g+2     :     0.000641
      g-2     :     0.000641
      g+3     :     0.000439
      g-3     :     0.000439
      g+4     :     0.000477
      g-4     :     0.000477
  1 O s       :     3.440613  s :     3.440613
      pz      :     1.538583  p :     4.250147
      px      :     1.355782
      py      :     1.355782
      dz2     :     0.092143  d :     0.149658
      dxz     :     0.019850
      dyz     :     0.019850
      dx2y2   :     0.008908
      dxy     :     0.008908
      f0      :     0.028213  f :     0.042726
      f+1     :     0.005076
      f-1     :     0.005076
      f+2     :     0.001621
      f-2     :     0.001621
      f+3     :     0.000559
      f-3     :     0.000559
      g0      :     0.001225  g :     0.002191
      g+1     :     0.000270
      g-1     :     0.000270
      g+2     :     0.000106
      g-2     :     0.000106
      g+3     :     0.000056
      g-3     :     0.000056
      g+4     :     0.000051
      g-4     :     0.000051

SPIN
  0 V s       :     0.709841  s :     0.709841
      pz      :     0.095824  p :     0.120375
      px      :     0.012275
      py      :     0.012275
      dz2     :     0.224207  d :     2.396840
      dxz     :     0.108827
      dyz     :     0.108827
      dx2y2   :     0.977489
      dxy     :     0.977489
      f0      :    -0.000812  f :    -0.000673
      f+1     :    -0.005645
      f-1     :    -0.005645
      f+2     :     0.001783
      f-2     :     0.001783
      f+3     :     0.003932
      f-3     :     0.003932
      g0      :    -0.001312  g :    -0.006161
      g+1     :    -0.003065
      g-1     :    -0.003065
      g+2     :     0.000123
      g-2     :     0.000123
      g+3     :     0.000195
      g-3     :     0.000195
      g+4     :     0.000322
      g-4     :     0.000322
  1 O s       :     0.002108  s :     0.002108
      pz      :    -0.035337  p :    -0.234569
      px      :    -0.099616
      py      :    -0.099616
      dz2     :     0.000357  d :     0.008503
      dxz     :     0.001698
      dyz     :     0.001698
      dx2y2   :     0.002375
      dxy     :     0.002375
      f0      :     0.001156  f :     0.003547
      f+1     :     0.000305
      f-1     :     0.000305
      f+2     :     0.000917
      f-2     :     0.000917
      f+3     :    -0.000026
      f-3     :    -0.000026
      g0      :     0.000076  g :     0.000189
      g+1     :     0.000015
      g-1     :     0.000015
      g+2     :     0.000042
      g-2     :     0.000042
      g+3     :     0.000000
      g-3     :     0.000000
      g+4     :    -0.000000
      g-4     :    -0.000000


                      *****************************
                      * MAYER POPULATION ANALYSIS *
                      *****************************

  NA   - Mulliken gross atomic population
  ZA   - Total nuclear charge
  QA   - Mulliken gross atomic charge
  VA   - Mayer's total valence
  BVA  - Mayer's bonded valence
  FA   - Mayer's free valence

  ATOM       NA         ZA         QA         VA         BVA        FA
  0 V     22.5746    23.0000     0.4254     5.8141     2.2275     3.5866
  1 O      8.4254     8.0000    -0.4254     2.7162     2.2275     0.4887

  Mayer bond orders larger than 0.100000
B(  0-V ,  1-O ) :   2.2275 



------------------------------------------------------------------------------- 
                                     TIMINGS                                   
------------------------------------------------------------------------------- 


Total execution time                   ...       83.110 sec

Fock Matrix Formation                  ...        0.880 sec (  1.1%)
Initial Guess                          ...        0.076 sec (  0.1%)
DIIS Solver                            ...        4.125 sec (  5.0%)
State Vector Update                    ...        0.182 sec (  0.2%)
Sigma-vector construction              ...       59.604 sec ( 71.7%)
  <0|H|D>                              ...        0.010 sec (  0.0% of sigma)
  <D|H|D>(0-ext Fock)                  ...        0.083 sec (  0.1% of sigma)
  <D|H|D>(0-ext)                       ...        0.363 sec (  0.6% of sigma)
  <D|H|D>(2-ext Fock)                  ...        0.029 sec (  0.0% of sigma)
  <D|H|D>(2-ext)                       ...        1.333 sec (  2.2% of sigma)
  <D|H|D>(4-ext)                       ...       30.918 sec ( 51.9% of sigma)
  <S|H|0>                              ...        3.242 sec (  5.4% of sigma)
  <S|H|S>                              ...        0.005 sec (  0.0% of sigma)
  <S|H|D>(1-ext)                       ...        0.020 sec (  0.0% of sigma)
  <D|H|S>(1-ext)                       ...        0.313 sec (  0.5% of sigma)
  Fock-dressing                        ...       11.169 sec ( 18.7% of sigma)
  (ik|jl)-dressing                     ...        0.429 sec (  0.7% of sigma)
  (ij|ab),(ia|jb)-dressing             ...        9.707 sec ( 16.3% of sigma)
  Pair energies                        ...        0.013 sec (  0.0% of sigma)
Total Time for computing (T)           ...       10.366 sec ( 12.5% of ALL)
  I/O of integral and amplitudes       ...        1.697 sec ( 16.4% of (T))
  External N**7 contributions          ...        3.785 sec ( 36.5% of (T))
  Internal N**7 contributions          ...        1.263 sec ( 12.2% of (T))
  N**6 triples energy contributions    ...        3.515 sec ( 33.9% of (T))


-------------------
EXTRAPOLATED ENERGY
-------------------


-----------------------------------------------------------------
                      EP1 - MDCI extrapolation:
-----------------------------------------------------------------
NOTE: We use as reference SCF energy, for the extrapolation, the one from the MDCI module and not the one 
from the SCF calculation. In case the first step is a DFT calculation these two might be different.

NOTE: For the SCF part we extrapolate based on the scheme proposed in J. Chem. Phys. 2008, 129, 184116
using the exponents from J. Chem. Theory Comput., 7, 33-43 (2011)

NOTE: For the correlation part we extrapolate based on the scheme proposed in J. Chem. Phys. 1997, 106, 9639
using the exponents from J. Chem. Theory Comput., 7, 33-43 (2011)


Alpha(3/4)     :  7.880 (SCF Extrapolation)
Beta(3/4)      :  2.970 (correlation extrapolation)

SCF energy with basis def2-TZVPP:                     -1017.756426672
SCF energy with basis def2-QZVPP:                     -1017.777378765
Extrapolated CBS SCF energy (3/4) :                   -1017.780264679 (-0.002885914) 

MDCI energy with basis def2-TZVPP:                       -0.700156523
MDCI energy with basis def2-QZVPP:                       -0.743380106
Extrapolated CBS correlation energy (3/4) :              -0.775397551 (-0.032017445)

Estimated CBS total energy (3/4) :                    -1018.555662231



-------------------------   --------------------
FINAL SINGLE POINT ENERGY     -1018.555662230797
-------------------------   --------------------


                            ***************************************
                            *     ORCA property calculations      *
                            ***************************************

                                    ---------------------
                                    Active property flags
                                    ---------------------
   (+) Dipole Moment


------------------------------------------------------------------------------
                       ORCA ELECTRIC PROPERTIES CALCULATION
------------------------------------------------------------------------------

Dipole Moment Calculation                       ... on
Quadrupole Moment Calculation                   ... off
Polarizability Calculation                      ... off
GBWName                                         ... 17_VO.gbw
Electron density file                           ... 17_VO.scfp
The origin for moment calculation is the CENTER OF MASS  = ( 0.000000,  0.000000  1.104702)

-------------
DIPOLE MOMENT
-------------
                                X             Y             Z
Electronic contribution:      0.00000      -0.00000      -2.69142
Nuclear contribution   :      0.00000       0.00000       1.77684
                        -----------------------------------------
Total Dipole Moment    :      0.00000      -0.00000      -0.91458
                        -----------------------------------------
Magnitude (a.u.)       :      0.91458
Magnitude (Debye)      :      2.32468



--------------------
Rotational spectrum 
--------------------
 
Rotational constants in cm-1:     0.000000     0.546523     0.546523 
Rotational constants in MHz :     0.000000 16384.348098 16384.348098 

 Dipole components along the rotational axes: 
x,y,z [a.u.] :    -0.914581    -0.000000     0.000000 
x,y,z [Debye]:    -2.324679    -0.000000     0.000000 

 

                           *** MDCI DENSITY ***

------------------------------------------------------------------------------
                       ORCA ELECTRIC PROPERTIES CALCULATION
------------------------------------------------------------------------------

Dipole Moment Calculation                       ... on
Quadrupole Moment Calculation                   ... off
Polarizability Calculation                      ... off
GBWName                                         ... 17_VO.gbw
Electron density file                           ... 17_VO.mdcip
The origin for moment calculation is the CENTER OF MASS  = ( 0.000000,  0.000000  1.104702)

-------------
DIPOLE MOMENT
-------------
                                X             Y             Z
Electronic contribution:      0.00000       0.00000      -3.02153
Nuclear contribution   :      0.00000       0.00000       1.77684
                        -----------------------------------------
Total Dipole Moment    :      0.00000       0.00000      -1.24469
                        -----------------------------------------
Magnitude (a.u.)       :      1.24469
Magnitude (Debye)      :      3.16376



--------------------
Rotational spectrum 
--------------------
 
Rotational constants in cm-1:     0.000000     0.546523     0.546523 
Rotational constants in MHz :     0.000000 16384.348098 16384.348098 

 Dipole components along the rotational axes: 
x,y,z [a.u.] :    -1.244693     0.000000     0.000000 
x,y,z [Debye]:    -3.163757     0.000000     0.000000 

 

Timings for individual modules:

Sum of individual times         ...      120.768 sec (=   2.013 min)
GTO integral calculation        ...        1.847 sec (=   0.031 min)   1.5 %
SCF iterations                  ...       13.458 sec (=   0.224 min)  11.1 %
MDCI module                     ...      105.463 sec (=   1.758 min)  87.3 %
                             ****ORCA TERMINATED NORMALLY****
TOTAL RUN TIME: 0 days 0 hours 2 minutes 1 seconds 855 msec
