
                                 *****************
                                 * O   R   C   A *
                                 *****************

           --- An Ab Initio, DFT and Semiempirical electronic structure package ---

                  #######################################################
                  #                        -***-                        #
                  #          Department of theory and spectroscopy      #
                  #               Directorship: Frank Neese             #
                  #        Max Planck Institute fuer Kohlenforschung    #
                  #                Kaiser Wilhelm Platz 1               #
                  #                 D-45470 Muelheim/Ruhr               #
                  #                      Germany                        #
                  #                                                     #
                  #                  All rights reserved                #
                  #                        -***-                        #
                  #######################################################


                         Program Version 4.2.0 -  RELEASE  -


 With contributions from (in alphabetic order):
   Daniel Aravena         : Magnetic Suceptibility
   Michael Atanasov       : Ab Initio Ligand Field Theory (pilot matlab implementation)
   Alexander A. Auer      : GIAO ZORA, VPT2
   Ute Becker             : Parallelization
   Giovanni Bistoni       : ED, misc. LED, open-shell LED, HFLED
   Martin Brehm           : Molecular dynamics
   Dmytro Bykov           : SCF Hessian
   Vijay G. Chilkuri      : MRCI spin determinant printing, contributions to CSF-ICE
   Dipayan Datta          : RHF DLPNO-CCSD density
   Achintya Kumar Dutta   : EOM-CC, STEOM-CC
   Dmitry Ganyushin       : Spin-Orbit,Spin-Spin,Magnetic field MRCI
   Miquel Garcia          : C-PCM Hessian, Gaussian charge scheme
   Yang Guo               : DLPNO-NEVPT2, CIM, IAO-localization
   Andreas Hansen         : Spin unrestricted coupled pair/coupled cluster methods
   Benjamin Helmich-Paris : CASSCF linear response (MC-RPA)
   Lee Huntington         : MR-EOM, pCC
   Robert Izsak           : Overlap fitted RIJCOSX, COSX-SCS-MP3, EOM
   Christian Kollmar      : KDIIS, OOCD, Brueckner-CCSD(T), CCSD density
   Simone Kossmann        : Meta GGA functionals, TD-DFT gradient, OOMP2, MP2 Hessian
   Martin Krupicka        : AUTO-CI
   Lucas Lang             : DCDCAS
   Dagmar Lenk            : GEPOL surface, SMD
   Dimitrios Liakos       : Extrapolation schemes; Compound Job, initial MDCI parallelization
   Dimitrios Manganas     : Further ROCIS development; embedding schemes
   Dimitrios Pantazis     : SARC Basis sets
   Taras Petrenko         : DFT Hessian,TD-DFT gradient, ASA, ECA, R-Raman, ABS, FL, XAS/XES, NRVS
   Peter Pinski           : DLPNO-MP2, DLPNO-MP2 Gradient
   Christoph Reimann      : Effective Core Potentials
   Marius Retegan         : Local ZFS, SOC
   Christoph Riplinger    : Optimizer, TS searches, QM/MM, DLPNO-CCSD(T), (RO)-DLPNO pert. Triples
   Tobias Risthaus        : Range-separated hybrids, TD-DFT gradient, RPA, STAB
   Michael Roemelt        : Original ROCIS implementation
   Masaaki Saitow         : Open-shell DLPNO-CCSD energy and density
   Barbara Sandhoefer     : DKH picture change effects
   Avijit Sen             : IP-ROCIS
   Kantharuban Sivalingam : CASSCF convergence, NEVPT2, FIC-MRCI
   Bernardo de Souza      : ESD, SOC TD-DFT
   Georgi Stoychev        : AutoAux, RI-MP2 NMR
   Willem Van den Heuvel  : Paramagnetic NMR
   Boris Wezisla          : Elementary symmetry handling
   Frank Wennmohs         : Technical directorship


 We gratefully acknowledge several colleagues who have allowed us to
 interface, adapt or use parts of their codes:
   Stefan Grimme, W. Hujo, H. Kruse,             : VdW corrections, initial TS optimization,
                  C. Bannwarth                     DFT functionals, gCP, sTDA/sTD-DF
   Ed Valeev, F. Pavosevic, A. Kumar             : LibInt (2-el integral package), F12 methods
   Garnet Chan, S. Sharma, J. Yang, R. Olivares  : DMRG
   Ulf Ekstrom                                   : XCFun DFT Library
   Mihaly Kallay                                 : mrcc  (arbitrary order and MRCC methods)
   Andreas Klamt, Michael Diedenhofen            : otool_cosmo (COSMO solvation model)
   Jiri Pittner, Ondrej Demel                    : Mk-CCSD
   Frank Weinhold                                : gennbo (NPA and NBO analysis)
   Christopher J. Cramer and Donald G. Truhlar   : smd solvation model
   Lars Goerigk                                  : TD-DFT with DH, B97 family of functionals
   V. Asgeirsson, H. Jonsson                     : NEB implementation
   FAccTs GmbH                                   : IRC, NEB, NEB-TS, Multilevel, MM, QM/MM, CI optimization
   S Lehtola, MJT Oliveira, MAL Marques          : LibXC Library


 Your calculation uses the libint2 library for the computation of 2-el integrals
 For citations please refer to: http://libint.valeyev.net

 Your ORCA version has been built with support for libXC version: 4.2.3
 For citations please refer to: https://tddft.org/programs/libxc/

 This ORCA versions uses:
   CBLAS   interface :  Fast vector & matrix operations
   LAPACKE interface :  Fast linear algebra routines
   SCALAPACK package :  Parallel linear algebra routines


----- Orbital basis set information -----
Your calculation utilizes the basis: def2-TZVPP
   F. Weigend and R. Ahlrichs, Phys. Chem. Chem. Phys. 7, 3297 (2005).

================================================================================
                                        WARNINGS
                       Please study these warnings very carefully!
================================================================================


WARNING: your system is open-shell and RHF/RKS was chosen
  ===> : WILL SWITCH to UHF/UKS


WARNING: MDCI localization with Augmented Hessian Foster-Boys
  ===> : Switching off randomization!

WARNING: Post HF methods need fully converged wavefunctions
  ===> : Setting SCFConvForced true
         You can overwrite this default with %scf ConvForced false 


INFO   : the flag for use of LIBINT has been found!

================================================================================
                                       INPUT FILE
================================================================================
NAME = 18_VS.in
|  1> #
|  2> # 18_VS ccsd(t)/cbs
|  3> #
|  4> ! ccsd(t) extrapolate(3/4,def2) verytightscf
|  5> 
|  6> *xyz 0 4
|  7>   V   0.00000000000000      0.00000000000000     -0.02784157502378
|  8>   S   0.00000000000000      0.00000000000000      2.02784157502377
|  9> *
| 10> 
| 11> %maxcore 5000
| 12> %pal
| 13> nprocs 24
| 14> end
| 15> 
| 16> 
| 17>                          ****END OF INPUT****
================================================================================

                   *****************************************
                   * Extrapolated Single Point Calculation *
                   *****************************************

----- Orbital basis set information -----
Your calculation utilizes the basis: def2-TZVPP
   F. Weigend and R. Ahlrichs, Phys. Chem. Chem. Phys. 7, 3297 (2005).

----- AuxJ basis set information -----
Your calculation utilizes the auxiliary basis: def2/J
   F. Weigend, Phys. Chem. Chem. Phys. 8, 1057 (2006).

----- AuxC basis set information -----
Your calculation utilizes the auxiliary basis: def2-TZVPP/C
  H-La, Hf-Rn : A. Hellweg, C. Hattig, S. Hofener and W. Klopper, Theor. Chem. Acc. 117, 587 (2007).
        Ce-Lu : J. Chmela and M. E. Harding, Mol. Phys. (2018).

----- AuxJK basis set information -----
Your calculation utilizes the auxiliary basis: def2/JK
   H-Ba, Hf-Rn: F. Weigend, J. Comput. Chem. 29, 167 (2008).

All done

                     -----------------------------------------
                     Extrapolated Energy 1 Basis=  def2-TZVPP
                     -----------------------------------------

---------------------------------
CARTESIAN COORDINATES (ANGSTROEM)
---------------------------------
  V      0.000000    0.000000   -0.027842
  S      0.000000    0.000000    2.027842

----------------------------
CARTESIAN COORDINATES (A.U.)
----------------------------
  NO LB      ZA    FRAG     MASS         X           Y           Z
   0 V    23.0000    0    50.940    0.000000    0.000000   -0.052613
   1 S    16.0000    0    32.060    0.000000    0.000000    3.832065

--------------------------------
INTERNAL COORDINATES (ANGSTROEM)
--------------------------------
 V      0   0   0     0.000000000000     0.00000000     0.00000000
 S      1   0   0     2.055683150048     0.00000000     0.00000000

---------------------------
INTERNAL COORDINATES (A.U.)
---------------------------
 V      0   0   0     0.000000000000     0.00000000     0.00000000
 S      1   0   0     3.884678171706     0.00000000     0.00000000

---------------------
BASIS SET INFORMATION
---------------------
There are 2 groups of distinct atoms

 Group   1 Type V   : 17s12p7d2f1g contracted to 6s5p4d2f1g pattern {842111/63111/4111/11/1}
 Group   2 Type S   : 14s9p3d1f contracted to 5s5p3d1f pattern {73211/51111/111/1}

Atom   0V    basis set group =>   1
Atom   1S    basis set group =>   2
---------------------------------
AUXILIARY/J BASIS SET INFORMATION
---------------------------------
There are 2 groups of distinct atoms

 Group   1 Type V   : 19s5p5d3f3g contracted to 8s5p5d2f3g pattern {121111111/11111/11111/21/111}
 Group   2 Type S   : 14s5p5d2f1g contracted to 8s4p3d1f1g pattern {71111111/2111/311/2/1}

Atom   0V    basis set group =>   1
Atom   1S    basis set group =>   2
---------------------------------
AUXILIARY/C BASIS SET INFORMATION
---------------------------------
There are 2 groups of distinct atoms

 Group   1 Type V   : 9s9p8d7f5g3h1i contracted to 9s9p8d7f5g3h1i pattern {111111111/111111111/11111111/1111111/11111/111/1}
 Group   2 Type S   : 11s8p7d5f2g contracted to 11s8p7d5f2g pattern {11111111111/11111111/1111111/11111/11}

Atom   0V    basis set group =>   1
Atom   1S    basis set group =>   2
----------------------------------
AUXILIARY/JK BASIS SET INFORMATION
----------------------------------
There are 2 groups of distinct atoms

 Group   1 Type V   : 19s14p12d10f7g3h1i contracted to 16s13p11d9f5g3h1i pattern {4111111111111111/2111111111111/21111111111/211111111/31111/111/1}
 Group   2 Type S   : 16s12p10d4f1g contracted to 13s11p9d4f1g pattern {4111111111111/21111111111/211111111/1111/1}

Atom   0V    basis set group =>   1
Atom   1S    basis set group =>   2


           ************************************************************
           *        Program running with 24 parallel MPI-processes    *
           *              working on a common directory               *
           ************************************************************
------------------------------------------------------------------------------
                           ORCA GTO INTEGRAL CALCULATION
------------------------------------------------------------------------------

                         BASIS SET STATISTICS AND STARTUP INFO

 # of primitive gaussian shells          ...   66
 # of primitive gaussian functions       ...  174
 # of contracted shells                  ...   32
 # of contracted basis functions         ...  106
 Highest angular momentum                ...    4
 Maximum contraction depth               ...    8
 Integral package used                   ... LIBINT
 Integral threshhold            Thresh   ...  1.000e-12
 Primitive cut-off              TCut     ...  1.000e-14


------------------------------ INTEGRAL EVALUATION ----------------------------


 * One electron integrals 
 Pre-screening matrix                    ... done
 Shell pair data                         ... done (   0.000 sec)



           ************************************************************
           *        Program running with 24 parallel MPI-processes    *
           *              working on a common directory               *
           ************************************************************
-------------------------------------------------------------------------------
                                 ORCA SCF
-------------------------------------------------------------------------------

------------
SCF SETTINGS
------------
Hamiltonian:
 Ab initio Hamiltonian  Method          .... Hartree-Fock(GTOs)


General Settings:
 Integral files         IntName         .... 18_VS
 Hartree-Fock type      HFTyp           .... UHF
 Total Charge           Charge          ....    0
 Multiplicity           Mult            ....    4
 Number of Electrons    NEL             ....   39
 Basis Dimension        Dim             ....  106
 Nuclear Repulsion      ENuc            ....     94.7311421266 Eh

Convergence Acceleration:
 DIIS                   CNVDIIS         .... on
   Start iteration      DIISMaxIt       ....    12
   Startup error        DIISStart       ....  0.200000
   # of expansion vecs  DIISMaxEq       ....     5
   Bias factor          DIISBfac        ....   1.050
   Max. coefficient     DIISMaxC        ....  10.000
 Newton-Raphson         CNVNR           .... off
 SOSCF                  CNVSOSCF        .... off
 Level Shifting         CNVShift        .... on
   Level shift para.    LevelShift      ....    0.2500
   Turn off err/grad.   ShiftErr        ....    0.0010
 Zerner damping         CNVZerner       .... off
 Static damping         CNVDamp         .... on
   Fraction old density DampFac         ....    0.7000
   Max. Damping (<1)    DampMax         ....    0.9800
   Min. Damping (>=0)   DampMin         ....    0.0000
   Turn off err/grad.   DampErr         ....    0.1000
 Fernandez-Rico         CNVRico         .... off

SCF Procedure:
 Maximum # iterations   MaxIter         ....   125
 SCF integral mode      SCFMode         .... Direct
   Integral package                     .... LIBINT
 Reset frequency        DirectResetFreq ....    20
 Integral Threshold     Thresh          ....  1.000e-12 Eh
 Primitive CutOff       TCut            ....  1.000e-14 Eh

Convergence Tolerance:
 Convergence Check Mode ConvCheckMode   .... Total+1el-Energy
 Convergence forced     ConvForced      .... 1
 Energy Change          TolE            ....  1.000e-09 Eh
 1-El. energy change                    ....  1.000e-06 Eh
 DIIS Error             TolErr          ....  1.000e-08


Diagonalization of the overlap matrix:
Smallest eigenvalue                        ... 2.611e-03
Time for diagonalization                   ...    0.020 sec
Threshold for overlap eigenvalues          ... 1.000e-08
Number of eigenvalues below threshold      ... 0
Time for construction of square roots      ...    0.001 sec
Total time needed                          ...    0.021 sec

-------------------
DFT GRID GENERATION
-------------------

General Integration Accuracy     IntAcc      ...  4.340
Radial Grid Type                 RadialGrid  ... Gauss-Chebyshev
Angular Grid (max. acc.)         AngularGrid ... Lebedev-110
Angular grid pruning method      GridPruning ... 3 (G Style)
Weight generation scheme         WeightScheme... Becke
Basis function cutoff            BFCut       ...    1.0000e-12
Integration weight cutoff        WCut        ...    1.0000e-14
Grids for H and He will be reduced by one unit

# of grid points (after initial pruning)     ...   4778 (   0.0 sec)
# of grid points (after weights+screening)   ...   4753 (   0.0 sec)
nearest neighbour list constructed           ...    0.0 sec
Grid point re-assignment to atoms done       ...    0.0 sec
Grid point division into batches done        ...    0.0 sec
Reduced shell lists constructed in    0.0 sec

Total number of grid points                  ...     4753
Total number of batches                      ...       75
Average number of points per batch           ...       63
Average number of grid points per atom       ...     2376
Average number of shells per batch           ...     9.60 (30.00%)
Average number of basis functions per batch  ...    32.00 (30.19%)
Average number of large shells per batch     ...     6.80 (70.83%)
Average number of large basis fcns per batch ...    19.60 (61.25%)
Maximum spatial batch extension              ...  18.98, 28.73, 16.15 au
Average spatial batch extension              ...   0.93,  1.27,  0.86 au

Time for grid setup =    0.022 sec

------------------------------
INITIAL GUESS: MODEL POTENTIAL
------------------------------
Loading Hartree-Fock densities                     ... done
Calculating cut-offs                               ... done
Setting up the integral package                    ... done
Initializing the effective Hamiltonian             ... done
Starting the Coulomb interaction                   ... done (   0.0 sec)
Reading the grid                                   ... done
Mapping shells                                     ... done
Starting the XC term evaluation                    ... done (   0.0 sec)
Transforming the Hamiltonian                       ... done (   0.0 sec)
Diagonalizing the Hamiltonian                      ... done (   0.0 sec)
Back transforming the eigenvectors                 ... done (   0.0 sec)
Now organizing SCF variables                       ... done
                      ------------------
                      INITIAL GUESS DONE (   0.1 sec)
                      ------------------
--------------
SCF ITERATIONS
--------------
ITER       Energy         Delta-E        Max-DP      RMS-DP      [F,P]     Damp
               ***  Starting incremental Fock matrix formation  ***
  0  -1340.2659784458   0.000000000000 0.03947927  0.00068827  0.1523483 0.7000
  1  -1340.3050860760  -0.039107630180 0.03028866  0.00057926  0.1096334 0.7000
                               ***Turning on DIIS***
  2  -1340.3327669548  -0.027680878751 0.06587170  0.00140190  0.0738556 0.0000
  3  -1340.1959053843   0.136861570506 0.01603963  0.00046212  0.0262961 0.0000
  4  -1340.4721595102  -0.276254125962 0.01113535  0.00031797  0.0234256 0.0000
  5  -1340.4257014182   0.046458092026 0.01715486  0.00037153  0.0133629 0.0000
  6  -1340.4235282467   0.002173171542 0.01011714  0.00027119  0.0098579 0.0000
  7  -1340.4248495485  -0.001321301808 0.00939282  0.00022455  0.0052793 0.0000
  8  -1340.4280691683  -0.003219619828 0.00795413  0.00018695  0.0031292 0.0000
  9  -1340.4355368213  -0.007467653040 0.00610525  0.00014068  0.0023779 0.0000
 10  -1340.4341989516   0.001337869718 0.00479741  0.00010834  0.0019458 0.0000
 11  -1340.4333578640   0.000841087613 0.00404410  0.00008074  0.0016827 0.0000
 12  -1340.4321821990   0.001175664969 0.00376519  0.00006744  0.0015772 0.0000
 13  -1340.4345813362  -0.002399137184 0.00422264  0.00006882  0.0015144 0.0000
 14  -1340.4427568902  -0.008175554001 0.00609844  0.00009032  0.0015247 0.0000
 15  -1340.4351802628   0.007576627437 0.00436626  0.00006576  0.0015680 0.0000
 16  -1340.4860556625  -0.050875399739 0.01487332  0.00020433  0.0014383 0.0000
 17  -1340.4170954111   0.068960251397 0.00427259  0.00005657  0.0019117 0.0000
 18  -1340.4734465990  -0.056351187927 0.01359670  0.00018690  0.0010645 0.0000
 19  -1340.4954733798  -0.022026780741 0.01191620  0.00017493  0.0016456 0.0000
               *** Restarting incremental Fock matrix formation ***
                                   *** Resetting DIIS ***
 20  -1340.4254296601   0.070043719675 0.00162987  0.00003394  0.0016746 0.0000
 21  -1340.4194621731   0.005967486994 0.00208239  0.00003801  0.0009482 0.0000
 22  -1340.4212735441  -0.001811371010 0.00170261  0.00003286  0.0006512 0.0000
 23  -1340.4295998839  -0.008326339790 0.00305120  0.00006302  0.0005946 0.0000
 24  -1340.4450325626  -0.015432678680 0.00601836  0.00012525  0.0004950 0.0000
 25  -1340.4697230200  -0.024690457445 0.01180690  0.00022334  0.0003446 0.0000
 26  -1340.4399954654   0.029727554676 0.00440177  0.00007774  0.0002111 0.0000
 27  -1340.4419415704  -0.001946105030 0.00430603  0.00008098  0.0001647 0.0000
 28  -1340.4349857936   0.006955776795 0.00217380  0.00004892  0.0001207 0.0000
 29  -1340.4242314827   0.010754310952 0.00055606  0.00000672  0.0000645 0.0000
 30  -1340.4269695511  -0.002738068404 0.00023825  0.00000528  0.0000180 0.0000
 31  -1340.4247318640   0.002237687089 0.00030201  0.00000505  0.0000097 0.0000
 32  -1340.4255368787  -0.000805014700 0.00004918  0.00000110  0.0000054 0.0000
 33  -1340.4254892307   0.000047648012 0.00004901  0.00000119  0.0000044 0.0000
 34  -1340.4255182674  -0.000029036725 0.00004242  0.00000099  0.0000035 0.0000
 35  -1340.4254844868   0.000033780602 0.00004666  0.00000107  0.0000022 0.0000
 36  -1340.4256697945  -0.000185307755 0.00000624  0.00000013  0.0000010 0.0000
 37  -1340.4256731964  -0.000003401859 0.00000534  0.00000011  0.0000005 0.0000
 38  -1340.4256898917  -0.000016695284 0.00000080  0.00000003  0.0000004 0.0000
 39  -1340.4256915321  -0.000001640390 0.00000048  0.00000001  0.0000001 0.0000
               *** Restarting incremental Fock matrix formation ***
                                   *** Resetting DIIS ***
 40  -1340.4256916647  -0.000000132593 0.00000010  0.00000000  0.0000001 0.0000
 41  -1340.4256917789  -0.000000114230 0.00000010  0.00000000  0.0000000 0.0000
 42  -1340.4256918192  -0.000000040348 0.00000015  0.00000000  0.0000000 0.0000
                            ***DIIS convergence achieved***

               *****************************************************
               *                     SUCCESS                       *
               *           SCF CONVERGED AFTER  43 CYCLES          *
               *****************************************************


----------------
TOTAL SCF ENERGY
----------------

Total Energy       :        -1340.42569168 Eh          -36474.83742 eV

Components:
Nuclear Repulsion  :           94.73114213 Eh            2577.76543 eV
Electronic Energy  :        -1435.15683380 Eh          -39052.60284 eV
One Electron Energy:        -2034.75557300 Eh          -55368.51402 eV
Two Electron Energy:          599.59873920 Eh           16315.91118 eV

Virial components:
Potential Energy   :        -2680.94719082 Eh          -72952.28188 eV
Kinetic Energy     :         1340.52149914 Eh           36477.44447 eV
Virial Ratio       :            1.99992853


---------------
SCF CONVERGENCE
---------------

  Last Energy change         ...    1.4197e-07  Tolerance :   1.0000e-09
  Last MAX-Density change    ...    4.4538e-08  Tolerance :   1.0000e-08
  Last RMS-Density change    ...    1.2368e-09  Tolerance :   1.0000e-09
  Last DIIS Error            ...    1.3637e-08  Tolerance :   1.0000e-08

             **** THE GBW FILE WAS UPDATED (18_VS.gbw) ****
             **** DENSITY FILE WAS UPDATED (18_VS.scfp) ****
             **** ENERGY FILE WAS UPDATED (18_VS.en.tmp) ****
----------------------
UHF SPIN CONTAMINATION
----------------------

Expectation value of <S**2>     :     4.153050
Ideal value S*(S+1) for S=1.5   :     3.750000
Deviation                       :     0.403050

             **** THE GBW FILE WAS UPDATED (18_VS.gbw) ****
             **** DENSITY FILE WAS UPDATED (18_VS.scfp) ****
----------------
ORBITAL ENERGIES
----------------
                 SPIN UP ORBITALS
  NO   OCC          E(Eh)            E(eV) 
   0   1.0000    -201.503940     -5483.2010 
   1   1.0000     -91.881833     -2500.2318 
   2   1.0000     -23.902852      -650.4297 
   3   1.0000     -20.050663      -545.6063 
   4   1.0000     -20.050663      -545.6063 
   5   1.0000     -20.049839      -545.5839 
   6   1.0000      -8.889627      -241.8991 
   7   1.0000      -6.568153      -178.7285 
   8   1.0000      -6.568153      -178.7285 
   9   1.0000      -6.561235      -178.5403 
  10   1.0000      -3.280441       -89.2653 
  11   1.0000      -2.155969       -58.6669 
  12   1.0000      -2.155969       -58.6669 
  13   1.0000      -2.116675       -57.5976 
  14   1.0000      -0.808129       -21.9903 
  15   1.0000      -0.505403       -13.7527 
  16   1.0000      -0.477592       -12.9959 
  17   1.0000      -0.477592       -12.9959 
  18   1.0000      -0.331168        -9.0115 
  19   1.0000      -0.331168        -9.0115 
  20   1.0000      -0.278234        -7.5711 
  21   0.0000      -0.020048        -0.5455 
  22   0.0000       0.039042         1.0624 
  23   0.0000       0.039042         1.0624 
  24   0.0000       0.129505         3.5240 
  25   0.0000       0.143862         3.9147 
  26   0.0000       0.143862         3.9147 
  27   0.0000       0.180262         4.9052 
  28   0.0000       0.180262         4.9052 
  29   0.0000       0.180698         4.9170 
  30   0.0000       0.232685         6.3317 
  31   0.0000       0.232685         6.3317 
  32   0.0000       0.246110         6.6970 
  33   0.0000       0.375743        10.2245 
  34   0.0000       0.375743        10.2245 
  35   0.0000       0.413446        11.2504 
  36   0.0000       0.539899        14.6914 
  37   0.0000       0.539899        14.6914 
  38   0.0000       0.559875        15.2350 
  39   0.0000       0.606133        16.4937 
  40   0.0000       0.606133        16.4937 
  41   0.0000       0.722455        19.6590 
  42   0.0000       0.722455        19.6590 
  43   0.0000       0.745682        20.2910 
  44   0.0000       0.745682        20.2910 
  45   0.0000       0.767067        20.8730 
  46   0.0000       0.876928        23.8624 
  47   0.0000       0.876928        23.8624 
  48   0.0000       0.901656        24.5353 
  49   0.0000       1.090300        29.6686 
  50   0.0000       1.263132        34.3716 
  51   0.0000       1.263132        34.3716 
  52   0.0000       1.300159        35.3791 
  53   0.0000       1.300159        35.3791 
  54   0.0000       1.490609        40.5615 
  55   0.0000       1.490609        40.5615 
  56   0.0000       1.656774        45.0831 
  57   0.0000       1.791087        48.7380 
  58   0.0000       1.840683        50.0875 
  59   0.0000       1.840683        50.0875 
  60   0.0000       1.857939        50.5571 
  61   0.0000       1.857939        50.5571 
  62   0.0000       1.910723        51.9934 
  63   0.0000       1.910723        51.9934 
  64   0.0000       1.993870        54.2560 
  65   0.0000       2.015257        54.8379 
  66   0.0000       2.015257        54.8379 
  67   0.0000       2.071111        56.3578 
  68   0.0000       2.102191        57.2035 
  69   0.0000       2.102191        57.2035 
  70   0.0000       2.214180        60.2509 
  71   0.0000       2.214180        60.2509 
  72   0.0000       2.345970        63.8371 
  73   0.0000       2.463282        67.0293 
  74   0.0000       2.463282        67.0293 
  75   0.0000       2.637225        71.7625 
  76   0.0000       2.742272        74.6210 
  77   0.0000       2.742272        74.6210 
  78   0.0000       2.875809        78.2548 
  79   0.0000       2.875809        78.2548 
  80   0.0000       3.538067        96.2757 
  81   0.0000       4.411643       120.0469 
  82   0.0000       4.411643       120.0469 
  83   0.0000       4.418475       120.2328 
  84   0.0000       4.418475       120.2328 
  85   0.0000       4.443173       120.9049 
  86   0.0000       4.443173       120.9049 
  87   0.0000       4.556631       123.9922 
  88   0.0000       4.570804       124.3779 
  89   0.0000       4.570804       124.3779 
  90   0.0000       4.938095       134.3724 
  91   0.0000       4.938095       134.3724 
  92   0.0000       5.027845       136.8146 
  93   0.0000       5.027845       136.8146 
  94   0.0000       5.172736       140.7573 
  95   0.0000       5.172736       140.7573 
  96   0.0000       5.247275       142.7856 
  97   0.0000       7.300246       198.6498 
  98   0.0000       7.300246       198.6498 
  99   0.0000       7.362370       200.3403 
 100   0.0000       7.362370       200.3403 
 101   0.0000       7.488565       203.7742 
 102   0.0000       9.667566       263.0678 
 103   0.0000       9.667566       263.0678 
 104   0.0000       9.968075       271.2451 
 105   0.0000      19.290710       524.9269 

                 SPIN DOWN ORBITALS
  NO   OCC          E(Eh)            E(eV) 
   0   1.0000    -201.502514     -5483.1622 
   1   1.0000     -91.890259     -2500.4611 
   2   1.0000     -23.844639      -648.8456 
   3   1.0000     -20.011969      -544.5534 
   4   1.0000     -19.985438      -543.8314 
   5   1.0000     -19.985438      -543.8314 
   6   1.0000      -8.897629      -242.1168 
   7   1.0000      -6.587751      -179.2618 
   8   1.0000      -6.577083      -178.9715 
   9   1.0000      -6.577083      -178.9715 
  10   1.0000      -3.076351       -83.7118 
  11   1.0000      -1.948718       -53.0273 
  12   1.0000      -1.870491       -50.8987 
  13   1.0000      -1.870491       -50.8987 
  14   1.0000      -0.874109       -23.7857 
  15   1.0000      -0.412689       -11.2298 
  16   1.0000      -0.350071        -9.5259 
  17   1.0000      -0.350071        -9.5259 
  18   0.0000      -0.001538        -0.0418 
  19   0.0000       0.085798         2.3347 
  20   0.0000       0.085798         2.3347 
  21   0.0000       0.100530         2.7356 
  22   0.0000       0.154938         4.2161 
  23   0.0000       0.154938         4.2161 
  24   0.0000       0.188566         5.1312 
  25   0.0000       0.188566         5.1312 
  26   0.0000       0.198501         5.4015 
  27   0.0000       0.252989         6.8842 
  28   0.0000       0.255078         6.9410 
  29   0.0000       0.255078         6.9410 
  30   0.0000       0.270564         7.3624 
  31   0.0000       0.305897         8.3239 
  32   0.0000       0.305897         8.3239 
  33   0.0000       0.407358        11.0848 
  34   0.0000       0.414444        11.2776 
  35   0.0000       0.414444        11.2776 
  36   0.0000       0.543410        14.7869 
  37   0.0000       0.543410        14.7869 
  38   0.0000       0.593294        16.1443 
  39   0.0000       0.599699        16.3186 
  40   0.0000       0.599699        16.3186 
  41   0.0000       0.707961        19.2646 
  42   0.0000       0.707961        19.2646 
  43   0.0000       0.782131        21.2829 
  44   0.0000       0.876195        23.8425 
  45   0.0000       0.876195        23.8425 
  46   0.0000       0.908675        24.7263 
  47   0.0000       0.908675        24.7263 
  48   0.0000       0.942946        25.6589 
  49   0.0000       1.085074        29.5264 
  50   0.0000       1.343506        36.5586 
  51   0.0000       1.343506        36.5586 
  52   0.0000       1.367509        37.2118 
  53   0.0000       1.367509        37.2118 
  54   0.0000       1.518580        41.3227 
  55   0.0000       1.518580        41.3227 
  56   0.0000       1.675832        45.6017 
  57   0.0000       1.807115        49.1741 
  58   0.0000       1.831032        49.8249 
  59   0.0000       1.831032        49.8249 
  60   0.0000       1.856284        50.5121 
  61   0.0000       1.856284        50.5121 
  62   0.0000       1.970660        53.6244 
  63   0.0000       1.970660        53.6244 
  64   0.0000       2.006618        54.6028 
  65   0.0000       2.006618        54.6028 
  66   0.0000       2.036930        55.4277 
  67   0.0000       2.088747        56.8377 
  68   0.0000       2.088747        56.8377 
  69   0.0000       2.093623        56.9704 
  70   0.0000       2.201513        59.9062 
  71   0.0000       2.201513        59.9062 
  72   0.0000       2.332807        63.4789 
  73   0.0000       2.463584        67.0375 
  74   0.0000       2.463584        67.0375 
  75   0.0000       2.740979        74.5858 
  76   0.0000       2.887913        78.5841 
  77   0.0000       2.887913        78.5841 
  78   0.0000       2.912375        79.2497 
  79   0.0000       2.912375        79.2497 
  80   0.0000       3.572119        97.2023 
  81   0.0000       4.473643       121.7340 
  82   0.0000       4.473643       121.7340 
  83   0.0000       4.493294       122.2687 
  84   0.0000       4.493294       122.2687 
  85   0.0000       4.510871       122.7471 
  86   0.0000       4.510871       122.7471 
  87   0.0000       4.623637       125.8156 
  88   0.0000       4.631582       126.0318 
  89   0.0000       4.631582       126.0318 
  90   0.0000       5.117152       139.2448 
  91   0.0000       5.117152       139.2448 
  92   0.0000       5.147532       140.0715 
  93   0.0000       5.147532       140.0715 
  94   0.0000       5.280630       143.6933 
  95   0.0000       5.280630       143.6933 
  96   0.0000       5.376273       146.2958 
  97   0.0000       7.297229       198.5677 
  98   0.0000       7.297229       198.5677 
  99   0.0000       7.355125       200.1431 
 100   0.0000       7.355125       200.1431 
 101   0.0000       7.481524       203.5826 
 102   0.0000       9.659914       262.8596 
 103   0.0000       9.659914       262.8596 
 104   0.0000       9.946221       270.6504 
 105   0.0000      19.280374       524.6457 

                    ********************************
                    * MULLIKEN POPULATION ANALYSIS *
                    ********************************

--------------------------------------------
MULLIKEN ATOMIC CHARGES AND SPIN POPULATIONS
--------------------------------------------
   0 V :    0.574301    3.741988
   1 S :   -0.574301   -0.741988
Sum of atomic charges         :   -0.0000000
Sum of atomic spin populations:    3.0000000

-----------------------------------------------------
MULLIKEN REDUCED ORBITAL CHARGES AND SPIN POPULATIONS
-----------------------------------------------------
CHARGE
  0 V s       :     6.696879  s :     6.696879
      pz      :     4.104981  p :    12.302675
      px      :     4.098847
      py      :     4.098847
      dz2     :     1.014505  d :     3.408078
      dxz     :     0.197567
      dyz     :     0.197567
      dx2y2   :     0.999219
      dxy     :     0.999219
      f0      :     0.004039  f :     0.017436
      f+1     :     0.006608
      f-1     :     0.006608
      f+2     :     0.000091
      f-2     :     0.000091
      f+3     :     0.000000
      f-3     :     0.000000
      g0      :     0.000269  g :     0.000632
      g+1     :     0.000173
      g-1     :     0.000173
      g+2     :     0.000008
      g-2     :     0.000008
      g+3     :     0.000000
      g-3     :     0.000000
      g+4     :     0.000000
      g-4     :     0.000000
  1 S s       :     5.896510  s :     5.896510
      pz      :     3.266036  p :    10.629761
      px      :     3.681862
      py      :     3.681862
      dz2     :     0.014610  d :     0.043080
      dxz     :     0.013688
      dyz     :     0.013688
      dx2y2   :     0.000548
      dxy     :     0.000548
      f0      :     0.002171  f :     0.004950
      f+1     :     0.001255
      f-1     :     0.001255
      f+2     :     0.000134
      f-2     :     0.000134
      f+3     :     0.000000
      f-3     :     0.000000

SPIN
  0 V s       :     0.610967  s :     0.610967
      pz      :     0.057938  p :     0.148774
      px      :     0.045418
      py      :     0.045418
      dz2     :     0.855923  d :     2.984386
      dxz     :     0.065012
      dyz     :     0.065012
      dx2y2   :     0.999219
      dxy     :     0.999219
      f0      :    -0.001323  f :    -0.002168
      f+1     :    -0.000513
      f-1     :    -0.000513
      f+2     :     0.000091
      f-2     :     0.000091
      f+3     :     0.000000
      f-3     :     0.000000
      g0      :     0.000056  g :     0.000029
      g+1     :    -0.000021
      g-1     :    -0.000021
      g+2     :     0.000008
      g-2     :     0.000008
      g+3     :     0.000000
      g-3     :     0.000000
      g+4     :     0.000000
      g-4     :     0.000000
  1 S s       :    -0.020697  s :    -0.020697
      pz      :    -0.509252  p :    -0.738031
      px      :    -0.114389
      py      :    -0.114389
      dz2     :     0.005485  d :     0.016046
      dxz     :     0.004733
      dyz     :     0.004733
      dx2y2   :     0.000548
      dxy     :     0.000548
      f0      :     0.000903  f :     0.000694
      f+1     :    -0.000239
      f-1     :    -0.000239
      f+2     :     0.000134
      f-2     :     0.000134
      f+3     :     0.000000
      f-3     :    -0.000000


                     *******************************
                     * LOEWDIN POPULATION ANALYSIS *
                     *******************************

-------------------------------------------
LOEWDIN ATOMIC CHARGES AND SPIN POPULATIONS
-------------------------------------------
   0 V :   -0.091605    3.568460
   1 S :    0.091605   -0.568460

----------------------------------------------------
LOEWDIN REDUCED ORBITAL CHARGES AND SPIN POPULATIONS
----------------------------------------------------
CHARGE
  0 V s       :     6.710889  s :     6.710889
      pz      :     4.288650  p :    12.558922
      px      :     4.135136
      py      :     4.135136
      dz2     :     1.178200  d :     3.758547
      dxz     :     0.291739
      dyz     :     0.291739
      dx2y2   :     0.998435
      dxy     :     0.998435
      f0      :     0.023669  f :     0.061390
      f+1     :     0.018744
      f-1     :     0.018744
      f+2     :     0.000117
      f-2     :     0.000117
      f+3     :     0.000000
      f-3     :     0.000000
      g0      :     0.000859  g :     0.001857
      g+1     :     0.000489
      g-1     :     0.000489
      g+2     :     0.000010
      g-2     :     0.000010
      g+3     :     0.000000
      g-3     :     0.000000
      g+4     :     0.000000
      g-4     :     0.000000
  1 S s       :     5.465996  s :     5.465996
      pz      :     3.274687  p :    10.361952
      px      :     3.543633
      py      :     3.543633
      dz2     :     0.045951  d :     0.066824
      dxz     :     0.009388
      dyz     :     0.009388
      dx2y2   :     0.001048
      dxy     :     0.001048
      f0      :     0.011099  f :     0.013623
      f+1     :     0.000871
      f-1     :     0.000871
      f+2     :     0.000390
      f-2     :     0.000390
      f+3     :     0.000000
      f-3     :     0.000000

SPIN
  0 V s       :     0.538795  s :     0.538795
      pz      :     0.037714  p :     0.115820
      px      :     0.039053
      py      :     0.039053
      dz2     :     0.821412  d :     2.925298
      dxz     :     0.053508
      dyz     :     0.053508
      dx2y2   :     0.998435
      dxy     :     0.998435
      f0      :    -0.006493  f :    -0.011072
      f+1     :    -0.002406
      f-1     :    -0.002406
      f+2     :     0.000117
      f-2     :     0.000117
      f+3     :     0.000000
      f-3     :     0.000000
      g0      :    -0.000241  g :    -0.000382
      g+1     :    -0.000081
      g-1     :    -0.000081
      g+2     :     0.000010
      g-2     :     0.000010
      g+3     :     0.000000
      g-3     :     0.000000
      g+4     :     0.000000
      g-4     :     0.000000
  1 S s       :    -0.001799  s :    -0.001799
      pz      :    -0.403418  p :    -0.592215
      px      :    -0.094399
      py      :    -0.094399
      dz2     :     0.010504  d :     0.021223
      dxz     :     0.004311
      dyz     :     0.004311
      dx2y2   :     0.001048
      dxy     :     0.001048
      f0      :     0.003525  f :     0.004331
      f+1     :     0.000013
      f-1     :     0.000013
      f+2     :     0.000390
      f-2     :     0.000390
      f+3     :    -0.000000
      f-3     :    -0.000000


                      *****************************
                      * MAYER POPULATION ANALYSIS *
                      *****************************

  NA   - Mulliken gross atomic population
  ZA   - Total nuclear charge
  QA   - Mulliken gross atomic charge
  VA   - Mayer's total valence
  BVA  - Mayer's bonded valence
  FA   - Mayer's free valence

  ATOM       NA         ZA         QA         VA         BVA        FA
  0 V     22.4257    23.0000     0.5743     5.1437     1.8758     3.2680
  1 S     16.5743    16.0000    -0.5743     2.1925     1.8758     0.3168

  Mayer bond orders larger than 0.100000
B(  0-V ,  1-S ) :   1.8758 

-------
TIMINGS
-------

Total SCF time: 0 days 0 hours 0 min 6 sec 

Total time                  ....       6.716 sec
Sum of individual times     ....       6.413 sec  ( 95.5%)

Fock matrix formation       ....       6.085 sec  ( 90.6%)
Diagonalization             ....       0.113 sec  (  1.7%)
Density matrix formation    ....       0.019 sec  (  0.3%)
Population analysis         ....       0.010 sec  (  0.2%)
Initial guess               ....       0.108 sec  (  1.6%)
Orbital Transformation      ....       0.000 sec  (  0.0%)
Orbital Orthonormalization  ....       0.000 sec  (  0.0%)
DIIS solution               ....       0.056 sec  (  0.8%)


           ************************************************************
           *        Program running with 24 parallel MPI-processes    *
           *              working on a common directory               *
           ************************************************************


------------------------------------------------------------------------------- 
                              ORCA-MATRIX DRIVEN CI                            
------------------------------------------------------------------------------- 

--------------------------------
AUTOMATIC CHOICE OF INCORE LEVEL
--------------------------------

Memory available                           ...   2500.00 MB
Memory needed for S+T                      ...     10.91 MB
Memory needed for J+K                      ...     21.91 MB
Memory needed for DIIS                     ...    152.80 MB
Memory needed for 3-ext                    ...     51.54 MB
Memory needed for 4-ext                    ...    201.47 MB
Memory needed for triples                  ...     23.43 MB
 -> Final InCoreLevel    ... 5
 -> check shows that triples correction can be computed


Wavefunction type
-----------------
Correlation treatment                      ...      CCSD     
Single excitations                         ... ON
Orbital optimization                       ... OFF
Calculation of Z vector                    ... OFF
Calculation of Brueckner orbitals          ... OFF
Perturbative triple excitations            ... ON
Calculation of F12 correction              ... OFF
Frozen core treatment                      ... chemical core (20 el)
Reference Wavefunction                     ... UHF
  Alpha-MOs occ    :    10 ...   20 ( 11 MO's/ 11 electrons)
  Beta-MOs occ     :    10 ...   17 (  8 MO's/  8 electrons)
  Alpha-MOs virt   :    21 ...  105 ( 85 MO's              )
  Beta-MOs virt    :    18 ...  105 ( 88 MO's              )
Number of AO's                             ...    106
Number of electrons                        ...     39
Number of correlated electrons             ...     19

Algorithmic settings
--------------------
Integral transformation                    ... AO direct full transformation
K(C) Formation                             ... FULL-MO TRAFO
Maximum number of iterations               ...        50
Convergence tolerance (max. residuum)      ... 1.000e-06
Level shift for amplitude update           ... 2.000e-01
Maximum number of DIIS vectors             ...         7
DIIS turned on at iteration                ...         0
Damping before turning on DIIS             ...     0.500
Damping after turning on DIIS              ...     0.000
Pair specific amplitude update             ... OFF
Natural orbital iterations                 ... OFF
Perturbative natural orbital generation    ... OFF
Printlevel                                 ... 2

Memory handling:
----------------
Maximum memory for working arrays          ...   2500 MB
Data storage in matrix containers          ... UNCOMPRESSED
Data type for integral storage             ... DOUBLE
In-Core Storage of quantities:
   Amplitudes+Sigma Vector      ... YES
   J+K operators                ... YES
   DIIS vectors                 ... YES
   3-external integrals         ... YES
   4-external integrals         ... YES


Initializing the integral package          ... done
Warning: reference  - re-canonicalizations have been set to INT 1 VIRT 1

--------------------------
UNRESTRICTED FOCK OPERATOR
--------------------------

<ss|ss>:         1953 b           54 skpd (  2.8%)    0.001 s ( 0.000 ms/b)
<ss|sp>:         6510 b          142 skpd (  2.2%)    0.002 s ( 0.000 ms/b)
<ss|sd>:         4650 b          105 skpd (  2.3%)    0.001 s ( 0.000 ms/b)
<ss|sf>:         2046 b           59 skpd (  2.9%)    0.001 s ( 0.000 ms/b)
<ss|sg>:          682 b           19 skpd (  2.8%)    0.001 s ( 0.001 ms/b)
<ss|pp>:         3348 b           87 skpd (  2.6%)    0.001 s ( 0.000 ms/b)
<ss|pd>:         4278 b           96 skpd (  2.2%)    0.002 s ( 0.000 ms/b)
<ss|pf>:         1860 b           44 skpd (  2.4%)    0.001 s ( 0.000 ms/b)
<ss|pg>:          620 b           16 skpd (  2.6%)    0.001 s ( 0.001 ms/b)
<ss|dd>:         1736 b           32 skpd (  1.8%)    0.001 s ( 0.001 ms/b)
<ss|df>:         1302 b           28 skpd (  2.2%)    0.001 s ( 0.000 ms/b)
<ss|dg>:          434 b           10 skpd (  2.3%)    0.001 s ( 0.002 ms/b)
<ss|ff>:          372 b            6 skpd (  1.6%)    0.000 s ( 0.001 ms/b)
<ss|fg>:          186 b            3 skpd (  1.6%)    0.000 s ( 0.002 ms/b)
<ss|gg>:           62 b            1 skpd (  1.6%)    0.001 s ( 0.010 ms/b)
<sp|sp>:         5565 b           93 skpd (  1.7%)    0.002 s ( 0.000 ms/b)
<sp|sd>:         7875 b          121 skpd (  1.5%)    0.002 s ( 0.000 ms/b)
<sp|sf>:         3465 b           69 skpd (  2.0%)    0.001 s ( 0.000 ms/b)
<sp|sg>:         1155 b           18 skpd (  1.6%)    0.003 s ( 0.003 ms/b)
<sp|pp>:         5670 b           80 skpd (  1.4%)    0.003 s ( 0.001 ms/b)
<sp|pd>:         7245 b           70 skpd (  1.0%)    0.009 s ( 0.001 ms/b)
<sp|pf>:         3150 b           36 skpd (  1.1%)    0.002 s ( 0.001 ms/b)
<sp|pg>:         1050 b           12 skpd (  1.1%)    0.002 s ( 0.002 ms/b)
<sp|dd>:         2940 b           27 skpd (  0.9%)    0.004 s ( 0.001 ms/b)
<sp|df>:         2205 b           25 skpd (  1.1%)    0.002 s ( 0.001 ms/b)
<sp|dg>:          735 b            8 skpd (  1.1%)    0.002 s ( 0.003 ms/b)
<sp|ff>:          630 b            6 skpd (  1.0%)    0.001 s ( 0.002 ms/b)
<sp|fg>:          315 b            3 skpd (  1.0%)    0.001 s ( 0.005 ms/b)
<sp|gg>:          105 b            1 skpd (  1.0%)    0.002 s ( 0.019 ms/b)
<sd|sd>:         2850 b           29 skpd (  1.0%)    0.001 s ( 0.001 ms/b)
<sd|sf>:         2475 b           51 skpd (  2.1%)    0.001 s ( 0.000 ms/b)
<sd|sg>:          825 b            8 skpd (  1.0%)    0.001 s ( 0.002 ms/b)
<sd|pp>:         4050 b           79 skpd (  2.0%)    0.003 s ( 0.001 ms/b)
<sd|pd>:         5175 b           20 skpd (  0.4%)    0.004 s ( 0.001 ms/b)
<sd|pf>:         2250 b           15 skpd (  0.7%)    0.002 s ( 0.001 ms/b)
<sd|pg>:          750 b            4 skpd (  0.5%)    0.003 s ( 0.003 ms/b)
<sd|dd>:         2100 b            2 skpd (  0.1%)    0.005 s ( 0.003 ms/b)
<sd|df>:         1575 b            9 skpd (  0.6%)    0.002 s ( 0.001 ms/b)
<sd|dg>:          525 b            2 skpd (  0.4%)    0.003 s ( 0.007 ms/b)
<sd|ff>:          450 b            1 skpd (  0.2%)    0.002 s ( 0.003 ms/b)
<sd|fg>:          225 b            0 skpd (  0.0%)    0.002 s ( 0.010 ms/b)
<sd|gg>:           75 b            0 skpd (  0.0%)    0.003 s ( 0.040 ms/b)
<sf|sf>:          561 b           25 skpd (  4.5%)    0.000 s ( 0.001 ms/b)
<sf|sg>:          363 b           11 skpd (  3.0%)    0.001 s ( 0.003 ms/b)
<sf|pp>:         1782 b           45 skpd (  2.5%)    0.002 s ( 0.001 ms/b)
<sf|pd>:         2277 b           33 skpd (  1.4%)    0.003 s ( 0.001 ms/b)
<sf|pf>:          990 b           20 skpd (  2.0%)    0.002 s ( 0.002 ms/b)
<sf|pg>:          330 b            8 skpd (  2.4%)    0.002 s ( 0.006 ms/b)
<sf|dd>:          924 b           11 skpd (  1.2%)    0.004 s ( 0.005 ms/b)
<sf|df>:          693 b           15 skpd (  2.2%)    0.002 s ( 0.003 ms/b)
<sf|dg>:          231 b            6 skpd (  2.6%)    0.003 s ( 0.012 ms/b)
<sf|ff>:          198 b            6 skpd (  3.0%)    0.001 s ( 0.007 ms/b)
<sf|fg>:           99 b            3 skpd (  3.0%)    0.002 s ( 0.017 ms/b)
<sf|gg>:           33 b            1 skpd (  3.0%)    0.002 s ( 0.070 ms/b)
<sg|sg>:           66 b            1 skpd (  1.5%)    0.000 s ( 0.004 ms/b)
<sg|pp>:          594 b           11 skpd (  1.9%)    0.002 s ( 0.003 ms/b)
<sg|pd>:          759 b            2 skpd (  0.3%)    0.002 s ( 0.003 ms/b)
<sg|pf>:          330 b            3 skpd (  0.9%)    0.001 s ( 0.003 ms/b)
<sg|pg>:          110 b            0 skpd (  0.0%)    0.001 s ( 0.013 ms/b)
<sg|dd>:          308 b            1 skpd (  0.3%)    0.003 s ( 0.009 ms/b)
<sg|df>:          231 b            2 skpd (  0.9%)    0.001 s ( 0.005 ms/b)
<sg|dg>:           77 b            0 skpd (  0.0%)    0.002 s ( 0.025 ms/b)
<sg|ff>:           66 b            0 skpd (  0.0%)    0.001 s ( 0.010 ms/b)
<sg|fg>:           33 b            0 skpd (  0.0%)    0.001 s ( 0.035 ms/b)
<sg|gg>:           11 b            0 skpd (  0.0%)    0.002 s ( 0.136 ms/b)
<pp|pp>:         1485 b           11 skpd (  0.7%)    0.003 s ( 0.002 ms/b)
<pp|pd>:         3726 b           35 skpd (  0.9%)    0.004 s ( 0.001 ms/b)
<pp|pf>:         1620 b           17 skpd (  1.0%)    0.002 s ( 0.001 ms/b)
<pp|pg>:          540 b            7 skpd (  1.3%)    0.002 s ( 0.004 ms/b)
<pp|dd>:         1512 b           22 skpd (  1.5%)    0.005 s ( 0.003 ms/b)
<pp|df>:         1134 b           20 skpd (  1.8%)    0.002 s ( 0.002 ms/b)
<pp|dg>:          378 b            7 skpd (  1.9%)    0.003 s ( 0.008 ms/b)
<pp|ff>:          324 b            6 skpd (  1.9%)    0.002 s ( 0.005 ms/b)
<pp|fg>:          162 b            3 skpd (  1.9%)    0.002 s ( 0.014 ms/b)
<pp|gg>:           54 b            1 skpd (  1.9%)    0.003 s ( 0.056 ms/b)
<pd|pd>:         2415 b            2 skpd (  0.1%)    0.006 s ( 0.002 ms/b)
<pd|pf>:         2070 b            2 skpd (  0.1%)    0.004 s ( 0.002 ms/b)
<pd|pg>:          690 b            0 skpd (  0.0%)    0.005 s ( 0.007 ms/b)
<pd|dd>:         1932 b            1 skpd (  0.1%)    0.010 s ( 0.005 ms/b)
<pd|df>:         1449 b            1 skpd (  0.1%)    0.005 s ( 0.003 ms/b)
<pd|dg>:          483 b            0 skpd (  0.0%)    0.007 s ( 0.014 ms/b)
<pd|ff>:          414 b            0 skpd (  0.0%)    0.004 s ( 0.009 ms/b)
<pd|fg>:          207 b            0 skpd (  0.0%)    0.005 s ( 0.024 ms/b)
<pd|gg>:           69 b            0 skpd (  0.0%)    0.007 s ( 0.101 ms/b)
<pf|pf>:          465 b            1 skpd (  0.2%)    0.002 s ( 0.003 ms/b)
<pf|pg>:          300 b            0 skpd (  0.0%)    0.003 s ( 0.012 ms/b)
<pf|dd>:          840 b            1 skpd (  0.1%)    0.006 s ( 0.008 ms/b)
<pf|df>:          630 b            2 skpd (  0.3%)    0.003 s ( 0.005 ms/b)
<pf|dg>:          210 b            0 skpd (  0.0%)    0.005 s ( 0.022 ms/b)
<pf|ff>:          180 b            0 skpd (  0.0%)    0.003 s ( 0.016 ms/b)
<pf|fg>:           90 b            0 skpd (  0.0%)    0.004 s ( 0.040 ms/b)
<pf|gg>:           30 b            0 skpd (  0.0%)    0.005 s ( 0.156 ms/b)
<pg|pg>:           55 b            0 skpd (  0.0%)    0.001 s ( 0.021 ms/b)
<pg|dd>:          280 b            0 skpd (  0.0%)    0.004 s ( 0.015 ms/b)
<pg|df>:          210 b            0 skpd (  0.0%)    0.002 s ( 0.009 ms/b)
<pg|dg>:           70 b            0 skpd (  0.0%)    0.003 s ( 0.043 ms/b)
<pg|ff>:           60 b            0 skpd (  0.0%)    0.001 s ( 0.021 ms/b)
<pg|fg>:           30 b            0 skpd (  0.0%)    0.002 s ( 0.075 ms/b)
<pg|gg>:           10 b            0 skpd (  0.0%)    0.003 s ( 0.262 ms/b)
<dd|dd>:          406 b            0 skpd (  0.0%)    0.005 s ( 0.012 ms/b)
<dd|df>:          588 b            1 skpd (  0.2%)    0.003 s ( 0.005 ms/b)
<dd|dg>:          196 b            0 skpd (  0.0%)    0.005 s ( 0.024 ms/b)
<dd|ff>:          168 b            0 skpd (  0.0%)    0.003 s ( 0.015 ms/b)
<dd|fg>:           84 b            0 skpd (  0.0%)    0.004 s ( 0.043 ms/b)
<dd|gg>:           28 b            0 skpd (  0.0%)    0.005 s ( 0.179 ms/b)
<df|df>:          231 b            1 skpd (  0.4%)    0.003 s ( 0.015 ms/b)
<df|dg>:          147 b            0 skpd (  0.0%)    0.005 s ( 0.034 ms/b)
<df|ff>:          126 b            0 skpd (  0.0%)    0.003 s ( 0.027 ms/b)
<df|fg>:           63 b            0 skpd (  0.0%)    0.004 s ( 0.068 ms/b)
<df|gg>:           21 b            0 skpd (  0.0%)    0.006 s ( 0.271 ms/b)
<dg|dg>:           28 b            0 skpd (  0.0%)    0.003 s ( 0.090 ms/b)
<dg|ff>:           42 b            0 skpd (  0.0%)    0.001 s ( 0.034 ms/b)
<dg|fg>:           21 b            0 skpd (  0.0%)    0.002 s ( 0.117 ms/b)
<dg|gg>:            7 b            0 skpd (  0.0%)    0.003 s ( 0.419 ms/b)
<ff|ff>:           21 b            0 skpd (  0.0%)    0.001 s ( 0.052 ms/b)
<ff|fg>:           18 b            0 skpd (  0.0%)    0.002 s ( 0.109 ms/b)
<ff|gg>:            6 b            0 skpd (  0.0%)    0.003 s ( 0.451 ms/b)
<fg|fg>:            6 b            0 skpd (  0.0%)    0.001 s ( 0.245 ms/b)
<fg|gg>:            3 b            0 skpd (  0.0%)    0.002 s ( 0.735 ms/b)
<gg|gg>:            1 b            0 skpd (  0.0%)    0.002 s ( 1.607 ms/b)
Recanonicalizing the internal orbitals
Recanonicalizing the virtual orbitals
Time needed for Fock operator              ...            0.327 sec
Reference energy                           ...  -1340.425691665
Warning: for UHF the TrafoType has to be JK
Warning: for UHF the K(C)-option cannot be MO but must be AOX

-------------------------------
PARTIAL EXCHANGE TRANSFORMATION
-------------------------------

Transformation type                        ... two-operators
Generation of integrals (i,mue|j,nue)      ... ON
Generation of integrals (mue,kappa|nue,tau)... ON
Generation of integrals (i,mue|a,nue)      ... ON
Dimension of the basis                     ...  106
Number of internal alpha-MOs               ...   11 (  10-  20)
Number of internal beta-MOs                ...    8 (  10-  17)
Number of external alpha-MOs               ...   85 (  21- 105)
Number of external beta-MOs                ...   88 (  18- 105)
Pair cutoff                                ... 0.000e+00 Eh
Number of AO pairs in the trafo            ... 5671
Total Number of distinct AO pairs          ... 5671
Memory devoted for trafo                   ... 2500.0 MB 
Max. Number of MO pairs treated together   ... 29163      
Number Format for Storage                  ... Double (8 Byte)
Integral package used                      ... LIBINT

Starting integral evaluation:
    ... done with AO integral generation
Closing buffer AOK[aa] ( 0.00 GB; CompressionRatio= 0.99)
Closing buffer AOK[bb] ( 0.00 GB; CompressionRatio= 0.98)
Closing buffer AOK[ab] ( 0.00 GB; CompressionRatio= 0.98)
Closing buffer AOK[ba] ( 0.00 GB; CompressionRatio= 0.98)
Collecting buffer AOK 
Closing buffer IAAO1[aa] ( 0.00 GB; CompressionRatio= 1.00)
Closing buffer IAAO1[bb] ( 0.00 GB; CompressionRatio= 1.00)
Closing buffer IAAO1[ab] ( 0.00 GB; CompressionRatio= 1.00)
Closing buffer IAAO1[ba] ( 0.00 GB; CompressionRatio= 1.00)
Closing buffer IAAO2[aa] ( 0.00 GB; CompressionRatio= 1.00)
Closing buffer IAAO2[bb] ( 0.00 GB; CompressionRatio= 1.00)
Closing buffer IAAO2[ab] ( 0.00 GB; CompressionRatio= 1.00)
Closing buffer IAAO2[ba] ( 0.00 GB; CompressionRatio= 1.00)
Collecting buffer IAAO 
Closing buffer PRQS    ( 0.01 GB; CompressionRatio= 1.00)
Collecting buffer PRQS 
Number of alpha/alpha MO pairs in trafo    ...   66
Number of beta /beta  MO pairs in trafo    ...   36
Number of alpha/ beta MO pairs in trafo    ...   88
------------------------
SORTING OF (i,mue|j,nue)
------------------------

SORTING OF ALPHA/ALPHA PAIRS
IBATCH = 1 of  1
Closing buffer KAO[aa] ( 0.00 GB; CompressionRatio= 1.00)
Collecting buffer KAO 
SORTING OF BETA /BETA  PAIRS
IBATCH = 1 of  1
Closing buffer KAO[bb] ( 0.00 GB; CompressionRatio= 1.00)
Collecting buffer KAO 
SORTING OF ALPHA/BETA  PAIRS
IBATCH = 1 of  1
Closing buffer KAO[ab] ( 0.00 GB; CompressionRatio= 0.999866518354)
Collecting buffer KAO[ab] 
------------------------
SORTING OF (i,mue|a,nue)
------------------------

Number of alpha/alpha (i,a) pairs in trafo  ...  935
Number of beta /beta  (i,a) pairs in trafo  ...  704
Number of alpha/ beta (i,a) pairs in trafo  ...  968
Number of beta /alpha (i,a) pairs in trafo  ...  680
Setting up the alpha/alpha list             ... done
Setting up the beta /beta  list             ... done
Setting up the alpha/beta  list             ... done
Setting up the beta /alpha list             ... done
    ... Now sorting (i,mue|a,nue)integrals
    ... Integrals (i,b|a,c) will be made on the fly
SORTING OF ALPHA/ALPHA PAIRS
IBATCH = 1 of  1
Closing buffer IPAQ[aa]  0.00 GB; CompressionRatio= 1.00)
SORTING OF BETA /BETA  PAIRS
IBATCH = 1 of  1
Closing buffer IPAQ[bb]( 0.00 GB; CompressionRatio= 1.00)
SORTING OF ALPHA/BETA  PAIRS (NMatSort_ab=41)
IBATCH = 1 of  1
Closing buffer IPAQ[ab]( 0.00 GB; CompressionRatio= 1.00)
SORTING OF BETA/ALPHA  PAIRS
IBATCH = 1 of  1
Closing buffer IPAQ[ba]( 0.00 GB; CompressionRatio= 1.00)
N(AO-Batches) Done                         ...      8595 
N(AO-Batches) Skipped                      ...         0 
N(IJ)-pairs Skipped                        ...         0 
TOTAL TIME for half transformation         ...     1.386 sec
AO-integral generation                     ...     0.055 sec
Half transformation                        ...     0.014 sec
K-integral sorting                         ...     0.786 sec
<ss|**>: 
------------------------------
PARTIAL COULOMB TRANSFORMATION
------------------------------

Transformation type                        ... two-operators
Dimension of the basis                     ...  106
Number of internal alpha-MOs               ...   11 (10-20)
Number of internal beta-MOs                ...    8 (10-17)
Pair cutoff                                ... 0.000e+00 Eh
Number of AO pairs included in the trafo   ... 5671
Total Number of distinct AO pairs          ... 5671
Memory devoted for trafo                   ... 2500.0 MB 
Max. Number of MO pairs treated together   ... 57781      
Max. Number of MOs treated per batch       ...  545      
Number Format for Storage                  ... Double (8 Byte)
AO-integral source                         ... DIRECT
Integral package used                      ... LIBINT

Starting integral evaluation:
       31930 b        0 skpd     0.010 s (  0.000 ms/b)
<sp|**>: <sd|**>:        54075 b        0 skpd     0.019 s (  0.000 ms/b)
       38625 b        0 skpd     0.026 s (  0.001 ms/b)
<sf|**>:        16995 b        0 skpd     0.015 s (  0.001 ms/b)
<sg|**>:         5665 b        0 skpd     0.020 s (  0.004 ms/b)
<pp|**>:        27810 b        0 skpd     0.030 s (  0.001 ms/b)
<pd|**>:        35535 b        0 skpd     0.044 s (  0.001 ms/b)
<pf|**>:        15450 b        0 skpd     0.022 s (  0.001 ms/b)
<pg|**>:         5150 b        0 skpd     0.032 s (  0.006 ms/b)
<dd|**>:        14420 b        0 skpd     0.061 s (  0.004 ms/b)
<df|**>:        10815 b        0 skpd     0.026 s (  0.002 ms/b)
<dg|**>:         3605 b        0 skpd     0.039 s (  0.011 ms/b)
<ff|**>:         3090 b        0 skpd     0.017 s (  0.006 ms/b)
<fg|**>:         1545 b        0 skpd     0.025 s (  0.016 ms/b)
<gg|**>:          515 b        0 skpd     0.038 s (  0.073 ms/b)
Closing buffer AOJ[aa] ( 0.00 GB; CompressionRatio= 0.98)
Closing buffer AOJ[bb] ( 0.00 GB; CompressionRatio= 0.00)
Collecting buffer AOJ 
    ... done with AO integral generation
Number of Alpha-MO pairs included          ...   66
Number of Beta-MO pairs included           ...   36
    ... Now sorting integrals
SORTING ALPHA/ALPHA PAIRS
IBATCH = 1 of  1
Closing buffer JAO[aa] ( 0.00 GB; CompressionRatio= 1.00)
SORTING BETA/BETA PAIRS
IBATCH = 1 of  1
Closing buffer JAO[bb] ( 0.00 GB; CompressionRatio= 1.00)
Collecting buffer JAO 
TOTAL TIME for half transformation         ...     0.449 sec
AO-integral generation                     ...     0.415 sec
Half transformation                        ...     0.012 sec
J-integral sorting                         ...     0.015 sec

-------------------------- SECOND HALF TRANSFORMATION -------------------------
Formation of (ij|kl),(ij|ka), (ij|ab)      ... ok (     0.045 sec)
Formation of (ik|jl),(ik|ja), (ia|jb)      ... ok (     0.072 sec)


-----------------------
SPIN UNRESTRICTED GUESS
-----------------------

Entering MDCI_UHF_Guess, Tailored=0
Spin-components of the MP2 energy:
EMP2(aa)=     -0.116795653
EMP2(bb)=     -0.058306564
EMP2(ab)=     -0.370325312

Initial guess performed in     0.030 sec
E(0)                                       ...  -1340.425691665
E(MP2)                                     ...     -0.545427530
Initial E(tot)                             ...  -1340.971119194
<T|T>                                      ...      0.173186177
Number of pairs included                   ... 171

------------------------------------------------
                  UHF COUPLED CLUSTER ITERATIONS
------------------------------------------------

Number of amplitudes to be optimized       ...       966135

Iter       E(tot)           E(Corr)          Delta-E          Residual     Time      <S|S>**1/2
  0  -1340.971119194     -0.545427530      0.000000000      0.027103933    1.17      0.000000106
                           *** Turning on DIIS ***
  1  -1340.976309551     -0.550617886     -0.005190356      0.009587119    1.21      0.082796041
  2  -1340.992014358     -0.566322693     -0.015704808      0.011299607    1.34      0.101973256
  3  -1340.998732758     -0.573041094     -0.006718400      0.008543985    1.27      0.147097489
  4  -1341.005339596     -0.579647932     -0.006606838      0.006775359    1.30      0.200632507
  5  -1341.012527595     -0.586835930     -0.007187998      0.004325478    1.27      0.272646882
  6  -1341.014089775     -0.588398111     -0.001562181      0.002533376    1.33      0.297392830
  7  -1341.014971643     -0.589279978     -0.000881868      0.001573081    1.37      0.307504566
  8  -1341.015408849     -0.589717185     -0.000437206      0.000832595    1.32      0.313496799
  9  -1341.015492187     -0.589800523     -0.000083338      0.000534665    1.32      0.315080022
 10  -1341.015610642     -0.589918978     -0.000118455      0.000417718    1.28      0.316264934
 11  -1341.015517309     -0.589825644      0.000093333      0.000212836    1.27      0.315552605
 12  -1341.015565217     -0.589873552     -0.000047908      0.000135762    1.27      0.315796151
 13  -1341.015548615     -0.589856950      0.000016602      0.000068874    1.31      0.315654630
 14  -1341.015552612     -0.589860947     -0.000003997      0.000042421    1.33      0.315629347
 15  -1341.015555195     -0.589863530     -0.000002583      0.000026916    1.27      0.315616605
 16  -1341.015553761     -0.589862096      0.000001434      0.000019704    1.32      0.315588563
 17  -1341.015552803     -0.589861139      0.000000957      0.000009377    1.32      0.315568492
 18  -1341.015550951     -0.589859286      0.000001853      0.000005729    1.31      0.315546879
 19  -1341.015550253     -0.589858588      0.000000698      0.000003309    1.34      0.315538158
 20  -1341.015550437     -0.589858772     -0.000000184      0.000002092    1.27      0.315534701
 21  -1341.015550423     -0.589858758      0.000000014      0.000001389    1.30      0.315536076
 22  -1341.015550741     -0.589859076     -0.000000318      0.000000671    1.26      0.315538631
               --- The Coupled-Cluster iterations have converged ---

----------------------
COUPLED CLUSTER ENERGY
----------------------

E(0)                                       ...  -1340.425691665
E(CORR)                                    ...     -0.589859076
E(TOT)                                     ...  -1341.015550741
Singles norm <S|S>**1/2                    ...      0.315538631 ( 0.230096724, 0.085441907)  
T1 diagnostic                              ...      0.072389527                              

------------------
LARGEST AMPLITUDES
------------------
  15a-> 21a  -1a-> -1a       0.163946
  19a-> 26a  -1a-> -1a       0.156975
  18a-> 25a  -1a-> -1a       0.156975
  20a-> 21a  -1a-> -1a       0.142633
  19a-> 22a  -1a-> -1a       0.115134
  18a-> 23a  -1a-> -1a       0.115134
  15a-> 29a  -1a-> -1a       0.076741
  15b-> 30b  -1b-> -1b       0.069465
  17b-> 24b  -1b-> -1b       0.068073
  16b-> 25b  -1b-> -1b       0.068073
  18a-> 31a  -1a-> -1a       0.065197
  19a-> 30a  -1a-> -1a       0.065197
  15b-> 18b  -1b-> -1b       0.062821
  15b-> 21b  -1b-> -1b       0.059926
  19a-> 21a  15a-> 26a       0.055455
  19a-> 26a  15a-> 21a       0.055455

----------------------
UHF TRIPLES CORRECTION (Algorithm 1)
----------------------

Multiplier for the singles contribution    ...      1.000000000

SPIN-CASE Alpha-Alpha-Alpha:
10% done
20% done
30% done
40% done
50% done
60% done
70% done
80% done
90% done


SPIN-CASE Beta-Beta-Beta:
10% done
20% done
30% done
40% done
50% done
60% done
70% done
80% done
90% done


SPIN-CASE Alpha-Alpha-Beta:
10% done
20% done
30% done
40% done
50% done
60% done
70% done
80% done
90% done


SPIN-CASE Beta-Beta-Alpha:
10% done
20% done
30% done
40% done
50% done
60% done
70% done
80% done
90% done


Triples Correction (T)                     ...     -0.036047455
    alpha-alpha-alpha ... -0.003850647 ( 10.7%)
    alpha-alpha-beta  ... -0.020718444 ( 57.5%)
    alpha-beta -beta  ... -0.010994221 ( 30.5%)
    beta -beta -beta  ... -0.000484142 (  1.3%)
Scaling of triples based on CCSD energies (Peterson et al. Molecular Physics 113, 1551 (2015))
E(T*) = f*E(T) where f = E(F12-CCSD)/E(CCSD) 
f = CCSD (with F12)/ CCSD (without F12)    ...      1.000000000
Scaled triples correction (T)              ...     -0.036047455

Final correlation energy                   ...     -0.625906531
E(CCSD)                                    ...  -1341.015550741
E(CCSD(T))                                 ...  -1341.051598195



        !!!!!!!!!!!!!!!!!!!!!!!!!!!!!!!!!!!!!!!!!!!!!!!!!!!!!!!!!!!!!!!!!!!!!!!!!! 
        !  Warning: Densities are linearized densities                           !
        !!!!!!!!!!!!!!!!!!!!!!!!!!!!!!!!!!!!!!!!!!!!!!!!!!!!!!!!!!!!!!!!!!!!!!!!!! 

NORM  =      1.437431328 sqrt=     1.198929242
W(HF) =      0.695685408
------------------------------------------------------------------------------
                           ORCA POPULATION ANALYSIS
------------------------------------------------------------------------------
Input electron density              ... 18_VS.mdcip
Input spin density                  ... 18_VS.mdcir
BaseName (.gbw .S,...)              ... 18_VS

                    ********************************
                    * MULLIKEN POPULATION ANALYSIS *
                    ********************************

------------------------------------------
MULLIKEN ATOMIC CHARGES AND SPIN DENSITIES
------------------------------------------
   0 V :    0.289189    3.515393
   1 S :   -0.289189   -0.515393
Sum of atomic charges       :   -0.0000000
Sum of atomic spin densities:    3.0000000

---------------------------------------------------
MULLIKEN REDUCED ORBITAL CHARGES AND SPIN DENSITIES
---------------------------------------------------
CHARGE
  0 V s       :     6.656322  s :     6.656322
      pz      :     4.042232  p :    12.161901
      px      :     4.059835
      py      :     4.059835
      dz2     :     0.916355  d :     3.849301
      dxz     :     0.470740
      dyz     :     0.470740
      dx2y2   :     0.995732
      dxy     :     0.995732
      f0      :     0.006792  f :     0.039830
      f+1     :     0.007993
      f-1     :     0.007993
      f+2     :     0.003878
      f-2     :     0.003878
      f+3     :     0.004648
      f-3     :     0.004648
      g0      :     0.000587  g :     0.003456
      g+1     :     0.000539
      g-1     :     0.000539
      g+2     :     0.000289
      g-2     :     0.000289
      g+3     :     0.000273
      g-3     :     0.000273
      g+4     :     0.000334
      g-4     :     0.000334
  1 S s       :     5.865893  s :     5.865893
      pz      :     3.420126  p :    10.268338
      px      :     3.424106
      py      :     3.424106
      dz2     :     0.032410  d :     0.138011
      dxz     :     0.032474
      dyz     :     0.032474
      dx2y2   :     0.020326
      dxy     :     0.020326
      f0      :     0.004108  f :     0.016946
      f+1     :     0.003198
      f-1     :     0.003198
      f+2     :     0.001874
      f-2     :     0.001874
      f+3     :     0.001346
      f-3     :     0.001346

SPIN
  0 V s       :     0.508217  s :     0.508217
      pz      :     0.024545  p :     0.069058
      px      :     0.022256
      py      :     0.022256
      dz2     :     0.608765  d :     2.922301
      dxz     :     0.177716
      dyz     :     0.177716
      dx2y2   :     0.979052
      dxy     :     0.979052
      f0      :     0.001612  f :     0.014522
      f+1     :     0.001031
      f-1     :     0.001031
      f+2     :     0.001732
      f-2     :     0.001732
      f+3     :     0.003692
      f-3     :     0.003692
      g0      :     0.000133  g :     0.001295
      g+1     :     0.000101
      g-1     :     0.000101
      g+2     :     0.000103
      g-2     :     0.000103
      g+3     :     0.000140
      g-3     :     0.000140
      g+4     :     0.000236
      g-4     :     0.000236
  1 S s       :    -0.018961  s :    -0.018961
      pz      :    -0.132538  p :    -0.502125
      px      :    -0.184793
      py      :    -0.184793
      dz2     :     0.001535  d :     0.004508
      dxz     :     0.001487
      dyz     :     0.001487
      dx2y2   :    -0.000000
      dxy     :    -0.000000
      f0      :     0.000749  f :     0.001185
      f+1     :     0.000222
      f-1     :     0.000222
      f+2     :     0.000113
      f-2     :     0.000113
      f+3     :    -0.000118
      f-3     :    -0.000118


                     *******************************
                     * LOEWDIN POPULATION ANALYSIS *
                     *******************************

-----------------------------------------
LOEWDIN ATOMIC CHARGES AND SPIN DENSITIES
-----------------------------------------
   0 V :   -0.284636    3.392220
   1 S :    0.284636   -0.392220

--------------------------------------------------
LOEWDIN REDUCED ORBITAL CHARGES AND SPIN DENSITIES
--------------------------------------------------
CHARGE
  0 V s       :     6.660291  s :     6.660291
      pz      :     4.209758  p :    12.374977
      px      :     4.082610
      py      :     4.082610
      dz2     :     1.091063  d :     4.165762
      dxz     :     0.542563
      dyz     :     0.542563
      dx2y2   :     0.994786
      dxy     :     0.994786
      f0      :     0.027268  f :     0.079004
      f+1     :     0.017251
      f-1     :     0.017251
      f+2     :     0.003969
      f-2     :     0.003969
      f+3     :     0.004648
      f-3     :     0.004648
      g0      :     0.001247  g :     0.004602
      g+1     :     0.000777
      g-1     :     0.000777
      g+2     :     0.000294
      g-2     :     0.000294
      g+3     :     0.000274
      g-3     :     0.000274
      g+4     :     0.000334
      g-4     :     0.000334
  1 S s       :     5.457510  s :     5.457510
      pz      :     3.424013  p :    10.064449
      px      :     3.320218
      py      :     3.320218
      dz2     :     0.061446  d :     0.166817
      dxz     :     0.031833
      dyz     :     0.031833
      dx2y2   :     0.020853
      dxy     :     0.020853
      f0      :     0.012231  f :     0.026589
      f+1     :     0.003634
      f-1     :     0.003634
      f+2     :     0.002199
      f-2     :     0.002199
      f+3     :     0.001346
      f-3     :     0.001346

SPIN
  0 V s       :     0.454434  s :     0.454434
      pz      :     0.016340  p :     0.045401
      px      :     0.014530
      py      :     0.014530
      dz2     :     0.602154  d :     2.883075
      dxz     :     0.162528
      dyz     :     0.162528
      dx2y2   :     0.977933
      dxy     :     0.977933
      f0      :    -0.000732  f :     0.008233
      f+1     :    -0.000955
      f-1     :    -0.000955
      f+2     :     0.001746
      f-2     :     0.001746
      f+3     :     0.003692
      f-3     :     0.003692
      g0      :     0.000024  g :     0.001076
      g+1     :     0.000046
      g-1     :     0.000046
      g+2     :     0.000104
      g-2     :     0.000104
      g+3     :     0.000140
      g-3     :     0.000140
      g+4     :     0.000236
      g-4     :     0.000236
  1 S s       :    -0.002056  s :    -0.002056
      pz      :    -0.080002  p :    -0.403728
      px      :    -0.161863
      py      :    -0.161863
      dz2     :     0.001754  d :     0.009589
      dxz     :     0.003153
      dyz     :     0.003153
      dx2y2   :     0.000764
      dxy     :     0.000764
      f0      :     0.002141  f :     0.003975
      f+1     :     0.000581
      f-1     :     0.000581
      f+2     :     0.000454
      f-2     :     0.000454
      f+3     :    -0.000117
      f-3     :    -0.000117


                      *****************************
                      * MAYER POPULATION ANALYSIS *
                      *****************************

  NA   - Mulliken gross atomic population
  ZA   - Total nuclear charge
  QA   - Mulliken gross atomic charge
  VA   - Mayer's total valence
  BVA  - Mayer's bonded valence
  FA   - Mayer's free valence

  ATOM       NA         ZA         QA         VA         BVA        FA
  0 V     22.7108    23.0000     0.2892     5.9371     2.2102     3.7268
  1 S     16.2892    16.0000    -0.2892     3.0485     2.2102     0.8383

  Mayer bond orders larger than 0.100000
B(  0-V ,  1-S ) :   2.2102 



------------------------------------------------------------------------------- 
                                     TIMINGS                                   
------------------------------------------------------------------------------- 


Total execution time                   ...       34.888 sec

Fock Matrix Formation                  ...        0.327 sec (  0.9%)
Initial Guess                          ...        0.030 sec (  0.1%)
DIIS Solver                            ...        2.231 sec (  6.4%)
State Vector Update                    ...        0.096 sec (  0.3%)
Sigma-vector construction              ...       27.429 sec ( 78.6%)
  <0|H|D>                              ...        0.005 sec (  0.0% of sigma)
  <D|H|D>(0-ext Fock)                  ...        0.038 sec (  0.1% of sigma)
  <D|H|D>(0-ext)                       ...        0.158 sec (  0.6% of sigma)
  <D|H|D>(2-ext Fock)                  ...        0.012 sec (  0.0% of sigma)
  <D|H|D>(2-ext)                       ...        0.522 sec (  1.9% of sigma)
  <D|H|D>(4-ext)                       ...       15.697 sec ( 57.2% of sigma)
  <S|H|0>                              ...        1.249 sec (  4.6% of sigma)
  <S|H|S>                              ...        0.003 sec (  0.0% of sigma)
  <S|H|D>(1-ext)                       ...        0.010 sec (  0.0% of sigma)
  <D|H|S>(1-ext)                       ...        0.155 sec (  0.6% of sigma)
  Fock-dressing                        ...        4.215 sec ( 15.4% of sigma)
  (ik|jl)-dressing                     ...        0.203 sec (  0.7% of sigma)
  (ij|ab),(ia|jb)-dressing             ...        4.099 sec ( 14.9% of sigma)
  Pair energies                        ...        0.011 sec (  0.0% of sigma)
Total Time for computing (T)           ...        2.331 sec (  6.7% of ALL)
  I/O of integral and amplitudes       ...        0.410 sec ( 17.6% of (T))
  External N**7 contributions          ...        0.674 sec ( 28.9% of (T))
  Internal N**7 contributions          ...        0.335 sec ( 14.4% of (T))
  N**6 triples energy contributions    ...        0.875 sec ( 37.5% of (T))

----- Orbital basis set information -----
Your calculation utilizes the basis: def2-QZVPP
   F. Weigend and R. Ahlrichs, Phys. Chem. Chem. Phys. 7, 3297 (2005).

----- AuxJ basis set information -----
Your calculation utilizes the auxiliary basis: def2/J
   F. Weigend, Phys. Chem. Chem. Phys. 8, 1057 (2006).

----- AuxC basis set information -----
Your calculation utilizes the auxiliary basis: def2-QZVPP/C
  H-La, Hf-Rn : A. Hellweg, C. Hattig, S. Hofener and W. Klopper, Theor. Chem. Acc. 117, 587 (2007).
        Ce-Lu : J. Chmela and M. E. Harding, Mol. Phys. (2018).

----- AuxJK basis set information -----
Your calculation utilizes the auxiliary basis: def2/JK
   H-Ba, Hf-Rn: F. Weigend, J. Comput. Chem. 29, 167 (2008).

All done

                     -----------------------------------------
                     Extrapolated Energy 2 Basis=  def2-QZVPP
                     -----------------------------------------

---------------------------------
CARTESIAN COORDINATES (ANGSTROEM)
---------------------------------
  V      0.000000    0.000000   -0.027842
  S      0.000000    0.000000    2.027842

----------------------------
CARTESIAN COORDINATES (A.U.)
----------------------------
  NO LB      ZA    FRAG     MASS         X           Y           Z
   0 V    23.0000    0    50.940    0.000000    0.000000   -0.052613
   1 S    16.0000    0    32.060    0.000000    0.000000    3.832065

--------------------------------
INTERNAL COORDINATES (ANGSTROEM)
--------------------------------
 V      0   0   0     0.000000000000     0.00000000     0.00000000
 S      1   0   0     2.055683150048     0.00000000     0.00000000

---------------------------
INTERNAL COORDINATES (A.U.)
---------------------------
 V      0   0   0     0.000000000000     0.00000000     0.00000000
 S      1   0   0     3.884678171706     0.00000000     0.00000000

---------------------
BASIS SET INFORMATION
---------------------
There are 2 groups of distinct atoms

 Group   1 Type V   : 24s18p9d3f2g contracted to 11s6p5d3f2g pattern {114111111111/951111/51111/111/11}
 Group   2 Type S   : 20s14p4d2f1g contracted to 9s6p4d2f1g pattern {1031111111/821111/1111/11/1}

Atom   0V    basis set group =>   1
Atom   1S    basis set group =>   2
---------------------------------
AUXILIARY/J BASIS SET INFORMATION
---------------------------------
There are 2 groups of distinct atoms

 Group   1 Type V   : 19s5p5d3f3g contracted to 8s5p5d2f3g pattern {121111111/11111/11111/21/111}
 Group   2 Type S   : 14s5p5d2f1g contracted to 8s4p3d1f1g pattern {71111111/2111/311/2/1}

Atom   0V    basis set group =>   1
Atom   1S    basis set group =>   2
---------------------------------
AUXILIARY/C BASIS SET INFORMATION
---------------------------------
There are 2 groups of distinct atoms

 Group   1 Type V   : 15s13p11d8f7g5h2i contracted to 15s13p11d8f7g5h2i pattern {111111111111111/1111111111111/11111111111/11111111/1111111/11111/11}
 Group   2 Type S   : 12s10p9d6f3g1h contracted to 12s10p9d6f3g1h pattern {111111111111/1111111111/111111111/111111/111/1}

Atom   0V    basis set group =>   1
Atom   1S    basis set group =>   2
----------------------------------
AUXILIARY/JK BASIS SET INFORMATION
----------------------------------
There are 2 groups of distinct atoms

 Group   1 Type V   : 19s14p12d10f7g3h1i contracted to 16s13p11d9f5g3h1i pattern {4111111111111111/2111111111111/21111111111/211111111/31111/111/1}
 Group   2 Type S   : 16s12p10d4f1g contracted to 13s11p9d4f1g pattern {4111111111111/21111111111/211111111/1111/1}

Atom   0V    basis set group =>   1
Atom   1S    basis set group =>   2

[...]
 14  -1341.082725130     -0.628049113     -0.000003686      0.000039827    4.88      0.314296947
 15  -1341.082727731     -0.628051714     -0.000002600      0.000026341    4.88      0.314279374
 16  -1341.082726577     -0.628050560      0.000001154      0.000019916    4.86      0.314252324
 17  -1341.082725865     -0.628049848      0.000000712      0.000009384    4.92      0.314229564
 18  -1341.082724237     -0.628048220      0.000001628      0.000005633    4.90      0.314207368
 19  -1341.082723565     -0.628047549      0.000000672      0.000003278    4.93      0.314198336
 20  -1341.082723653     -0.628047636     -0.000000088      0.000001998    4.96      0.314193840
 21  -1341.082723575     -0.628047558      0.000000078      0.000001233    4.89      0.314194428
 22  -1341.082723848     -0.628047831     -0.000000273      0.000000577    4.90      0.314196634
               --- The Coupled-Cluster iterations have converged ---

----------------------
COUPLED CLUSTER ENERGY
----------------------

E(0)                                       ...  -1340.454676017
E(CORR)                                    ...     -0.628047831
E(TOT)                                     ...  -1341.082723848
Singles norm <S|S>**1/2                    ...      0.314196634 ( 0.228931205, 0.085265429)  
T1 diagnostic                              ...      0.072081651                              

------------------
LARGEST AMPLITUDES
------------------
  20a-> 21a  -1a-> -1a       0.156975
  15a-> 21a  -1a-> -1a       0.147945
  18a-> 30a  -1a-> -1a       0.124040
  19a-> 31a  -1a-> -1a       0.124040
  18a-> 22a  -1a-> -1a       0.087047
  19a-> 23a  -1a-> -1a       0.087047
  19a-> 26a  -1a-> -1a       0.074420
  18a-> 27a  -1a-> -1a       0.074420
  15a-> 24a  -1a-> -1a       0.065845
  18a-> 31a  -1a-> -1a       0.064418
  19a-> 30a  -1a-> -1a       0.064418
  17b-> 31b  -1b-> -1b       0.059120
  16b-> 32b  -1b-> -1b       0.059120
  15a-> 32a  -1a-> -1a       0.058341
  15b-> 18b  -1b-> -1b       0.057663
  15b-> 36b  -1b-> -1b       0.057458

----------------------
UHF TRIPLES CORRECTION (Algorithm 1)
----------------------

Multiplier for the singles contribution    ...      1.000000000

SPIN-CASE Alpha-Alpha-Alpha:
10% done
20% done
30% done
40% done
50% done
60% done
70% done
80% done
90% done


SPIN-CASE Beta-Beta-Beta:
10% done
20% done
30% done
40% done
50% done
60% done
70% done
80% done
90% done


SPIN-CASE Alpha-Alpha-Beta:
10% done
20% done
30% done
40% done
50% done
60% done
70% done
80% done
90% done


SPIN-CASE Beta-Beta-Alpha:
10% done
20% done
30% done
40% done
50% done
60% done
70% done
80% done
90% done


Triples Correction (T)                     ...     -0.039741583
    alpha-alpha-alpha ... -0.004160461 ( 10.5%)
    alpha-alpha-beta  ... -0.022629125 ( 56.9%)
    alpha-beta -beta  ... -0.012400130 ( 31.2%)
    beta -beta -beta  ... -0.000551868 (  1.4%)
Scaling of triples based on CCSD energies (Peterson et al. Molecular Physics 113, 1551 (2015))
E(T*) = f*E(T) where f = E(F12-CCSD)/E(CCSD) 
f = CCSD (with F12)/ CCSD (without F12)    ...      1.000000000
Scaled triples correction (T)              ...     -0.039741583

Final correlation energy                   ...     -0.667789415
E(CCSD)                                    ...  -1341.082723848
E(CCSD(T))                                 ...  -1341.122465432



        !!!!!!!!!!!!!!!!!!!!!!!!!!!!!!!!!!!!!!!!!!!!!!!!!!!!!!!!!!!!!!!!!!!!!!!!!! 
        !  Warning: Densities are linearized densities                           !
        !!!!!!!!!!!!!!!!!!!!!!!!!!!!!!!!!!!!!!!!!!!!!!!!!!!!!!!!!!!!!!!!!!!!!!!!!! 

NORM  =      1.436674502 sqrt=     1.198613575
W(HF) =      0.696051888
------------------------------------------------------------------------------
                           ORCA POPULATION ANALYSIS
------------------------------------------------------------------------------
Input electron density              ... 18_VS.mdcip
Input spin density                  ... 18_VS.mdcir
BaseName (.gbw .S,...)              ... 18_VS

                    ********************************
                    * MULLIKEN POPULATION ANALYSIS *
                    ********************************

------------------------------------------
MULLIKEN ATOMIC CHARGES AND SPIN DENSITIES
------------------------------------------
   0 V :    0.329584    3.476640
   1 S :   -0.329584   -0.476640
Sum of atomic charges       :   -0.0000000
Sum of atomic spin densities:    3.0000000

---------------------------------------------------
MULLIKEN REDUCED ORBITAL CHARGES AND SPIN DENSITIES
---------------------------------------------------
CHARGE
  0 V s       :     6.638678  s :     6.638678
      pz      :     4.040880  p :    12.146970
      px      :     4.053045
      py      :     4.053045
      dz2     :     0.927301  d :     3.829627
      dxz     :     0.456706
      dyz     :     0.456706
      dx2y2   :     0.994457
      dxy     :     0.994457
      f0      :     0.008733  f :     0.047134
      f+1     :     0.009836
      f-1     :     0.009836
      f+2     :     0.004309
      f-2     :     0.004309
      f+3     :     0.005056
      f-3     :     0.005056
      g0      :     0.001388  g :     0.008007
      g+1     :     0.001828
      g-1     :     0.001828
      g+2     :     0.000554
      g-2     :     0.000554
      g+3     :     0.000446
      g-3     :     0.000446
      g+4     :     0.000481
      g-4     :     0.000481
  1 S s       :     5.896901  s :     5.896901
      pz      :     3.390006  p :    10.261397
      px      :     3.435695
      py      :     3.435695
      dz2     :     0.032139  d :     0.144474
      dxz     :     0.034763
      dyz     :     0.034763
      dx2y2   :     0.021405
      dxy     :     0.021405
      f0      :     0.005133  f :     0.023360
      f+1     :     0.004585
      f-1     :     0.004585
      f+2     :     0.002798
      f-2     :     0.002798
      f+3     :     0.001731
      f-3     :     0.001731
      g0      :     0.000810  g :     0.003453
      g+1     :     0.000551
      g-1     :     0.000551
      g+2     :     0.000342
      g-2     :     0.000342
      g+3     :     0.000233
      g-3     :     0.000233
      g+4     :     0.000195
      g-4     :     0.000195

SPIN
  0 V s       :     0.493636  s :     0.493636
      pz      :     0.013286  p :     0.057103
      px      :     0.021908
      py      :     0.021908
      dz2     :     0.618238  d :     2.909815
      dxz     :     0.167856
      dyz     :     0.167856
      dx2y2   :     0.977932
      dxy     :     0.977932
      f0      :     0.001844  f :     0.014588
      f+1     :     0.000544
      f-1     :     0.000544
      f+2     :     0.001868
      f-2     :     0.001868
      f+3     :     0.003960
      f-3     :     0.003960
      g0      :     0.000190  g :     0.001499
      g+1     :    -0.000019
      g-1     :    -0.000019
      g+2     :     0.000153
      g-2     :     0.000153
      g+3     :     0.000201
      g-3     :     0.000201
      g+4     :     0.000318
      g-4     :     0.000318
  1 S s       :    -0.009579  s :    -0.009579
      pz      :    -0.126463  p :    -0.476888
      px      :    -0.175212
      py      :    -0.175212
      dz2     :     0.001372  d :     0.006818
      dxz     :     0.002261
      dyz     :     0.002261
      dx2y2   :     0.000462
      dxy     :     0.000462
      f0      :     0.000765  f :     0.002461
      f+1     :     0.000446
      f-1     :     0.000446
      f+2     :     0.000529
      f-2     :     0.000529
      f+3     :    -0.000127
      f-3     :    -0.000127
      g0      :     0.000230  g :     0.000548
      g+1     :     0.000072
      g-1     :     0.000072
      g+2     :     0.000081
      g-2     :     0.000081
      g+3     :     0.000007
      g-3     :     0.000007
      g+4     :     0.000000
      g-4     :     0.000000


                     *******************************
                     * LOEWDIN POPULATION ANALYSIS *
                     *******************************

-----------------------------------------
LOEWDIN ATOMIC CHARGES AND SPIN DENSITIES
-----------------------------------------
   0 V :   -0.304498    3.323362
   1 S :    0.304498   -0.323362

--------------------------------------------------
LOEWDIN REDUCED ORBITAL CHARGES AND SPIN DENSITIES
--------------------------------------------------
CHARGE
  0 V s       :     6.603949  s :     6.603949
      pz      :     4.200108  p :    12.361171
      px      :     4.080532
      py      :     4.080532
      dz2     :     1.106304  d :     4.168343
      dxz     :     0.540131
      dyz     :     0.540131
      dx2y2   :     0.990888
      dxy     :     0.990888
      f0      :     0.048395  f :     0.143225
      f+1     :     0.037708
      f-1     :     0.037708
      f+2     :     0.004650
      f-2     :     0.004650
      f+3     :     0.005057
      f-3     :     0.005057
      g0      :     0.008660  g :     0.027811
      g+1     :     0.007973
      g-1     :     0.007973
      g+2     :     0.000672
      g-2     :     0.000672
      g+3     :     0.000449
      g-3     :     0.000449
      g+4     :     0.000481
      g-4     :     0.000481
  1 S s       :     5.407649  s :     5.407649
      pz      :     3.426031  p :     9.998397
      px      :     3.286183
      py      :     3.286183
      dz2     :     0.084816  d :     0.197592
      dxz     :     0.033950
      dyz     :     0.033950
      dx2y2   :     0.022438
      dxy     :     0.022438
      f0      :     0.048828  f :     0.080253
      f+1     :     0.009371
      f-1     :     0.009371
      f+2     :     0.004614
      f-2     :     0.004614
      f+3     :     0.001727
      f-3     :     0.001727
      g0      :     0.007229  g :     0.011609
      g+1     :     0.001160
      g-1     :     0.001160
      g+2     :     0.000602
      g-2     :     0.000602
      g+3     :     0.000233
      g-3     :     0.000233
      g+4     :     0.000195
      g-4     :     0.000195

SPIN
  0 V s       :     0.427518  s :     0.427518
      pz      :     0.012956  p :     0.037385
      px      :     0.012215
      py      :     0.012215
      dz2     :     0.609127  d :     2.858894
      dxz     :     0.150738
      dyz     :     0.150738
      dx2y2   :     0.974145
      dxy     :     0.974145
      f0      :    -0.000909  f :     0.001153
      f+1     :    -0.004899
      f-1     :    -0.004899
      f+2     :     0.001973
      f-2     :     0.001973
      f+3     :     0.003957
      f-3     :     0.003957
      g0      :    -0.000580  g :    -0.001588
      g+1     :    -0.001177
      g-1     :    -0.001177
      g+2     :     0.000154
      g-2     :     0.000154
      g+3     :     0.000200
      g-3     :     0.000200
      g+4     :     0.000318
      g-4     :     0.000318
  1 S s       :     0.002072  s :     0.002072
      pz      :    -0.063579  p :    -0.352486
      px      :    -0.144454
      py      :    -0.144454
      dz2     :     0.002254  d :     0.014003
      dxz     :     0.003893
      dyz     :     0.003893
      dx2y2   :     0.001981
      dxy     :     0.001981
      f0      :     0.003384  f :     0.010702
      f+1     :     0.001350
      f-1     :     0.001350
      f+2     :     0.002434
      f-2     :     0.002434
      f+3     :    -0.000125
      f-3     :    -0.000125
      g0      :     0.001276  g :     0.002347
      g+1     :     0.000189
      g-1     :     0.000189
      g+2     :     0.000339
      g-2     :     0.000339
      g+3     :     0.000007
      g-3     :     0.000007
      g+4     :     0.000000
      g-4     :     0.000000


                      *****************************
                      * MAYER POPULATION ANALYSIS *
                      *****************************

  NA   - Mulliken gross atomic population
  ZA   - Total nuclear charge
  QA   - Mulliken gross atomic charge
  VA   - Mayer's total valence
  BVA  - Mayer's bonded valence
  FA   - Mayer's free valence

  ATOM       NA         ZA         QA         VA         BVA        FA
  0 V     22.6704    23.0000     0.3296     5.9302     2.2179     3.7123
  1 S     16.3296    16.0000    -0.3296     3.0566     2.2179     0.8386

  Mayer bond orders larger than 0.100000
B(  0-V ,  1-S ) :   2.2179 



------------------------------------------------------------------------------- 
                                     TIMINGS                                   
------------------------------------------------------------------------------- 


Total execution time                   ...      136.402 sec

Fock Matrix Formation                  ...        1.094 sec (  0.8%)
Initial Guess                          ...        0.082 sec (  0.1%)
DIIS Solver                            ...        6.075 sec (  4.5%)
State Vector Update                    ...        0.253 sec (  0.2%)
Sigma-vector construction              ...      103.484 sec ( 75.9%)
  <0|H|D>                              ...        0.014 sec (  0.0% of sigma)
  <D|H|D>(0-ext Fock)                  ...        0.116 sec (  0.1% of sigma)
  <D|H|D>(0-ext)                       ...        0.510 sec (  0.5% of sigma)
  <D|H|D>(2-ext Fock)                  ...        0.042 sec (  0.0% of sigma)
  <D|H|D>(2-ext)                       ...        1.911 sec (  1.8% of sigma)
  <D|H|D>(4-ext)                       ...       63.817 sec ( 61.7% of sigma)
  <S|H|0>                              ...        4.657 sec (  4.5% of sigma)
  <S|H|S>                              ...        0.006 sec (  0.0% of sigma)
  <S|H|D>(1-ext)                       ...        0.025 sec (  0.0% of sigma)
  <D|H|S>(1-ext)                       ...        0.421 sec (  0.4% of sigma)
  Fock-dressing                        ...       15.280 sec ( 14.8% of sigma)
  (ik|jl)-dressing                     ...        0.594 sec (  0.6% of sigma)
  (ij|ab),(ia|jb)-dressing             ...       13.325 sec ( 12.9% of sigma)
  Pair energies                        ...        0.019 sec (  0.0% of sigma)
Total Time for computing (T)           ...       15.262 sec ( 11.2% of ALL)
  I/O of integral and amplitudes       ...        2.615 sec ( 17.1% of (T))
  External N**7 contributions          ...        5.260 sec ( 34.5% of (T))
  Internal N**7 contributions          ...        1.660 sec ( 10.9% of (T))
  N**6 triples energy contributions    ...        5.513 sec ( 36.1% of (T))


-------------------
EXTRAPOLATED ENERGY
-------------------


-----------------------------------------------------------------
                      EP1 - MDCI extrapolation:
-----------------------------------------------------------------
NOTE: We use as reference SCF energy, for the extrapolation, the one from the MDCI module and not the one 
from the SCF calculation. In case the first step is a DFT calculation these two might be different.

NOTE: For the SCF part we extrapolate based on the scheme proposed in J. Chem. Phys. 2008, 129, 184116
using the exponents from J. Chem. Theory Comput., 7, 33-43 (2011)

NOTE: For the correlation part we extrapolate based on the scheme proposed in J. Chem. Phys. 1997, 106, 9639
using the exponents from J. Chem. Theory Comput., 7, 33-43 (2011)


Alpha(3/4)     :  7.880 (SCF Extrapolation)
Beta(3/4)      :  2.970 (correlation extrapolation)

SCF energy with basis def2-TZVPP:                     -1340.425691665
SCF energy with basis def2-QZVPP:                     -1340.454676017
Extrapolated CBS SCF energy (3/4) :                   -1340.458668284 (-0.003992267) 

MDCI energy with basis def2-TZVPP:                       -0.625906531
MDCI energy with basis def2-QZVPP:                       -0.667789415
Extrapolated CBS correlation energy (3/4) :              -0.698813750 (-0.031024335)

Estimated CBS total energy (3/4) :                    -1341.157482034



-------------------------   --------------------
FINAL SINGLE POINT ENERGY     -1341.157482033642
-------------------------   --------------------


                            ***************************************
                            *     ORCA property calculations      *
                            ***************************************

                                    ---------------------
                                    Active property flags
                                    ---------------------
   (+) Dipole Moment


------------------------------------------------------------------------------
                       ORCA ELECTRIC PROPERTIES CALCULATION
------------------------------------------------------------------------------

Dipole Moment Calculation                       ... on
Quadrupole Moment Calculation                   ... off
Polarizability Calculation                      ... off
GBWName                                         ... 18_VS.gbw
Electron density file                           ... 18_VS.scfp
The origin for moment calculation is the CENTER OF MASS  = ( 0.000000,  0.000000  1.447902)

-------------
DIPOLE MOMENT
-------------
                                X             Y             Z
Electronic contribution:     -0.00000      -0.00000      -6.06647
Nuclear contribution   :      0.00000       0.00000       3.63475
                        -----------------------------------------
Total Dipole Moment    :     -0.00000      -0.00000      -2.43172
                        -----------------------------------------
Magnitude (a.u.)       :      2.43172
Magnitude (Debye)      :      6.18095



--------------------
Rotational spectrum 
--------------------
 
Rotational constants in cm-1:     0.000000     0.202740     0.202740 
Rotational constants in MHz :     0.000000  6078.002656  6078.002656 

 Dipole components along the rotational axes: 
x,y,z [a.u.] :    -2.431722    -0.000000    -0.000000 
x,y,z [Debye]:    -6.180947    -0.000000    -0.000000 

 

                           *** MDCI DENSITY ***

------------------------------------------------------------------------------
                       ORCA ELECTRIC PROPERTIES CALCULATION
------------------------------------------------------------------------------

Dipole Moment Calculation                       ... on
Quadrupole Moment Calculation                   ... off
Polarizability Calculation                      ... off
GBWName                                         ... 18_VS.gbw
Electron density file                           ... 18_VS.mdcip
The origin for moment calculation is the CENTER OF MASS  = ( 0.000000,  0.000000  1.447902)

-------------
DIPOLE MOMENT
-------------
                                X             Y             Z
Electronic contribution:     -0.00000      -0.00000      -5.64833
Nuclear contribution   :      0.00000       0.00000       3.63475
                        -----------------------------------------
Total Dipole Moment    :     -0.00000      -0.00000      -2.01358
                        -----------------------------------------
Magnitude (a.u.)       :      2.01358
Magnitude (Debye)      :      5.11811



--------------------
Rotational spectrum 
--------------------
 
Rotational constants in cm-1:     0.000000     0.202740     0.202740 
Rotational constants in MHz :     0.000000  6078.002656  6078.002656 

 Dipole components along the rotational axes: 
x,y,z [a.u.] :    -2.013578    -0.000000    -0.000000 
x,y,z [Debye]:    -5.118108    -0.000000    -0.000000 

 

Timings for individual modules:

Sum of individual times         ...      194.368 sec (=   3.239 min)
GTO integral calculation        ...        1.687 sec (=   0.028 min)   0.9 %
SCF iterations                  ...       19.582 sec (=   0.326 min)  10.1 %
MDCI module                     ...      173.099 sec (=   2.885 min)  89.1 %
                             ****ORCA TERMINATED NORMALLY****
TOTAL RUN TIME: 0 days 0 hours 3 minutes 15 seconds 285 msec
