
                                 *****************
                                 * O   R   C   A *
                                 *****************

           --- An Ab Initio, DFT and Semiempirical electronic structure package ---

                  #######################################################
                  #                        -***-                        #
                  #          Department of theory and spectroscopy      #
                  #               Directorship: Frank Neese             #
                  #        Max Planck Institute fuer Kohlenforschung    #
                  #                Kaiser Wilhelm Platz 1               #
                  #                 D-45470 Muelheim/Ruhr               #
                  #                      Germany                        #
                  #                                                     #
                  #                  All rights reserved                #
                  #                        -***-                        #
                  #######################################################


                         Program Version 4.2.0 -  RELEASE  -


 With contributions from (in alphabetic order):
   Daniel Aravena         : Magnetic Suceptibility
   Michael Atanasov       : Ab Initio Ligand Field Theory (pilot matlab implementation)
   Alexander A. Auer      : GIAO ZORA, VPT2
   Ute Becker             : Parallelization
   Giovanni Bistoni       : ED, misc. LED, open-shell LED, HFLED
   Martin Brehm           : Molecular dynamics
   Dmytro Bykov           : SCF Hessian
   Vijay G. Chilkuri      : MRCI spin determinant printing, contributions to CSF-ICE
   Dipayan Datta          : RHF DLPNO-CCSD density
   Achintya Kumar Dutta   : EOM-CC, STEOM-CC
   Dmitry Ganyushin       : Spin-Orbit,Spin-Spin,Magnetic field MRCI
   Miquel Garcia          : C-PCM Hessian, Gaussian charge scheme
   Yang Guo               : DLPNO-NEVPT2, CIM, IAO-localization
   Andreas Hansen         : Spin unrestricted coupled pair/coupled cluster methods
   Benjamin Helmich-Paris : CASSCF linear response (MC-RPA)
   Lee Huntington         : MR-EOM, pCC
   Robert Izsak           : Overlap fitted RIJCOSX, COSX-SCS-MP3, EOM
   Christian Kollmar      : KDIIS, OOCD, Brueckner-CCSD(T), CCSD density
   Simone Kossmann        : Meta GGA functionals, TD-DFT gradient, OOMP2, MP2 Hessian
   Martin Krupicka        : AUTO-CI
   Lucas Lang             : DCDCAS
   Dagmar Lenk            : GEPOL surface, SMD
   Dimitrios Liakos       : Extrapolation schemes; Compound Job, initial MDCI parallelization
   Dimitrios Manganas     : Further ROCIS development; embedding schemes
   Dimitrios Pantazis     : SARC Basis sets
   Taras Petrenko         : DFT Hessian,TD-DFT gradient, ASA, ECA, R-Raman, ABS, FL, XAS/XES, NRVS
   Peter Pinski           : DLPNO-MP2, DLPNO-MP2 Gradient
   Christoph Reimann      : Effective Core Potentials
   Marius Retegan         : Local ZFS, SOC
   Christoph Riplinger    : Optimizer, TS searches, QM/MM, DLPNO-CCSD(T), (RO)-DLPNO pert. Triples
   Tobias Risthaus        : Range-separated hybrids, TD-DFT gradient, RPA, STAB
   Michael Roemelt        : Original ROCIS implementation
   Masaaki Saitow         : Open-shell DLPNO-CCSD energy and density
   Barbara Sandhoefer     : DKH picture change effects
   Avijit Sen             : IP-ROCIS
   Kantharuban Sivalingam : CASSCF convergence, NEVPT2, FIC-MRCI
   Bernardo de Souza      : ESD, SOC TD-DFT
   Georgi Stoychev        : AutoAux, RI-MP2 NMR
   Willem Van den Heuvel  : Paramagnetic NMR
   Boris Wezisla          : Elementary symmetry handling
   Frank Wennmohs         : Technical directorship


 We gratefully acknowledge several colleagues who have allowed us to
 interface, adapt or use parts of their codes:
   Stefan Grimme, W. Hujo, H. Kruse,             : VdW corrections, initial TS optimization,
                  C. Bannwarth                     DFT functionals, gCP, sTDA/sTD-DF
   Ed Valeev, F. Pavosevic, A. Kumar             : LibInt (2-el integral package), F12 methods
   Garnet Chan, S. Sharma, J. Yang, R. Olivares  : DMRG
   Ulf Ekstrom                                   : XCFun DFT Library
   Mihaly Kallay                                 : mrcc  (arbitrary order and MRCC methods)
   Andreas Klamt, Michael Diedenhofen            : otool_cosmo (COSMO solvation model)
   Jiri Pittner, Ondrej Demel                    : Mk-CCSD
   Frank Weinhold                                : gennbo (NPA and NBO analysis)
   Christopher J. Cramer and Donald G. Truhlar   : smd solvation model
   Lars Goerigk                                  : TD-DFT with DH, B97 family of functionals
   V. Asgeirsson, H. Jonsson                     : NEB implementation
   FAccTs GmbH                                   : IRC, NEB, NEB-TS, Multilevel, MM, QM/MM, CI optimization
   S Lehtola, MJT Oliveira, MAL Marques          : LibXC Library


 Your calculation uses the libint2 library for the computation of 2-el integrals
 For citations please refer to: http://libint.valeyev.net

 Your ORCA version has been built with support for libXC version: 4.2.3
 For citations please refer to: https://tddft.org/programs/libxc/

 This ORCA versions uses:
   CBLAS   interface :  Fast vector & matrix operations
   LAPACKE interface :  Fast linear algebra routines
   SCALAPACK package :  Parallel linear algebra routines


----- Orbital basis set information -----
Your calculation utilizes the basis: def2-TZVPP
   F. Weigend and R. Ahlrichs, Phys. Chem. Chem. Phys. 7, 3297 (2005).

================================================================================
                                        WARNINGS
                       Please study these warnings very carefully!
================================================================================


WARNING: your system is open-shell and RHF/RKS was chosen
  ===> : WILL SWITCH to UHF/UKS


WARNING: MDCI localization with Augmented Hessian Foster-Boys
  ===> : Switching off randomization!

WARNING: Post HF methods need fully converged wavefunctions
  ===> : Setting SCFConvForced true
         You can overwrite this default with %scf ConvForced false 


INFO   : the flag for use of LIBINT has been found!

================================================================================
                                       INPUT FILE
================================================================================
NAME = 21_CrCl.in
|  1> #
|  2> # 21_CrCl ccsd(t)/cbs
|  3> #
|  4> ! ccsd(t) extrapolate(3/4,def2) verytightscf veryslowconv kdiis
|  5> 
|  6> *xyz 0 6
|  7>   Cr  0.00000000000000      0.00000000000000     -0.09885250745251
|  8>   Cl  0.00000000000000      0.00000000000000      2.09885250745250
|  9> *
| 10> 
| 11> %maxcore 5000
| 12> 
| 13> %scf
| 14> MaxIter 1500
| 15> DIISMaxEq 40
| 16> directresetfreq 1
| 17> Shift Shift 0.1 ErrOff 0.1 end
| 18> end
| 19> 
| 20> %pal
| 21> nprocs 24
| 22> end
| 23> 
| 24> %method
| 25> z_maxiter 1000
| 26> end
| 27> 
| 28> 
| 29>                          ****END OF INPUT****
================================================================================

                   *****************************************
                   * Extrapolated Single Point Calculation *
                   *****************************************

----- Orbital basis set information -----
Your calculation utilizes the basis: def2-TZVPP
   F. Weigend and R. Ahlrichs, Phys. Chem. Chem. Phys. 7, 3297 (2005).

----- AuxJ basis set information -----
Your calculation utilizes the auxiliary basis: def2/J
   F. Weigend, Phys. Chem. Chem. Phys. 8, 1057 (2006).

----- AuxC basis set information -----
Your calculation utilizes the auxiliary basis: def2-TZVPP/C
  H-La, Hf-Rn : A. Hellweg, C. Hattig, S. Hofener and W. Klopper, Theor. Chem. Acc. 117, 587 (2007).
        Ce-Lu : J. Chmela and M. E. Harding, Mol. Phys. (2018).

----- AuxJK basis set information -----
Your calculation utilizes the auxiliary basis: def2/JK
   H-Ba, Hf-Rn: F. Weigend, J. Comput. Chem. 29, 167 (2008).

All done

                     -----------------------------------------
                     Extrapolated Energy 1 Basis=  def2-TZVPP
                     -----------------------------------------

---------------------------------
CARTESIAN COORDINATES (ANGSTROEM)
---------------------------------
  Cr     0.000000    0.000000   -0.098853
  Cl     0.000000    0.000000    2.098853

----------------------------
CARTESIAN COORDINATES (A.U.)
----------------------------
  NO LB      ZA    FRAG     MASS         X           Y           Z
   0 Cr   24.0000    0    52.000    0.000000    0.000000   -0.186804
   1 Cl   17.0000    0    35.453    0.000000    0.000000    3.966256

--------------------------------
INTERNAL COORDINATES (ANGSTROEM)
--------------------------------
 Cr     0   0   0     0.000000000000     0.00000000     0.00000000
 Cl     1   0   0     2.197705014905     0.00000000     0.00000000

---------------------------
INTERNAL COORDINATES (A.U.)
---------------------------
 Cr     0   0   0     0.000000000000     0.00000000     0.00000000
 Cl     1   0   0     4.153060601316     0.00000000     0.00000000

---------------------
BASIS SET INFORMATION
---------------------
There are 2 groups of distinct atoms

 Group   1 Type Cr  : 17s12p7d2f1g contracted to 6s5p4d2f1g pattern {842111/63111/4111/11/1}
 Group   2 Type Cl  : 14s9p3d1f contracted to 5s5p3d1f pattern {73211/51111/111/1}

Atom   0Cr   basis set group =>   1
Atom   1Cl   basis set group =>   2
---------------------------------
AUXILIARY/J BASIS SET INFORMATION
---------------------------------
There are 2 groups of distinct atoms

 Group   1 Type Cr  : 19s5p5d3f3g contracted to 8s5p5d2f3g pattern {121111111/11111/11111/21/111}
 Group   2 Type Cl  : 14s5p5d2f1g contracted to 8s4p3d1f1g pattern {71111111/2111/311/2/1}

Atom   0Cr   basis set group =>   1
Atom   1Cl   basis set group =>   2
---------------------------------
AUXILIARY/C BASIS SET INFORMATION
---------------------------------
There are 2 groups of distinct atoms

 Group   1 Type Cr  : 9s9p8d7f5g3h1i contracted to 9s9p8d7f5g3h1i pattern {111111111/111111111/11111111/1111111/11111/111/1}
 Group   2 Type Cl  : 11s8p7d5f2g contracted to 11s8p7d5f2g pattern {11111111111/11111111/1111111/11111/11}

Atom   0Cr   basis set group =>   1
Atom   1Cl   basis set group =>   2
----------------------------------
AUXILIARY/JK BASIS SET INFORMATION
----------------------------------
There are 2 groups of distinct atoms

 Group   1 Type Cr  : 19s14p12d10f7g3h1i contracted to 16s13p11d9f5g3h1i pattern {4111111111111111/2111111111111/21111111111/211111111/31111/111/1}
 Group   2 Type Cl  : 16s12p10d4f1g contracted to 13s11p9d4f1g pattern {4111111111111/21111111111/211111111/1111/1}

Atom   0Cr   basis set group =>   1
Atom   1Cl   basis set group =>   2


           ************************************************************
           *        Program running with 24 parallel MPI-processes    *
           *              working on a common directory               *
           ************************************************************
------------------------------------------------------------------------------
                           ORCA GTO INTEGRAL CALCULATION
------------------------------------------------------------------------------

                         BASIS SET STATISTICS AND STARTUP INFO

 # of primitive gaussian shells          ...   66
 # of primitive gaussian functions       ...  174
 # of contracted shells                  ...   32
 # of contracted basis functions         ...  106
 Highest angular momentum                ...    4
 Maximum contraction depth               ...    8
 Integral package used                   ... LIBINT
 Integral threshhold            Thresh   ...  1.000e-12
 Primitive cut-off              TCut     ...  1.000e-14


------------------------------ INTEGRAL EVALUATION ----------------------------


 * One electron integrals 
 Pre-screening matrix                    ... done
 Shell pair data                         ... done (   0.000 sec)



           ************************************************************
           *        Program running with 24 parallel MPI-processes    *
           *              working on a common directory               *
           ************************************************************
-------------------------------------------------------------------------------
                                 ORCA SCF
-------------------------------------------------------------------------------

------------
SCF SETTINGS
------------
Hamiltonian:
 Ab initio Hamiltonian  Method          .... Hartree-Fock(GTOs)


General Settings:
 Integral files         IntName         .... 21_CrCl
 Hartree-Fock type      HFTyp           .... UHF
 Total Charge           Charge          ....    0
 Multiplicity           Mult            ....    6
 Number of Electrons    NEL             ....   41
 Basis Dimension        Dim             ....  106
 Nuclear Repulsion      ENuc            ....     98.2408009820 Eh

Convergence Acceleration:
 DIIS                   CNVDIIS         .... off
 Newton-Raphson         CNVNR           .... off
 SOSCF                  CNVSOSCF        .... off
 Level Shifting         CNVShift        .... on
   Level shift para.    LevelShift      ....    0.1000
   Turn off err/grad.   ShiftErr        ....    0.1000
 Zerner damping         CNVZerner       .... off
 Static damping         CNVDamp         .... off
 Fernandez-Rico         CNVRico         .... off

SCF Procedure:
 Maximum # iterations   MaxIter         ....  1500
 SCF integral mode      SCFMode         .... Direct
   Integral package                     .... LIBINT
 Reset frequency        DirectResetFreq ....     1
 Integral Threshold     Thresh          ....  1.000e-12 Eh
 Primitive CutOff       TCut            ....  1.000e-14 Eh

Convergence Tolerance:
 Convergence Check Mode ConvCheckMode   .... Total+1el-Energy
 Convergence forced     ConvForced      .... 1
 Energy Change          TolE            ....  1.000e-09 Eh
 1-El. energy change                    ....  1.000e-06 Eh


Diagonalization of the overlap matrix:
Smallest eigenvalue                        ... 8.682e-03
Time for diagonalization                   ...    0.004 sec
Threshold for overlap eigenvalues          ... 1.000e-08
Number of eigenvalues below threshold      ... 0
Time for construction of square roots      ...    0.002 sec
Total time needed                          ...    0.006 sec

-------------------
DFT GRID GENERATION
-------------------

General Integration Accuracy     IntAcc      ...  4.340
Radial Grid Type                 RadialGrid  ... Gauss-Chebyshev
Angular Grid (max. acc.)         AngularGrid ... Lebedev-110
Angular grid pruning method      GridPruning ... 3 (G Style)
Weight generation scheme         WeightScheme... Becke
Basis function cutoff            BFCut       ...    1.0000e-12
Integration weight cutoff        WCut        ...    1.0000e-14
Grids for H and He will be reduced by one unit

# of grid points (after initial pruning)     ...   4816 (   0.0 sec)
# of grid points (after weights+screening)   ...   4791 (   0.0 sec)
nearest neighbour list constructed           ...    0.0 sec
Grid point re-assignment to atoms done       ...    0.0 sec
Grid point division into batches done        ...    0.0 sec
Reduced shell lists constructed in    0.0 sec

Total number of grid points                  ...     4791
Total number of batches                      ...       76
Average number of points per batch           ...       63
Average number of grid points per atom       ...     2396
Average number of shells per batch           ...     8.80 (27.50%)
Average number of basis functions per batch  ...    26.40 (24.91%)
Average number of large shells per batch     ...     6.40 (72.73%)
Average number of large basis fcns per batch ...    17.60 (66.67%)
Maximum spatial batch extension              ...  20.31, 28.73, 16.39 au
Average spatial batch extension              ...   0.97,  1.26,  0.86 au

Time for grid setup =    0.023 sec

------------------------------
INITIAL GUESS: MODEL POTENTIAL
------------------------------
Loading Hartree-Fock densities                     ... done
Calculating cut-offs                               ... done
Setting up the integral package                    ... done
Initializing the effective Hamiltonian             ... done
Starting the Coulomb interaction                   ... done (   0.0 sec)
Reading the grid                                   ... done
Mapping shells                                     ... done
Starting the XC term evaluation                    ... done (   0.0 sec)
Transforming the Hamiltonian                       ... done (   0.0 sec)
Diagonalizing the Hamiltonian                      ... done (   0.0 sec)
Back transforming the eigenvectors                 ... done (   0.0 sec)
Now organizing SCF variables                       ... done
                      ------------------
                      INITIAL GUESS DONE (   0.1 sec)
                      ------------------
--------------
SCF ITERATIONS
--------------
ITER       Energy         Delta-E        Max-DP      RMS-DP      [F,P]   Gradient Norm
                             ****Turning on KDIIS(Cayley)****
  0  -1502.7867357375   0.000000000000 0.01104960  0.00025033  0.1853134   0.114313656
  1  -1502.8104682526  -0.023732515117 0.01724969  0.00037309  0.1672597   0.101788135
  2  -1502.8389110795  -0.028442826850 0.02382614  0.00065589  0.1341145   0.082693638
  3  -1502.8770007496  -0.038089670098 0.04345666  0.00114532  0.0800194   0.050153782
  4  -1502.9022309764  -0.025230226773 0.00367026  0.00009001  0.0038922   0.003015007
  5  -1502.9024744850  -0.000243508639 0.00457026  0.00005791  0.0027130   0.001308565
  6  -1502.9025424072  -0.000067922153 0.00455282  0.00004839  0.0019375   0.000479914
  7  -1502.9025726719  -0.000030264740 0.00823101  0.00008397  0.0018525   0.000420083
  8  -1502.9026151645  -0.000042492556 0.01645311  0.00017476  0.0017079   0.000424545
  9  -1502.9026928301  -0.000077665638 0.02475784  0.00025936  0.0013561   0.000378236
 10  -1502.9027816234  -0.000088793298 0.05078316  0.00052611  0.0009772   0.000255618
 11  -1502.9029225532  -0.000140929831 0.02087706  0.00021653  0.0006466   0.000391750
Warning: badly conditioned DIIS matrix, 1 vectors out of 13 destroyed
 12  -1502.9028641610   0.000058392259 0.09489296  0.00101044  0.0005983   0.000350123
Warning: badly conditioned DIIS matrix, 1 vectors out of 13 destroyed
Warning: badly conditioned DIIS matrix, 1 vectors out of 12 destroyed
 13  -1502.9024128398   0.000451321123 0.14243988  0.00150002  0.0017935   0.001267186
 14  -1502.9030147689  -0.000601929057 0.07362220  0.00077981  0.0008205   0.000539696
 15  -1502.9034443407  -0.000429571850 0.00015107  0.00000156  0.0016107   0.001404802
Warning: badly conditioned DIIS matrix, 1 vectors out of 14 destroyed
Warning: badly conditioned DIIS matrix, 1 vectors out of 13 destroyed
Warning: badly conditioned DIIS matrix, 1 vectors out of 12 destroyed
Warning: badly conditioned DIIS matrix, 1 vectors out of 11 destroyed
Warning: badly conditioned DIIS matrix, 1 vectors out of 10 destroyed
Warning: badly conditioned DIIS matrix, 1 vectors out of 9 destroyed
Warning: badly conditioned DIIS matrix, 1 vectors out of 8 destroyed
Warning: badly conditioned DIIS matrix, 1 vectors out of 7 destroyed
Warning: badly conditioned DIIS matrix, 1 vectors out of 6 destroyed
Warning: badly conditioned DIIS matrix, 1 vectors out of 5 destroyed
Warning: badly conditioned DIIS matrix, 1 vectors out of 4 destroyed
 16  -1502.9034433137   0.000001027025 0.13791573  0.00145405  0.0016082   0.001401650
 17  -1502.9028075268   0.000635786966 0.04777258  0.00050700  0.0007159   0.000623060
Warning: badly conditioned DIIS matrix, 1 vectors out of 5 destroyed
 18  -1502.9026156313   0.000191895454 0.13065595  0.00152371  0.0011225   0.000937830
Warning: badly conditioned DIIS matrix, 1 vectors out of 5 destroyed
 19  -1502.8995039010   0.003111730272 0.04208452  0.00060910  0.0085775   0.006173331
 20  -1502.8956423555   0.003861545561 0.17831699  0.00218420  0.0149383   0.010677425
 21  -1502.9026585782  -0.007016222683 0.27442931  0.00292461  0.0011469   0.000716310
 22  -1502.9045798034  -0.001921225295 0.07202079  0.00083585  0.0039937   0.002893888
 23  -1502.9036783894   0.000901414036 0.01723411  0.00019307  0.0024227   0.001385783
Warning: badly conditioned DIIS matrix, 1 vectors out of 9 destroyed
Warning: badly conditioned DIIS matrix, 1 vectors out of 8 destroyed
Warning: badly conditioned DIIS matrix, 1 vectors out of 7 destroyed
Warning: badly conditioned DIIS matrix, 1 vectors out of 6 destroyed
 24  -1502.9038655739  -0.000187184480 0.32713632  0.00344769  0.0025786   0.001689187
Warning: badly conditioned DIIS matrix, 1 vectors out of 6 destroyed
 25  -1502.9009438048   0.002921769121 0.01149942  0.00014458  0.0055356   0.004215271
 26  -1502.9004854595   0.000458345223 0.03464016  0.00042403  0.0065493   0.004902950
 27  -1502.9016317561  -0.001146296543 0.00743069  0.00008742  0.0038639   0.003061016
 28  -1502.9014498070   0.000181949067 0.01120728  0.00013412  0.0043383   0.003364535
 29  -1502.9017372067  -0.000287399690 0.00050552  0.00000606  0.0036065   0.002820180
Warning: badly conditioned DIIS matrix, 1 vectors out of 10 destroyed
Warning: badly conditioned DIIS matrix, 1 vectors out of 9 destroyed
Warning: badly conditioned DIIS matrix, 1 vectors out of 8 destroyed
Warning: badly conditioned DIIS matrix, 1 vectors out of 7 destroyed
Warning: badly conditioned DIIS matrix, 1 vectors out of 6 destroyed
Warning: badly conditioned DIIS matrix, 1 vectors out of 5 destroyed
 30  -1502.9017251722   0.000012034490 0.06569601  0.00074435  0.0036372   0.002844236
Warning: badly conditioned DIIS matrix, 1 vectors out of 5 destroyed
Warning: badly conditioned DIIS matrix, 1 vectors out of 4 destroyed
 31  -1502.9025930586  -0.000867886358 0.00828275  0.00008559  0.0011634   0.000758523
 32  -1502.9025466407   0.000046417850 0.01874331  0.00019820  0.0013750   0.000779257
Warning: badly conditioned DIIS matrix, 1 vectors out of 5 destroyed
 33  -1502.9026521155  -0.000105474781 0.04242391  0.00044486  0.0010046   0.000591902
 34  -1502.9028068838  -0.000154768323 0.05323585  0.00055745  0.0005815   0.000451593
 35  -1502.9029626263  -0.000155742497 0.04312149  0.00045346  0.0006932   0.000479251
 36  -1502.9031457344  -0.000183108077 0.04514543  0.00049325  0.0010713   0.000832893
 37  -1502.9034776559  -0.000331921517 0.02201869  0.00024377  0.0016399   0.001283565
 38  -1502.9036925530  -0.000214897029 0.06267895  0.00067044  0.0019241   0.001586453
 39  -1502.9031944573   0.000498095669 0.07127281  0.00076693  0.0011638   0.000784097
 40  -1502.9028892112   0.000305246057 0.05578617  0.00059261  0.0006090   0.000470881
 41  -1502.9027044074   0.000184803848 0.06212121  0.00067819  0.0008551   0.000795508
 42  -1502.9022033131   0.000501094284 0.14376184  0.00153940  0.0023799   0.002015299
 43  -1502.9029757838  -0.000772470703 0.03842737  0.00040394  0.0007250   0.000421107
Warning: badly conditioned DIIS matrix, 1 vectors out of 15 destroyed
 44  -1502.9031427648  -0.000166981038 0.13597020  0.00151856  0.0010741   0.000721446
Warning: badly conditioned DIIS matrix, 1 vectors out of 15 destroyed
Warning: badly conditioned DIIS matrix, 1 vectors out of 14 destroyed
Warning: badly conditioned DIIS matrix, 1 vectors out of 13 destroyed
Warning: badly conditioned DIIS matrix, 1 vectors out of 12 destroyed
 45  -1502.9045589112  -0.001416146323 0.04308999  0.00052493  0.0032080   0.002721538
 46  -1502.9039046734   0.000654237813 0.04115024  0.00046540  0.0022960   0.002060337
 47  -1502.9034618595   0.000442813822 0.13068973  0.00162215  0.0016493   0.001510080
Warning: badly conditioned DIIS matrix, 2 vectors out of 14 destroyed
Warning: badly conditioned DIIS matrix, 1 vectors out of 12 destroyed
 48  -1502.9054791507  -0.002017291125 0.05046211  0.00081396  0.0047751   0.003491383
Warning: badly conditioned DIIS matrix, 1 vectors out of 12 destroyed
Warning: badly conditioned DIIS matrix, 1 vectors out of 11 destroyed
Warning: badly conditioned DIIS matrix, 1 vectors out of 10 destroyed
Warning: badly conditioned DIIS matrix, 1 vectors out of 9 destroyed
Warning: badly conditioned DIIS matrix, 1 vectors out of 8 destroyed
 49  -1502.9060015185  -0.000522367807 0.32721532  0.00386088  0.0089820   0.005582904
Warning: badly conditioned DIIS matrix, 1 vectors out of 8 destroyed
 50  -1502.9025146044   0.003486914091 0.00336981  0.00005429  0.0044125   0.003203084
Warning: badly conditioned DIIS matrix, 1 vectors out of 8 destroyed
 51  -1502.9026080896  -0.000093485252 0.02229505  0.00026672  0.0036849   0.002788826
Warning: badly conditioned DIIS matrix, 1 vectors out of 8 destroyed
 52  -1502.9028024246  -0.000194334986 0.06305044  0.00068682  0.0024030   0.001960578
 53  -1502.9024212479   0.000381176747 0.10774755  0.00113101  0.0038187   0.003094770
Warning: badly conditioned DIIS matrix, 1 vectors out of 9 destroyed
Warning: badly conditioned DIIS matrix, 1 vectors out of 8 destroyed
 54  -1502.9028699108  -0.000448662903 0.19504586  0.00199518  0.0029989   0.002482765
 55  -1502.9016548154   0.001215095355 0.43590563  0.00470910  0.0043323   0.003115238
Warning: badly conditioned DIIS matrix, 1 vectors out of 9 destroyed
Warning: badly conditioned DIIS matrix, 1 vectors out of 8 destroyed
 56  -1502.9063147567  -0.004659941323 0.30895576  0.00353725  0.0067197   0.003872568
 57  -1502.9027380579   0.003576698802 0.11906298  0.00124098  0.0034044   0.001677335
 58  -1502.9033689483  -0.000630890346 0.08436680  0.00091390  0.0021676   0.000762485
Warning: badly conditioned DIIS matrix, 1 vectors out of 10 destroyed
 59  -1502.9042870525  -0.000918104178 0.03412261  0.00039854  0.0027515   0.001829272
 60  -1502.9038193343   0.000467718190 0.07223677  0.00078081  0.0024208   0.001314112
 61  -1502.9031936072   0.000625727075 0.01722960  0.00017742  0.0016122   0.000420952
Warning: badly conditioned DIIS matrix, 1 vectors out of 12 destroyed
Warning: badly conditioned DIIS matrix, 1 vectors out of 11 destroyed
Warning: badly conditioned DIIS matrix, 1 vectors out of 10 destroyed
Warning: badly conditioned DIIS matrix, 1 vectors out of 9 destroyed
 62  -1502.9030985645   0.000095042652 0.06540595  0.00070456  0.0014653   0.000436888
Warning: badly conditioned DIIS matrix, 1 vectors out of 9 destroyed
 63  -1502.9028584498   0.000240114766 0.09939055  0.00106925  0.0008755   0.000245662
 64  -1502.9033113770  -0.000452927201 0.05980581  0.00062786  0.0016476   0.000825513
Warning: badly conditioned DIIS matrix, 1 vectors out of 10 destroyed
 65  -1502.9029657163   0.000345660646 0.05526425  0.00060205  0.0015317   0.000927287
Warning: badly conditioned DIIS matrix, 1 vectors out of 10 destroyed
 66  -1502.9028142718   0.000151444507 0.03483482  0.00037190  0.0006222   0.000407391
 67  -1502.9026956002   0.000118671606 0.02048965  0.00021304  0.0008510   0.000506317
 68  -1502.9025947071   0.000100893147 0.01919064  0.00020386  0.0011460   0.000709561
 69  -1502.9026905430  -0.000095835890 0.00802826  0.00008544  0.0008582   0.000556966
Warning: badly conditioned DIIS matrix, 1 vectors out of 13 destroyed
Warning: badly conditioned DIIS matrix, 1 vectors out of 12 destroyed
 70  -1502.9026541824   0.000036360512 0.09697692  0.00099449  0.0009670   0.000605388
 71  -1502.9029499429  -0.000295760439 0.01750731  0.00017897  0.0008141   0.000667584
Warning: badly conditioned DIIS matrix, 1 vectors out of 13 destroyed
 72  -1502.9030029041  -0.000052961195 0.01120907  0.00012826  0.0010988   0.000870570
 73  -1502.9030674605  -0.000064556417 0.03389243  0.00035868  0.0008835   0.000768094
 74  -1502.9032502367  -0.000182776180 0.11261902  0.00118305  0.0012540   0.001110631
 75  -1502.9028047697   0.000445466980 0.02347960  0.00024688  0.0007704   0.000655910
Warning: badly conditioned DIIS matrix, 1 vectors out of 16 destroyed
 76  -1502.9027276326   0.000077137133 0.03154371  0.00033709  0.0008639   0.000748748
Warning: badly conditioned DIIS matrix, 1 vectors out of 16 destroyed
Warning: badly conditioned DIIS matrix, 1 vectors out of 15 destroyed
Warning: badly conditioned DIIS matrix, 1 vectors out of 14 destroyed
Warning: badly conditioned DIIS matrix, 1 vectors out of 13 destroyed
Warning: badly conditioned DIIS matrix, 1 vectors out of 12 destroyed
Warning: badly conditioned DIIS matrix, 1 vectors out of 11 destroyed
Warning: badly conditioned DIIS matrix, 1 vectors out of 10 destroyed
 77  -1502.9025682633   0.000159369288 0.00623790  0.00006684  0.0012380   0.001114669
Warning: badly conditioned DIIS matrix, 2 vectors out of 10 destroyed
 78  -1502.9025273305   0.000040932739 0.10195114  0.00107998  0.0013712   0.001196061
Warning: badly conditioned DIIS matrix, 1 vectors out of 9 destroyed
Warning: badly conditioned DIIS matrix, 1 vectors out of 8 destroyed
Warning: badly conditioned DIIS matrix, 1 vectors out of 7 destroyed
Warning: badly conditioned DIIS matrix, 1 vectors out of 6 destroyed
 79  -1502.9029309149  -0.000403584322 0.06300595  0.00066275  0.0006256   0.000485030
Warning: badly conditioned DIIS matrix, 1 vectors out of 6 destroyed
 80  -1502.9032033564  -0.000272441506 0.03837402  0.00041497  0.0011646   0.000962918
 81  -1502.9034880267  -0.000284670360 0.12251452  0.00129593  0.0016440   0.001416532
Warning: badly conditioned DIIS matrix, 1 vectors out of 7 destroyed
 82  -1502.9028675332   0.000620493505 0.00687098  0.00007177  0.0005716   0.000499865
Warning: badly conditioned DIIS matrix, 1 vectors out of 7 destroyed
 83  -1502.9028487849   0.000018748302 0.01743956  0.00018218  0.0005557   0.000488655
Warning: badly conditioned DIIS matrix, 1 vectors out of 7 destroyed
Warning: badly conditioned DIIS matrix, 1 vectors out of 6 destroyed
 84  -1502.9027999782   0.000048806754 0.08858766  0.00095474  0.0006021   0.000493589
 85  -1502.9022234051   0.000576573012 0.02753545  0.00031488  0.0023470   0.001781819
Warning: badly conditioned DIIS matrix, 1 vectors out of 7 destroyed
 86  -1502.9017579132   0.000465491998 0.14099997  0.00152344  0.0036448   0.002683612
Warning: badly conditioned DIIS matrix, 1 vectors out of 7 destroyed
 87  -1502.9028717951  -0.001113881924 0.01795834  0.00018884  0.0005991   0.000404548
Warning: badly conditioned DIIS matrix, 1 vectors out of 7 destroyed
Warning: badly conditioned DIIS matrix, 1 vectors out of 6 destroyed
 88  -1502.9029246007  -0.000052805609 0.01615826  0.00016898  0.0006514   0.000421803
Warning: badly conditioned DIIS matrix, 1 vectors out of 6 destroyed
 89  -1502.9029768985  -0.000052297846 0.29413686  0.00360901  0.0007362   0.000502942
Warning: badly conditioned DIIS matrix, 1 vectors out of 6 destroyed
Warning: badly conditioned DIIS matrix, 1 vectors out of 5 destroyed
 90  -1502.9050863784  -0.002109479828 0.50281537  0.00547166  0.0129122   0.008213858
Warning: badly conditioned DIIS matrix, 1 vectors out of 5 destroyed
 91  -1502.9001489971   0.004937381239 0.09125456  0.00105621  0.0105715   0.008152311
 92  -1502.9022590329  -0.002110035751 0.04911059  0.00052460  0.0063415   0.004786510
 93  -1502.9025375920  -0.000278559093 0.00172867  0.00001818  0.0057166   0.004332700
Warning: badly conditioned DIIS matrix, 1 vectors out of 7 destroyed
Warning: badly conditioned DIIS matrix, 1 vectors out of 6 destroyed
Warning: badly conditioned DIIS matrix, 1 vectors out of 5 destroyed
Warning: badly conditioned DIIS matrix, 1 vectors out of 4 destroyed
 94  -1502.9025435730  -0.000005981045 0.45786782  0.00549838  0.0057090   0.004327511
Warning: badly conditioned DIIS matrix, 1 vectors out of 4 destroyed
Warning: badly conditioned DIIS matrix, 1 vectors out of 3 destroyed
 95  -1502.6792395415   0.223304031511 0.46069022  0.00556286  0.1519792   0.115009978
 96  -1502.9027960073  -0.223556465841 0.00261725  0.00003832  0.0013719   0.000942070
 97  -1502.9028098750  -0.000013867711 0.00560533  0.00006050  0.0010166   0.000773859
 98  -1502.9028292820  -0.000019406970 0.00636907  0.00006893  0.0008302   0.000644512
Warning: badly conditioned DIIS matrix, 1 vectors out of 6 destroyed
 99  -1502.9028494286  -0.000020146620 0.00837179  0.00008926  0.0007400   0.000580228
Warning: badly conditioned DIIS matrix, 1 vectors out of 6 destroyed
100  -1502.9028740445  -0.000024615814 0.01941755  0.00021260  0.0007111   0.000559059
101  -1502.9029396919  -0.000065647447 0.05488378  0.00057392  0.0009260   0.000181764
102  -1502.9031692893  -0.000229597405 0.04359367  0.00045969  0.0013388   0.000611405
103  -1502.9029728116   0.000196477692 0.03672541  0.00038706  0.0007798   0.000432308
104  -1502.9028593810   0.000113430624 0.05327716  0.00056337  0.0005984   0.000416843
105  -1502.9026785290   0.000180852032 0.03761405  0.00039809  0.0009305   0.000704518
106  -1502.9028143359  -0.000135806960 0.04695925  0.00049163  0.0006023   0.000454324
107  -1502.9029507042  -0.000136368244 0.05123807  0.00053777  0.0006535   0.000503053
108  -1502.9031690578  -0.000218353601 0.01673418  0.00017697  0.0011019   0.000904392
109  -1502.9030834834   0.000085574319 0.00018511  0.00000335  0.0009255   0.000746054
110  -1502.9030858558  -0.000002372372 0.06974160  0.00073391  0.0009347   0.000721471
111  -1502.9028438212   0.000242034659 0.03188889  0.00033549  0.0005558   0.000507882
112  -1502.9027450817   0.000098739448 0.08518767  0.00092693  0.0007099   0.000634245
Warning: badly conditioned DIIS matrix, 1 vectors out of 18 destroyed
Warning: badly conditioned DIIS matrix, 1 vectors out of 17 destroyed
Warning: badly conditioned DIIS matrix, 1 vectors out of 16 destroyed
Warning: badly conditioned DIIS matrix, 1 vectors out of 15 destroyed
113  -1502.9020391642   0.000705917477 0.00626231  0.00007131  0.0028480   0.002189899
Warning: badly conditioned DIIS matrix, 1 vectors out of 15 destroyed
Warning: badly conditioned DIIS matrix, 1 vectors out of 14 destroyed
Warning: badly conditioned DIIS matrix, 1 vectors out of 13 destroyed
Warning: badly conditioned DIIS matrix, 1 vectors out of 12 destroyed
Warning: badly conditioned DIIS matrix, 1 vectors out of 11 destroyed
Warning: badly conditioned DIIS matrix, 1 vectors out of 10 destroyed
Warning: badly conditioned DIIS matrix, 1 vectors out of 9 destroyed
Warning: badly conditioned DIIS matrix, 1 vectors out of 8 destroyed
Warning: badly conditioned DIIS matrix, 1 vectors out of 7 destroyed
Warning: badly conditioned DIIS matrix, 1 vectors out of 6 destroyed
Warning: badly conditioned DIIS matrix, 1 vectors out of 5 destroyed
114  -1502.9021373217  -0.000098157477 0.25716304  0.00269615  0.0025692   0.001988793
115  -1502.9036260139  -0.001488692197 0.00956118  0.00010575  0.0021327   0.001467566
Warning: badly conditioned DIIS matrix, 1 vectors out of 6 destroyed
116  -1502.9037213454  -0.000095331508 0.17214631  0.00181780  0.0022261   0.001632694
117  -1502.9027958028   0.000925542582 0.02783655  0.00029522  0.0008319   0.000454010
Warning: badly conditioned DIIS matrix, 1 vectors out of 7 destroyed
118  -1502.9026936917   0.000102111090 0.03363196  0.00036250  0.0010711   0.000646352
119  -1502.9028212014  -0.000127509674 0.04745193  0.00050264  0.0007890   0.000257819
120  -1502.9029648155  -0.000143614073 0.00084596  0.00000933  0.0008929   0.000234126
Warning: badly conditioned DIIS matrix, 1 vectors out of 9 destroyed
121  -1502.9029616709   0.000003144639 0.20246655  0.00221375  0.0008729   0.000239906
Warning: badly conditioned DIIS matrix, 1 vectors out of 9 destroyed
Warning: badly conditioned DIIS matrix, 1 vectors out of 8 destroyed
122  -1502.9006527707   0.002308900102 0.20444246  0.00255286  0.0062426   0.004581261
Warning: badly conditioned DIIS matrix, 3 vectors out of 8 destroyed
Warning: badly conditioned DIIS matrix, 1 vectors out of 5 destroyed
123  -1502.8650920392   0.035560731547 0.29530686  0.00423317  0.0448862   0.034601474
Warning: badly conditioned DIIS matrix, 1 vectors out of 5 destroyed
124  -1502.9028626296  -0.037770590359 0.00990000  0.00010116  0.0022738   0.001763247
125  -1502.9028181973   0.000044432246 0.00421531  0.00004397  0.0027942   0.002141417
Warning: badly conditioned DIIS matrix, 1 vectors out of 6 destroyed
Warning: badly conditioned DIIS matrix, 1 vectors out of 5 destroyed
Warning: badly conditioned DIIS matrix, 1 vectors out of 4 destroyed
126  -1502.9028332720  -0.000015074695 0.09536247  0.00099922  0.0027086   0.002079171
127  -1502.9033183633  -0.000485091300 0.17460152  0.00202397  0.0017367   0.000785704
128  -1502.9050363296  -0.001717966275 0.21111292  0.00242721  0.0081534   0.005508050
129  -1502.9030176066   0.002018723036 0.09014716  0.00096376  0.0020113   0.001446868
Warning: badly conditioned DIIS matrix, 1 vectors out of 7 destroyed
Warning: badly conditioned DIIS matrix, 1 vectors out of 6 destroyed
130  -1502.9026340829   0.000383523601 0.19131634  0.00221645  0.0029490   0.001931388
131  -1502.8967420609   0.005892022021 0.06259561  0.00083085  0.0122752   0.010247742
132  -1502.9008046312  -0.004062570262 0.02442021  0.00028509  0.0057806   0.005222408
133  -1502.9014690739  -0.000664442662 0.01104151  0.00012203  0.0049526   0.004259905
134  -1502.9015585265  -0.000089452660 0.03757339  0.00042140  0.0054104   0.004216805
135  -1502.9011283755   0.000430150984 0.05487617  0.00064664  0.0051184   0.004248455
136  -1502.9023328794  -0.001204503831 0.02255340  0.00025078  0.0019592   0.001620012
Warning: badly conditioned DIIS matrix, 1 vectors out of 12 destroyed
137  -1502.9025456715  -0.000212792173 0.03261677  0.00035384  0.0012804   0.001044377
138  -1502.9027250993  -0.000179427811 0.02566122  0.00027388  0.0007460   0.000577705
Warning: badly conditioned DIIS matrix, 1 vectors out of 13 destroyed
Warning: badly conditioned DIIS matrix, 1 vectors out of 12 destroyed
Warning: badly conditioned DIIS matrix, 1 vectors out of 11 destroyed
Warning: badly conditioned DIIS matrix, 1 vectors out of 10 destroyed
Warning: badly conditioned DIIS matrix, 1 vectors out of 9 destroyed
139  -1502.9028126449  -0.000087545579 0.01723272  0.00018404  0.0005421   0.000418268
140  -1502.9027570142   0.000055630765 0.00300138  0.00003154  0.0006546   0.000483243
141  -1502.9027465471   0.000010467041 0.00133519  0.00001413  0.0006660   0.000509715
Warning: badly conditioned DIIS matrix, 1 vectors out of 11 destroyed
Warning: badly conditioned DIIS matrix, 1 vectors out of 10 destroyed
Warning: badly conditioned DIIS matrix, 1 vectors out of 9 destroyed
Warning: badly conditioned DIIS matrix, 1 vectors out of 8 destroyed
Warning: badly conditioned DIIS matrix, 1 vectors out of 7 destroyed
142  -1502.9027513014  -0.000004754273 0.02049633  0.00021443  0.0006543   0.000501113
143  -1502.9028147449  -0.000063443489 0.02225991  0.00023292  0.0005670   0.000422090
144  -1502.9028766877  -0.000061942864 0.01435197  0.00014995  0.0005516   0.000410195
Warning: badly conditioned DIIS matrix, 1 vectors out of 9 destroyed
145  -1502.9029176900  -0.000041002258 0.04799711  0.00050405  0.0005914   0.000444032
146  -1502.9027781889   0.000139501148 0.07415688  0.00079743  0.0006321   0.000497041
Warning: badly conditioned DIIS matrix, 1 vectors out of 10 destroyed
Warning: badly conditioned DIIS matrix, 1 vectors out of 9 destroyed
Warning: badly conditioned DIIS matrix, 1 vectors out of 8 destroyed
Warning: badly conditioned DIIS matrix, 1 vectors out of 7 destroyed
147  -1502.9023225046   0.000455684247 0.17594837  0.00185041  0.0020221   0.001508461
148  -1502.9031277150  -0.000805210387 0.00069788  0.00000740  0.0010936   0.000723070
Warning: badly conditioned DIIS matrix, 1 vectors out of 8 destroyed
Warning: badly conditioned DIIS matrix, 1 vectors out of 7 destroyed
Warning: badly conditioned DIIS matrix, 1 vectors out of 6 destroyed
Warning: badly conditioned DIIS matrix, 1 vectors out of 5 destroyed
149  -1502.9031313423  -0.000003627296 0.15977657  0.00167807  0.0011001   0.000730251
Warning: badly conditioned DIIS matrix, 1 vectors out of 5 destroyed
Warning: badly conditioned DIIS matrix, 1 vectors out of 4 destroyed
150  -1502.9024799907   0.000651351554 0.36704751  0.00609141  0.0015888   0.001137420
Warning: badly conditioned DIIS matrix, 1 vectors out of 4 destroyed
151  -1502.8512085770   0.051271413731 0.32476661  0.00385868  0.0631371   0.052032154
152  -1502.9033372078  -0.052128630830 0.00912053  0.00012287  0.0147715   0.011921298
153  -1502.9031459010   0.000191306837 0.00841802  0.00011179  0.0149759   0.012065231
154  -1502.9032570845  -0.000111183537 0.00060663  0.00000817  0.0151048   0.012144485
Warning: badly conditioned DIIS matrix, 1 vectors out of 7 destroyed
Warning: badly conditioned DIIS matrix, 1 vectors out of 6 destroyed
Warning: badly conditioned DIIS matrix, 1 vectors out of 5 destroyed
Warning: badly conditioned DIIS matrix, 1 vectors out of 4 destroyed
Warning: badly conditioned DIIS matrix, 1 vectors out of 3 destroyed
155  -1502.9032510801   0.000006004463 0.02165876  0.00044935  0.0150878   0.012132506
156  -1502.9046496571  -0.001398577050 0.02532682  0.00045064  0.0138862   0.009659099
157  -1502.9049051785  -0.000255521381 0.00868626  0.00018361  0.0052075   0.001560592
158  -1502.9052775874  -0.000372408867 0.02629112  0.00048661  0.0047795   0.000944127
159  -1502.9061856450  -0.000908057597 0.07034859  0.00113547  0.0046481   0.000948402
160  -1502.9076576541  -0.001472009113 0.01487590  0.00022550  0.0032626   0.002195049
161  -1502.9076070637   0.000050590386 0.03698204  0.00053013  0.0018662   0.001298356
162  -1502.9077581571  -0.000151093379 0.00939332  0.00013024  0.0010376   0.000809356
Warning: badly conditioned DIIS matrix, 1 vectors out of 10 destroyed
163  -1502.9078026153  -0.000044458216 0.00560954  0.00007783  0.0002703   0.000229058
164  -1502.9078011664   0.000001448869 0.00426284  0.00005942  0.0002965   0.000196858
165  -1502.9078046460  -0.000003479540 0.00032090  0.00000483  0.0000747   0.000054370
Warning: badly conditioned DIIS matrix, 1 vectors out of 12 destroyed
166  -1502.9078047969  -0.000000150911 0.00055816  0.00000785  0.0000388   0.000026086
Warning: badly conditioned DIIS matrix, 1 vectors out of 12 destroyed
167  -1502.9078048571  -0.000000060277 0.00008298  0.00000115  0.0000096   0.000006893
Warning: badly conditioned DIIS matrix, 1 vectors out of 12 destroyed
Warning: badly conditioned DIIS matrix, 1 vectors out of 11 destroyed
Warning: badly conditioned DIIS matrix, 1 vectors out of 10 destroyed
168  -1502.9078048609  -0.000000003784 0.00003178  0.00000045  0.0000026   0.000001826
Warning: badly conditioned DIIS matrix, 1 vectors out of 10 destroyed
Warning: badly conditioned DIIS matrix, 1 vectors out of 9 destroyed
Warning: badly conditioned DIIS matrix, 1 vectors out of 8 destroyed
169  -1502.9078048612  -0.000000000310 0.00000122  0.00000001  0.0000002   0.000000135
Warning: badly conditioned DIIS matrix, 1 vectors out of 8 destroyed
Warning: badly conditioned DIIS matrix, 1 vectors out of 7 destroyed
                 **** Energy Check signals convergence ****
                    *** KDIIS BlockDiag (26.610 sec) ***

               *****************************************************
               *                     SUCCESS                       *
               *           SCF CONVERGED AFTER 170 CYCLES          *
               *****************************************************


----------------
TOTAL SCF ENERGY
----------------

Total Energy       :        -1502.90780486 Eh          -40896.20049 eV

Components:
Nuclear Repulsion  :           98.24080098 Eh            2673.26810 eV
Electronic Energy  :        -1601.14860584 Eh          -43569.46859 eV
One Electron Energy:        -2268.02501475 Eh          -61716.09824 eV
Two Electron Energy:          666.87640891 Eh           18146.62964 eV

Virial components:
Potential Energy   :        -3005.95916331 Eh          -81796.30728 eV
Kinetic Energy     :         1503.05135845 Eh           40900.10678 eV
Virial Ratio       :            1.99990449


---------------
SCF CONVERGENCE
---------------

  Last Energy change         ...    0.0000e+00  Tolerance :   1.0000e-09
  Last MAX-Density change    ...    2.1685e-07  Tolerance :   1.0000e-08
  Last RMS-Density change    ...    3.8197e-09  Tolerance :   1.0000e-09

             **** THE GBW FILE WAS UPDATED (21_CrCl.gbw) ****
             **** DENSITY FILE WAS UPDATED (21_CrCl.scfp) ****
             **** ENERGY FILE WAS UPDATED (21_CrCl.en.tmp) ****
----------------------
UHF SPIN CONTAMINATION
----------------------

Expectation value of <S**2>     :     8.758433
Ideal value S*(S+1) for S=2.5   :     8.750000
Deviation                       :     0.008433

             **** THE GBW FILE WAS UPDATED (21_CrCl.gbw) ****
             **** DENSITY FILE WAS UPDATED (21_CrCl.scfp) ****
----------------
ORBITAL ENERGIES
----------------
                 SPIN UP ORBITALS
  NO   OCC          E(Eh)            E(eV) 
   0   1.0000    -220.585985     -6002.4498 
   1   1.0000    -104.771068     -2850.9657 
   2   1.0000     -26.478871      -720.5267 
   3   1.0000     -22.405178      -609.6759 
   4   1.0000     -22.405178      -609.6759 
   5   1.0000     -22.404916      -609.6688 
   6   1.0000     -10.501498      -285.7603 
   7   1.0000      -7.967638      -216.8104 
   8   1.0000      -7.967638      -216.8104 
   9   1.0000      -7.967226      -216.7993 
  10   1.0000      -3.648307       -99.2755 
  11   1.0000      -2.448245       -66.6201 
  12   1.0000      -2.448245       -66.6201 
  13   1.0000      -2.409858       -65.5756 
  14   1.0000      -1.027302       -27.9543 
  15   1.0000      -0.597193       -16.2504 
  16   1.0000      -0.597193       -16.2504 
  17   1.0000      -0.550025       -14.9669 
  18   1.0000      -0.550025       -14.9669 
  19   1.0000      -0.477281       -12.9875 
  20   1.0000      -0.417155       -11.3514 
  21   1.0000      -0.417155       -11.3514 
  22   1.0000      -0.283662        -7.7188 
  23   0.0000       0.040684         1.1071 
  24   0.0000       0.040684         1.1071 
  25   0.0000       0.041215         1.1215 
  26   0.0000       0.120719         3.2849 
  27   0.0000       0.141290         3.8447 
  28   0.0000       0.141290         3.8447 
  29   0.0000       0.170136         4.6296 
  30   0.0000       0.170136         4.6296 
  31   0.0000       0.185524         5.0484 
  32   0.0000       0.220267         5.9938 
  33   0.0000       0.373957        10.1759 
  34   0.0000       0.373957        10.1759 
  35   0.0000       0.430545        11.7157 
  36   0.0000       0.513881        13.9834 
  37   0.0000       0.513881        13.9834 
  38   0.0000       0.516547        14.0559 
  39   0.0000       0.570565        15.5258 
  40   0.0000       0.570565        15.5258 
  41   0.0000       0.648699        17.6520 
  42   0.0000       0.648699        17.6520 
  43   0.0000       0.686270        18.6744 
  44   0.0000       0.686270        18.6744 
  45   0.0000       0.750096        20.4112 
  46   0.0000       0.813293        22.1308 
  47   0.0000       0.813293        22.1308 
  48   0.0000       0.869706        23.6659 
  49   0.0000       1.256660        34.1954 
  50   0.0000       1.653771        45.0014 
  51   0.0000       1.653771        45.0014 
  52   0.0000       1.667407        45.3724 
  53   0.0000       1.667407        45.3724 
  54   0.0000       1.712685        46.6045 
  55   0.0000       1.712685        46.6045 
  56   0.0000       1.808589        49.2142 
  57   0.0000       1.934686        52.6455 
  58   0.0000       1.934686        52.6455 
  59   0.0000       2.041114        55.5415 
  60   0.0000       2.130623        57.9772 
  61   0.0000       2.130623        57.9772 
  62   0.0000       2.208011        60.0830 
  63   0.0000       2.208011        60.0830 
  64   0.0000       2.211691        60.1832 
  65   0.0000       2.293441        62.4077 
  66   0.0000       2.304303        62.7033 
  67   0.0000       2.304303        62.7033 
  68   0.0000       2.335271        63.5460 
  69   0.0000       2.335271        63.5460 
  70   0.0000       2.359466        64.2043 
  71   0.0000       2.452806        66.7442 
  72   0.0000       2.452806        66.7442 
  73   0.0000       2.469626        67.2019 
  74   0.0000       2.469626        67.2019 
  75   0.0000       2.645748        71.9945 
  76   0.0000       2.645748        71.9945 
  77   0.0000       2.682640        72.9983 
  78   0.0000       2.730571        74.3026 
  79   0.0000       2.730571        74.3026 
  80   0.0000       3.460984        94.1782 
  81   0.0000       5.921493       161.1320 
  82   0.0000       5.921493       161.1320 
  83   0.0000       5.925094       161.2300 
  84   0.0000       5.925094       161.2300 
  85   0.0000       5.930734       161.3835 
  86   0.0000       5.930734       161.3835 
  87   0.0000       5.953413       162.0006 
  88   0.0000       5.953413       162.0006 
  89   0.0000       6.000062       163.2700 
  90   0.0000       6.591866       179.3738 
  91   0.0000       6.591866       179.3738 
  92   0.0000       6.612510       179.9356 
  93   0.0000       6.612510       179.9356 
  94   0.0000       6.712939       182.6684 
  95   0.0000       6.712939       182.6684 
  96   0.0000       6.925030       188.4396 
  97   0.0000       8.700524       236.7533 
  98   0.0000       8.700524       236.7533 
  99   0.0000       8.775826       238.8024 
 100   0.0000       8.775826       238.8024 
 101   0.0000       8.876788       241.5497 
 102   0.0000      11.573880       314.9413 
 103   0.0000      11.573880       314.9413 
 104   0.0000      11.765595       320.1581 
 105   0.0000      25.660642       698.2616 

                 SPIN DOWN ORBITALS
  NO   OCC          E(Eh)            E(eV) 
   0   1.0000    -220.582737     -6002.3614 
   1   1.0000    -104.771220     -2850.9698 
   2   1.0000     -26.383417      -717.9293 
   3   1.0000     -22.327461      -607.5611 
   4   1.0000     -22.304081      -606.9249 
   5   1.0000     -22.304081      -606.9249 
   6   1.0000     -10.501592      -285.7629 
   7   1.0000      -7.968728      -216.8401 
   8   1.0000      -7.967297      -216.8012 
   9   1.0000      -7.967297      -216.8012 
  10   1.0000      -3.336827       -90.7997 
  11   1.0000      -2.100697       -57.1629 
  12   1.0000      -2.039932       -55.5094 
  13   1.0000      -2.039932       -55.5094 
  14   1.0000      -1.026098       -27.9215 
  15   1.0000      -0.468637       -12.7523 
  16   1.0000      -0.427660       -11.6372 
  17   1.0000      -0.427660       -11.6372 
  18   0.0000       0.010382         0.2825 
  19   0.0000       0.095204         2.5906 
  20   0.0000       0.095204         2.5906 
  21   0.0000       0.103969         2.8291 
  22   0.0000       0.134178         3.6512 
  23   0.0000       0.134178         3.6512 
  24   0.0000       0.169817         4.6210 
  25   0.0000       0.169817         4.6210 
  26   0.0000       0.191446         5.2095 
  27   0.0000       0.222538         6.0556 
  28   0.0000       0.252542         6.8720 
  29   0.0000       0.252542         6.8720 
  30   0.0000       0.263879         7.1805 
  31   0.0000       0.277966         7.5638 
  32   0.0000       0.277966         7.5638 
  33   0.0000       0.434050        11.8111 
  34   0.0000       0.434050        11.8111 
  35   0.0000       0.462680        12.5902 
  36   0.0000       0.553758        15.0685 
  37   0.0000       0.598266        16.2797 
  38   0.0000       0.598266        16.2797 
  39   0.0000       0.663138        18.0449 
  40   0.0000       0.663138        18.0449 
  41   0.0000       0.700762        19.0687 
  42   0.0000       0.700762        19.0687 
  43   0.0000       0.741066        20.1654 
  44   0.0000       0.741066        20.1654 
  45   0.0000       0.790319        21.5057 
  46   0.0000       0.844474        22.9793 
  47   0.0000       0.844474        22.9793 
  48   0.0000       0.883094        24.0302 
  49   0.0000       1.268046        34.5053 
  50   0.0000       1.781341        48.4727 
  51   0.0000       1.781341        48.4727 
  52   0.0000       1.790020        48.7089 
  53   0.0000       1.790020        48.7089 
  54   0.0000       1.799604        48.9697 
  55   0.0000       1.799604        48.9697 
  56   0.0000       1.851256        50.3752 
  57   0.0000       2.037567        55.4450 
  58   0.0000       2.037567        55.4450 
  59   0.0000       2.134399        58.0800 
  60   0.0000       2.134399        58.0800 
  61   0.0000       2.149645        58.4948 
  62   0.0000       2.214520        60.2601 
  63   0.0000       2.214520        60.2601 
  64   0.0000       2.266557        61.6761 
  65   0.0000       2.314528        62.9815 
  66   0.0000       2.429404        66.1074 
  67   0.0000       2.453749        66.7699 
  68   0.0000       2.453749        66.7699 
  69   0.0000       2.466404        67.1143 
  70   0.0000       2.466404        67.1143 
  71   0.0000       2.466920        67.1283 
  72   0.0000       2.466920        67.1283 
  73   0.0000       2.523923        68.6794 
  74   0.0000       2.523923        68.6794 
  75   0.0000       2.653941        72.2174 
  76   0.0000       2.653941        72.2174 
  77   0.0000       2.698563        73.4316 
  78   0.0000       2.762933        75.1832 
  79   0.0000       2.762933        75.1832 
  80   0.0000       3.489630        94.9577 
  81   0.0000       6.034358       164.2032 
  82   0.0000       6.034358       164.2032 
  83   0.0000       6.040860       164.3801 
  84   0.0000       6.040860       164.3801 
  85   0.0000       6.049200       164.6071 
  86   0.0000       6.049200       164.6071 
  87   0.0000       6.050155       164.6331 
  88   0.0000       6.050155       164.6331 
  89   0.0000       6.078447       165.4029 
  90   0.0000       6.853188       186.4847 
  91   0.0000       6.853188       186.4847 
  92   0.0000       6.854804       186.5287 
  93   0.0000       6.854804       186.5287 
  94   0.0000       6.895175       187.6273 
  95   0.0000       6.895175       187.6273 
  96   0.0000       7.060814       192.1345 
  97   0.0000       8.700790       236.7605 
  98   0.0000       8.700790       236.7605 
  99   0.0000       8.775873       238.8036 
 100   0.0000       8.775873       238.8036 
 101   0.0000       8.876570       241.5437 
 102   0.0000      11.574269       314.9519 
 103   0.0000      11.574269       314.9519 
 104   0.0000      11.764855       320.1380 
 105   0.0000      25.660641       698.2616 

                    ********************************
                    * MULLIKEN POPULATION ANALYSIS *
                    ********************************

--------------------------------------------
MULLIKEN ATOMIC CHARGES AND SPIN POPULATIONS
--------------------------------------------
   0 Cr:    0.542966    5.032303
   1 Cl:   -0.542966   -0.032303
Sum of atomic charges         :    0.0000000
Sum of atomic spin populations:    5.0000000

-----------------------------------------------------
MULLIKEN REDUCED ORBITAL CHARGES AND SPIN POPULATIONS
-----------------------------------------------------
CHARGE
  0 Crs       :     6.878328  s :     6.878328
      pz      :     4.220354  p :    12.311520
      px      :     4.045583
      py      :     4.045583
      dz2     :     0.199916  d :     4.258604
      dxz     :     1.029507
      dyz     :     1.029507
      dx2y2   :     0.999837
      dxy     :     0.999837
      f0      :     0.004170  f :     0.008451
      f+1     :     0.002118
      f-1     :     0.002118
      f+2     :     0.000022
      f-2     :     0.000022
      f+3     :     0.000000
      f-3     :     0.000000
      g0      :     0.000065  g :     0.000130
      g+1     :     0.000022
      g-1     :     0.000022
      g+2     :     0.000010
      g-2     :     0.000010
      g+3     :     0.000000
      g-3     :     0.000000
      g+4     :     0.000000
      g-4     :     0.000000
  1 Cls       :     5.945639  s :     5.945639
      pz      :     3.740527  p :    11.574892
      px      :     3.917182
      py      :     3.917182
      dz2     :     0.010461  d :     0.020958
      dxz     :     0.005140
      dyz     :     0.005140
      dx2y2   :     0.000108
      dxy     :     0.000108
      f0      :     0.000541  f :     0.001477
      f+1     :     0.000446
      f-1     :     0.000446
      f+2     :     0.000022
      f-2     :     0.000022
      f+3     :     0.000000
      f-3     :     0.000000

SPIN
  0 Crs       :     0.787461  s :     0.787461
      pz      :     0.152554  p :     0.181763
      px      :     0.014604
      py      :     0.014604
      dz2     :     0.106261  d :     4.062410
      dxz     :     0.978238
      dyz     :     0.978238
      dx2y2   :     0.999837
      dxy     :     0.999837
      f0      :     0.000465  f :     0.000666
      f+1     :     0.000078
      f-1     :     0.000078
      f+2     :     0.000022
      f-2     :     0.000022
      f+3     :     0.000000
      f-3     :     0.000000
      g0      :    -0.000011  g :     0.000003
      g+1     :    -0.000003
      g-1     :    -0.000003
      g+2     :     0.000010
      g-2     :     0.000010
      g+3     :     0.000000
      g-3     :     0.000000
      g+4     :     0.000000
      g-4     :     0.000000
  1 Cls       :    -0.001880  s :    -0.001880
      pz      :    -0.047777  p :    -0.034285
      px      :     0.006746
      py      :     0.006746
      dz2     :     0.002754  d :     0.003252
      dxz     :     0.000141
      dyz     :     0.000141
      dx2y2   :     0.000108
      dxy     :     0.000108
      f0      :     0.000174  f :     0.000611
      f+1     :     0.000196
      f-1     :     0.000196
      f+2     :     0.000022
      f-2     :     0.000022
      f+3     :     0.000000
      f-3     :     0.000000


                     *******************************
                     * LOEWDIN POPULATION ANALYSIS *
                     *******************************

-------------------------------------------
LOEWDIN ATOMIC CHARGES AND SPIN POPULATIONS
-------------------------------------------
   0 Cr:    0.009612    4.988949
   1 Cl:   -0.009612    0.011051

----------------------------------------------------
LOEWDIN REDUCED ORBITAL CHARGES AND SPIN POPULATIONS
----------------------------------------------------
CHARGE
  0 Crs       :     6.877860  s :     6.877860
      pz      :     4.393437  p :    12.536969
      px      :     4.071766
      py      :     4.071766
      dz2     :     0.363963  d :     4.551601
      dxz     :     1.094113
      dyz     :     1.094113
      dx2y2   :     0.999706
      dxy     :     0.999706
      f0      :     0.013609  f :     0.023638
      f+1     :     0.004990
      f-1     :     0.004990
      f+2     :     0.000024
      f-2     :     0.000024
      f+3     :     0.000000
      f-3     :     0.000000
      g0      :     0.000187  g :     0.000320
      g+1     :     0.000056
      g-1     :     0.000056
      g+2     :     0.000010
      g-2     :     0.000010
      g+3     :     0.000000
      g-3     :     0.000000
      g+4     :     0.000000
      g-4     :     0.000000
  1 Cls       :     5.628660  s :     5.628660
      pz      :     3.707225  p :    11.352998
      px      :     3.822886
      py      :     3.822886
      dz2     :     0.014356  d :     0.025806
      dxz     :     0.005517
      dyz     :     0.005517
      dx2y2   :     0.000208
      dxy     :     0.000208
      f0      :     0.000702  f :     0.002148
      f+1     :     0.000671
      f-1     :     0.000671
      f+2     :     0.000052
      f-2     :     0.000052
      f+3     :     0.000000
      f-3     :     0.000000

SPIN
  0 Crs       :     0.732572  s :     0.732572
      pz      :     0.172257  p :     0.203081
      px      :     0.015412
      py      :     0.015412
      dz2     :     0.110947  d :     4.052880
      dxz     :     0.971261
      dyz     :     0.971261
      dx2y2   :     0.999706
      dxy     :     0.999706
      f0      :     0.000192  f :     0.000415
      f+1     :     0.000087
      f-1     :     0.000087
      f+2     :     0.000024
      f-2     :     0.000024
      f+3     :     0.000000
      f-3     :     0.000000
      g0      :    -0.000012  g :     0.000001
      g+1     :    -0.000004
      g-1     :    -0.000004
      g+2     :     0.000010
      g-2     :     0.000010
      g+3     :     0.000000
      g-3     :     0.000000
      g+4     :     0.000000
      g-4     :     0.000000
  1 Cls       :     0.001931  s :     0.001931
      pz      :    -0.020717  p :    -0.001223
      px      :     0.009747
      py      :     0.009747
      dz2     :     0.002774  d :     0.009042
      dxz     :     0.002926
      dyz     :     0.002926
      dx2y2   :     0.000208
      dxy     :     0.000208
      f0      :     0.000057  f :     0.001301
      f+1     :     0.000570
      f-1     :     0.000570
      f+2     :     0.000052
      f-2     :     0.000052
      f+3     :     0.000000
      f-3     :     0.000000


                      *****************************
                      * MAYER POPULATION ANALYSIS *
                      *****************************

  NA   - Mulliken gross atomic population
  ZA   - Total nuclear charge
  QA   - Mulliken gross atomic charge
  VA   - Mayer's total valence
  BVA  - Mayer's bonded valence
  FA   - Mayer's free valence

  ATOM       NA         ZA         QA         VA         BVA        FA
  0 Cr    23.4570    24.0000     0.5430     5.7853     0.8271     4.9583
  1 Cl    17.5430    17.0000    -0.5430     0.8316     0.8271     0.0045

  Mayer bond orders larger than 0.100000
B(  0-Cr,  1-Cl) :   0.8271 

-------
TIMINGS
-------

Total SCF time: 0 days 0 hours 0 min 26 sec 

Total time                  ....      26.624 sec
Sum of individual times     ....      26.010 sec  ( 97.7%)

Fock matrix formation       ....      23.921 sec  ( 89.8%)
Diagonalization             ....       1.883 sec  (  7.1%)
Density matrix formation    ....       0.067 sec  (  0.3%)
Population analysis         ....       0.005 sec  (  0.0%)
Initial guess               ....       0.110 sec  (  0.4%)
Orbital Transformation      ....       0.000 sec  (  0.0%)
Orbital Orthonormalization  ....       0.000 sec  (  0.0%)
DIIS solution               ....       0.000 sec  (  0.0%)


           ************************************************************
           *        Program running with 24 parallel MPI-processes    *
           *              working on a common directory               *
           ************************************************************


------------------------------------------------------------------------------- 
                              ORCA-MATRIX DRIVEN CI                            
------------------------------------------------------------------------------- 

--------------------------------
AUTOMATIC CHOICE OF INCORE LEVEL
--------------------------------

Memory available                           ...   2500.00 MB
Memory needed for S+T                      ...     14.35 MB
Memory needed for J+K                      ...     28.81 MB
Memory needed for DIIS                     ...    200.88 MB
Memory needed for 3-ext                    ...     56.71 MB
Memory needed for 4-ext                    ...    183.22 MB
Memory needed for triples                  ...     21.81 MB
 -> Final InCoreLevel    ... 5
 -> check shows that triples correction can be computed


Wavefunction type
-----------------
Correlation treatment                      ...      CCSD     
Single excitations                         ... ON
Orbital optimization                       ... OFF
Calculation of Z vector                    ... OFF
Calculation of Brueckner orbitals          ... OFF
Perturbative triple excitations            ... ON
Calculation of F12 correction              ... OFF
Frozen core treatment                      ... chemical core (20 el)
Reference Wavefunction                     ... UHF
  Alpha-MOs occ    :    10 ...   22 ( 13 MO's/ 13 electrons)
  Beta-MOs occ     :    10 ...   17 (  8 MO's/  8 electrons)
  Alpha-MOs virt   :    23 ...  105 ( 83 MO's              )
  Beta-MOs virt    :    18 ...  105 ( 88 MO's              )
Number of AO's                             ...    106
Number of electrons                        ...     41
Number of correlated electrons             ...     21

Algorithmic settings
--------------------
Integral transformation                    ... AO direct full transformation
K(C) Formation                             ... FULL-MO TRAFO
Maximum number of iterations               ...        50
Convergence tolerance (max. residuum)      ... 1.000e-06
Level shift for amplitude update           ... 2.000e-01
Maximum number of DIIS vectors             ...         7
DIIS turned on at iteration                ...         0
Damping before turning on DIIS             ...     0.500
Damping after turning on DIIS              ...     0.000
Pair specific amplitude update             ... OFF
Natural orbital iterations                 ... OFF
Perturbative natural orbital generation    ... OFF
Printlevel                                 ... 2

Memory handling:
----------------
Maximum memory for working arrays          ...   2500 MB
Data storage in matrix containers          ... UNCOMPRESSED
Data type for integral storage             ... DOUBLE
In-Core Storage of quantities:
   Amplitudes+Sigma Vector      ... YES
   J+K operators                ... YES
   DIIS vectors                 ... YES
   3-external integrals         ... YES
   4-external integrals         ... YES


Initializing the integral package          ... done
Warning: reference  - re-canonicalizations have been set to INT 1 VIRT 1

--------------------------
UNRESTRICTED FOCK OPERATOR
--------------------------

<ss|ss>:         1891 b           78 skpd (  4.1%)    0.001 s ( 0.001 ms/b)
<ss|sp>:         6344 b          247 skpd (  3.9%)    0.003 s ( 0.000 ms/b)
<ss|sd>:         4575 b          186 skpd (  4.1%)    0.001 s ( 0.000 ms/b)
<ss|sf>:         1952 b          110 skpd (  5.6%)    0.001 s ( 0.001 ms/b)
<ss|sg>:          671 b           32 skpd (  4.8%)    0.001 s ( 0.001 ms/b)
<ss|pp>:         3233 b          102 skpd (  3.2%)    0.002 s ( 0.001 ms/b)
<ss|pd>:         4209 b          170 skpd (  4.0%)    0.002 s ( 0.000 ms/b)
<ss|pf>:         1830 b          111 skpd (  6.1%)    0.001 s ( 0.001 ms/b)
<ss|pg>:          610 b           28 skpd (  4.6%)    0.001 s ( 0.002 ms/b)
<ss|dd>:         1708 b           63 skpd (  3.7%)    0.002 s ( 0.001 ms/b)
<ss|df>:         1281 b           68 skpd (  5.3%)    0.001 s ( 0.000 ms/b)
<ss|dg>:          427 b           20 skpd (  4.7%)    0.001 s ( 0.003 ms/b)
<ss|ff>:          366 b           14 skpd (  3.8%)    0.000 s ( 0.001 ms/b)
<ss|fg>:          183 b            7 skpd (  3.8%)    0.001 s ( 0.003 ms/b)
<ss|gg>:           61 b            2 skpd (  3.3%)    0.001 s ( 0.010 ms/b)
<sp|sp>:         5460 b          134 skpd (  2.5%)    0.002 s ( 0.000 ms/b)
<sp|sd>:         7800 b          218 skpd (  2.8%)    0.002 s ( 0.000 ms/b)
<sp|sf>:         3328 b          170 skpd (  5.1%)    0.001 s ( 0.000 ms/b)
<sp|sg>:         1144 b           44 skpd (  3.8%)    0.001 s ( 0.001 ms/b)
<sp|pp>:         5512 b           58 skpd (  1.1%)    0.003 s ( 0.001 ms/b)
<sp|pd>:         7176 b          113 skpd (  1.6%)    0.003 s ( 0.000 ms/b)
<sp|pf>:         3120 b          139 skpd (  4.5%)    0.002 s ( 0.001 ms/b)
<sp|pg>:         1040 b           24 skpd (  2.3%)    0.002 s ( 0.002 ms/b)
<sp|dd>:         2912 b           37 skpd (  1.3%)    0.004 s ( 0.001 ms/b)
<sp|df>:         2184 b           62 skpd (  2.8%)    0.002 s ( 0.001 ms/b)
<sp|dg>:          728 b           18 skpd (  2.5%)    0.002 s ( 0.003 ms/b)
<sp|ff>:          624 b            7 skpd (  1.1%)    0.001 s ( 0.002 ms/b)
<sp|fg>:          312 b            4 skpd (  1.3%)    0.001 s ( 0.005 ms/b)
<sp|gg>:          104 b            1 skpd (  1.0%)    0.002 s ( 0.019 ms/b)
<sd|sd>:         2850 b           78 skpd (  2.7%)    0.001 s ( 0.000 ms/b)
<sd|sf>:         2400 b          131 skpd (  5.5%)    0.001 s ( 0.000 ms/b)
<sd|sg>:          825 b           46 skpd (  5.6%)    0.001 s ( 0.002 ms/b)
<sd|pp>:         3975 b           50 skpd (  1.3%)    0.003 s ( 0.001 ms/b)
<sd|pd>:         5175 b           76 skpd (  1.5%)    0.004 s ( 0.001 ms/b)
<sd|pf>:         2250 b          123 skpd (  5.5%)    0.002 s ( 0.001 ms/b)
<sd|pg>:          750 b           21 skpd (  2.8%)    0.003 s ( 0.003 ms/b)
<sd|dd>:         2100 b           22 skpd (  1.0%)    0.005 s ( 0.002 ms/b)
<sd|df>:         1575 b           58 skpd (  3.7%)    0.002 s ( 0.001 ms/b)
<sd|dg>:          525 b           13 skpd (  2.5%)    0.003 s ( 0.007 ms/b)
<sd|ff>:          450 b            8 skpd (  1.8%)    0.002 s ( 0.003 ms/b)
<sd|fg>:          225 b            3 skpd (  1.3%)    0.002 s ( 0.010 ms/b)
<sd|gg>:           75 b            1 skpd (  1.3%)    0.003 s ( 0.040 ms/b)
<sf|sf>:          528 b           36 skpd (  6.8%)    0.000 s ( 0.001 ms/b)
<sf|sg>:          352 b           24 skpd (  6.8%)    0.001 s ( 0.003 ms/b)
<sf|pp>:         1696 b           49 skpd (  2.9%)    0.002 s ( 0.001 ms/b)
<sf|pd>:         2208 b           84 skpd (  3.8%)    0.003 s ( 0.001 ms/b)
<sf|pf>:          960 b           70 skpd (  7.3%)    0.002 s ( 0.002 ms/b)
<sf|pg>:          320 b           15 skpd (  4.7%)    0.002 s ( 0.006 ms/b)
<sf|dd>:          896 b           29 skpd (  3.2%)    0.003 s ( 0.004 ms/b)
<sf|df>:          672 b           44 skpd (  6.5%)    0.002 s ( 0.003 ms/b)
<sf|dg>:          224 b           10 skpd (  4.5%)    0.002 s ( 0.012 ms/b)
<sf|ff>:          192 b            6 skpd (  3.1%)    0.001 s ( 0.007 ms/b)
<sf|fg>:           96 b            3 skpd (  3.1%)    0.002 s ( 0.018 ms/b)
<sf|gg>:           32 b            1 skpd (  3.1%)    0.002 s ( 0.070 ms/b)
<sg|sg>:           66 b            7 skpd ( 10.6%)    0.000 s ( 0.004 ms/b)
<sg|pp>:          583 b           13 skpd (  2.2%)    0.002 s ( 0.003 ms/b)
<sg|pd>:          759 b           21 skpd (  2.8%)    0.002 s ( 0.003 ms/b)
<sg|pf>:          330 b           23 skpd (  7.0%)    0.001 s ( 0.003 ms/b)
<sg|pg>:          110 b            8 skpd (  7.3%)    0.001 s ( 0.012 ms/b)
<sg|dd>:          308 b            7 skpd (  2.3%)    0.002 s ( 0.008 ms/b)
<sg|df>:          231 b           16 skpd (  6.9%)    0.001 s ( 0.005 ms/b)
<sg|dg>:           77 b            6 skpd (  7.8%)    0.002 s ( 0.027 ms/b)
<sg|ff>:           66 b            1 skpd (  1.5%)    0.001 s ( 0.010 ms/b)
<sg|fg>:           33 b            2 skpd (  6.1%)    0.001 s ( 0.036 ms/b)
<sg|gg>:           11 b            0 skpd (  0.0%)    0.002 s ( 0.137 ms/b)
<pp|pp>:         1431 b            3 skpd (  0.2%)    0.002 s ( 0.002 ms/b)
<pp|pd>:         3657 b            8 skpd (  0.2%)    0.004 s ( 0.001 ms/b)
<pp|pf>:         1590 b           32 skpd (  2.0%)    0.002 s ( 0.002 ms/b)
<pp|pg>:          530 b            2 skpd (  0.4%)    0.002 s ( 0.004 ms/b)
<pp|dd>:         1484 b            3 skpd (  0.2%)    0.004 s ( 0.003 ms/b)
<pp|df>:         1113 b            8 skpd (  0.7%)    0.002 s ( 0.002 ms/b)
<pp|dg>:          371 b            2 skpd (  0.5%)    0.003 s ( 0.008 ms/b)
<pp|ff>:          318 b            0 skpd (  0.0%)    0.002 s ( 0.005 ms/b)
<pp|fg>:          159 b            0 skpd (  0.0%)    0.002 s ( 0.014 ms/b)
<pp|gg>:           53 b            0 skpd (  0.0%)    0.003 s ( 0.057 ms/b)
<pd|pd>:         2415 b            7 skpd (  0.3%)    0.006 s ( 0.002 ms/b)
<pd|pf>:         2070 b           65 skpd (  3.1%)    0.005 s ( 0.002 ms/b)
<pd|pg>:          690 b            4 skpd (  0.6%)    0.005 s ( 0.007 ms/b)
<pd|dd>:         1932 b            4 skpd (  0.2%)    0.009 s ( 0.005 ms/b)
<pd|df>:         1449 b           19 skpd (  1.3%)    0.005 s ( 0.003 ms/b)
<pd|dg>:          483 b            4 skpd (  0.8%)    0.007 s ( 0.014 ms/b)
<pd|ff>:          414 b            0 skpd (  0.0%)    0.004 s ( 0.009 ms/b)
<pd|fg>:          207 b            0 skpd (  0.0%)    0.005 s ( 0.024 ms/b)
<pd|gg>:           69 b            0 skpd (  0.0%)    0.007 s ( 0.102 ms/b)
<pf|pf>:          465 b           31 skpd (  6.7%)    0.002 s ( 0.004 ms/b)
<pf|pg>:          300 b           11 skpd (  3.7%)    0.003 s ( 0.011 ms/b)
<pf|dd>:          840 b           25 skpd (  3.0%)    0.005 s ( 0.007 ms/b)
<pf|df>:          630 b           36 skpd (  5.7%)    0.003 s ( 0.005 ms/b)
<pf|dg>:          210 b            8 skpd (  3.8%)    0.004 s ( 0.022 ms/b)
<pf|ff>:          180 b            6 skpd (  3.3%)    0.003 s ( 0.016 ms/b)
<pf|fg>:           90 b            3 skpd (  3.3%)    0.003 s ( 0.040 ms/b)
<pf|gg>:           30 b            1 skpd (  3.3%)    0.004 s ( 0.155 ms/b)
<pg|pg>:           55 b            0 skpd (  0.0%)    0.001 s ( 0.024 ms/b)
<pg|dd>:          280 b            2 skpd (  0.7%)    0.004 s ( 0.013 ms/b)
<pg|df>:          210 b            8 skpd (  3.8%)    0.002 s ( 0.009 ms/b)
<pg|dg>:           70 b            2 skpd (  2.9%)    0.003 s ( 0.044 ms/b)
<pg|ff>:           60 b            0 skpd (  0.0%)    0.001 s ( 0.021 ms/b)
<pg|fg>:           30 b            0 skpd (  0.0%)    0.002 s ( 0.075 ms/b)
<pg|gg>:           10 b            0 skpd (  0.0%)    0.003 s ( 0.265 ms/b)
<dd|dd>:          406 b            1 skpd (  0.2%)    0.005 s ( 0.012 ms/b)
<dd|df>:          588 b           11 skpd (  1.9%)    0.003 s ( 0.006 ms/b)
<dd|dg>:          196 b            1 skpd (  0.5%)    0.005 s ( 0.025 ms/b)
<dd|ff>:          168 b            0 skpd (  0.0%)    0.003 s ( 0.015 ms/b)
<dd|fg>:           84 b            0 skpd (  0.0%)    0.004 s ( 0.043 ms/b)
<dd|gg>:           28 b            0 skpd (  0.0%)    0.005 s ( 0.178 ms/b)
<df|df>:          231 b           14 skpd (  6.1%)    0.003 s ( 0.015 ms/b)
<df|dg>:          147 b            5 skpd (  3.4%)    0.005 s ( 0.035 ms/b)
<df|ff>:          126 b            4 skpd (  3.2%)    0.003 s ( 0.027 ms/b)
<df|fg>:           63 b            3 skpd (  4.8%)    0.004 s ( 0.069 ms/b)
<df|gg>:           21 b            1 skpd (  4.8%)    0.005 s ( 0.273 ms/b)
<dg|dg>:           28 b            1 skpd (  3.6%)    0.003 s ( 0.093 ms/b)
<dg|ff>:           42 b            0 skpd (  0.0%)    0.001 s ( 0.034 ms/b)
<dg|fg>:           21 b            0 skpd (  0.0%)    0.002 s ( 0.117 ms/b)
<dg|gg>:            7 b            0 skpd (  0.0%)    0.003 s ( 0.418 ms/b)
<ff|ff>:           21 b            0 skpd (  0.0%)    0.001 s ( 0.052 ms/b)
<ff|fg>:           18 b            0 skpd (  0.0%)    0.002 s ( 0.108 ms/b)
<ff|gg>:            6 b            0 skpd (  0.0%)    0.003 s ( 0.443 ms/b)
<fg|fg>:            6 b            0 skpd (  0.0%)    0.001 s ( 0.246 ms/b)
<fg|gg>:            3 b            0 skpd (  0.0%)    0.002 s ( 0.738 ms/b)
<gg|gg>:            1 b            0 skpd (  0.0%)    0.002 s ( 1.709 ms/b)
Recanonicalizing the internal orbitals
Recanonicalizing the virtual orbitals
Time needed for Fock operator              ...            0.315 sec
Reference energy                           ...  -1502.907804861
Warning: for UHF the TrafoType has to be JK
Warning: for UHF the K(C)-option cannot be MO but must be AOX

-------------------------------
PARTIAL EXCHANGE TRANSFORMATION
-------------------------------

Transformation type                        ... two-operators
Generation of integrals (i,mue|j,nue)      ... ON
Generation of integrals (mue,kappa|nue,tau)... ON
Generation of integrals (i,mue|a,nue)      ... ON
Dimension of the basis                     ...  106
Number of internal alpha-MOs               ...   13 (  10-  22)
Number of internal beta-MOs                ...    8 (  10-  17)
Number of external alpha-MOs               ...   83 (  23- 105)
Number of external beta-MOs                ...   88 (  18- 105)
Pair cutoff                                ... 0.000e+00 Eh
Number of AO pairs in the trafo            ... 5671
Total Number of distinct AO pairs          ... 5671
Memory devoted for trafo                   ... 2500.0 MB 
Max. Number of MO pairs treated together   ... 29163      
Number Format for Storage                  ... Double (8 Byte)
Integral package used                      ... LIBINT

Starting integral evaluation:
    ... done with AO integral generation
Closing buffer AOK[aa] ( 0.00 GB; CompressionRatio= 0.99)
Closing buffer AOK[bb] ( 0.00 GB; CompressionRatio= 0.98)
Closing buffer AOK[ab] ( 0.00 GB; CompressionRatio= 0.99)
Closing buffer AOK[ba] ( 0.00 GB; CompressionRatio= 0.99)
Collecting buffer AOK 
Closing buffer IAAO1[aa] ( 0.00 GB; CompressionRatio= 1.00)
Closing buffer IAAO1[bb] ( 0.00 GB; CompressionRatio= 1.00)
Closing buffer IAAO1[ab] ( 0.00 GB; CompressionRatio= 1.00)
Closing buffer IAAO1[ba] ( 0.00 GB; CompressionRatio= 1.00)
Closing buffer IAAO2[aa] ( 0.00 GB; CompressionRatio= 1.00)
Closing buffer IAAO2[bb] ( 0.00 GB; CompressionRatio= 1.00)
Closing buffer IAAO2[ab] ( 0.00 GB; CompressionRatio= 1.00)
Closing buffer IAAO2[ba] ( 0.00 GB; CompressionRatio= 1.00)
Collecting buffer IAAO 
Closing buffer PRQS    ( 0.01 GB; CompressionRatio= 1.00)
Collecting buffer PRQS 
Number of alpha/alpha MO pairs in trafo    ...   91
Number of beta /beta  MO pairs in trafo    ...   36
Number of alpha/ beta MO pairs in trafo    ...  104
------------------------
SORTING OF (i,mue|j,nue)
------------------------

SORTING OF ALPHA/ALPHA PAIRS
IBATCH = 1 of  1
Closing buffer KAO[aa] ( 0.00 GB; CompressionRatio= 1.00)
Collecting buffer KAO 
SORTING OF BETA /BETA  PAIRS
IBATCH = 1 of  1
Closing buffer KAO[bb] ( 0.00 GB; CompressionRatio= 1.00)
Collecting buffer KAO 
SORTING OF ALPHA/BETA  PAIRS
IBATCH = 1 of  1
Closing buffer KAO[ab] ( 0.00 GB; CompressionRatio= 0.999866518354)
Collecting buffer KAO[ab] 
------------------------
SORTING OF (i,mue|a,nue)
------------------------

Number of alpha/alpha (i,a) pairs in trafo  ... 1079
Number of beta /beta  (i,a) pairs in trafo  ...  704
Number of alpha/ beta (i,a) pairs in trafo  ... 1144
Number of beta /alpha (i,a) pairs in trafo  ...  664
Setting up the alpha/alpha list             ... done
Setting up the beta /beta  list             ... done
Setting up the alpha/beta  list             ... done
Setting up the beta /alpha list             ... done
    ... Now sorting (i,mue|a,nue)integrals
    ... Integrals (i,b|a,c) will be made on the fly
SORTING OF ALPHA/ALPHA PAIRS
IBATCH = 1 of  1
Closing buffer IPAQ[aa]  0.00 GB; CompressionRatio= 1.00)
SORTING OF BETA /BETA  PAIRS
IBATCH = 1 of  1
Closing buffer IPAQ[bb]( 0.00 GB; CompressionRatio= 1.00)
SORTING OF ALPHA/BETA  PAIRS (NMatSort_ab=48)
IBATCH = 1 of  1
Closing buffer IPAQ[ab]( 0.00 GB; CompressionRatio= 1.00)
SORTING OF BETA/ALPHA  PAIRS
IBATCH = 1 of  1
Closing buffer IPAQ[ba]( 0.00 GB; CompressionRatio= 1.00)
N(AO-Batches) Done                         ...      8449 
N(AO-Batches) Skipped                      ...         0 
N(IJ)-pairs Skipped                        ...         0 
TOTAL TIME for half transformation         ...     1.452 sec
AO-integral generation                     ...     0.053 sec
Half transformation                        ...     0.015 sec
K-integral sorting                         ...     0.848 sec
<ss|**>: 
------------------------------
PARTIAL COULOMB TRANSFORMATION
------------------------------

Transformation type                        ... two-operators
Dimension of the basis                     ...  106
[...]
 10  -1503.615458992     -0.672496721      0.000770501      0.000382211    5.09      0.525123370
 11  -1503.615505550     -0.672543279     -0.000046558      0.000321622    5.10      0.527571641
 12  -1503.615815399     -0.672853129     -0.000309849      0.000087183    4.99      0.533772978
 13  -1503.615843863     -0.672881592     -0.000028463      0.000039829    4.99      0.534896439
 14  -1503.615833591     -0.672871321      0.000010271      0.000017639    4.97      0.534635151
 15  -1503.615837310     -0.672875039     -0.000003718      0.000009238    4.99      0.534758732
 16  -1503.615834699     -0.672872428      0.000002611      0.000003671    4.98      0.534692898
 17  -1503.615835327     -0.672873056     -0.000000628      0.000001564    4.97      0.534714124
 18  -1503.615836101     -0.672873830     -0.000000774      0.000000911    5.04      0.534731304
               --- The Coupled-Cluster iterations have converged ---

----------------------
COUPLED CLUSTER ENERGY
----------------------

E(0)                                       ...  -1502.942962271
E(CORR)                                    ...     -0.672873830
E(TOT)                                     ...  -1503.615836101
Singles norm <S|S>**1/2                    ...      0.534731304 ( 0.512123391, 0.022607914)  
T1 diagnostic                              ...      0.116687937                              

------------------
LARGEST AMPLITUDES
------------------
  22a-> 25a  -1a-> -1a       0.565574
  22a-> 27a  -1a-> -1a       0.483263
  22a-> 34a  -1a-> -1a       0.241723
  22a-> 35a  -1a-> -1a       0.189805
  22a-> 36a  -1a-> -1a       0.086388
  22a-> 49a  -1a-> -1a       0.079272
  22a-> 26a  -1a-> -1a       0.046506
  22a-> 53a  -1a-> -1a       0.034331
  22a-> 42a  -1a-> -1a       0.032767
  17b-> 43b  16b-> 44b       0.031729
  17b-> 44b  16b-> 43b       0.031729
  15a-> 45a  -1a-> -1a       0.030359
  16a-> 46a  -1a-> -1a       0.030359
  19a-> 27a  -1a-> -1a       0.027820
  15a-> 24a  -1a-> -1a       0.027446
  16a-> 23a  -1a-> -1a       0.027446

----------------------
UHF TRIPLES CORRECTION (Algorithm 1)
----------------------

Multiplier for the singles contribution    ...      1.000000000

SPIN-CASE Alpha-Alpha-Alpha:
10% done
20% done
30% done
40% done
50% done
60% done
70% done
80% done
90% done


SPIN-CASE Beta-Beta-Beta:
10% done
20% done
30% done
40% done
50% done
60% done
70% done
80% done
90% done


SPIN-CASE Alpha-Alpha-Beta:
10% done
20% done
30% done
40% done
50% done
60% done
70% done
80% done
90% done


SPIN-CASE Beta-Beta-Alpha:
10% done
20% done
30% done
40% done
50% done
60% done
70% done
80% done
90% done


Triples Correction (T)                     ...     -0.023111956
    alpha-alpha-alpha ... -0.001860272 (  8.0%)
    alpha-alpha-beta  ... -0.012953105 ( 56.0%)
    alpha-beta -beta  ... -0.007841094 ( 33.9%)
    beta -beta -beta  ... -0.000457486 (  2.0%)
Scaling of triples based on CCSD energies (Peterson et al. Molecular Physics 113, 1551 (2015))
E(T*) = f*E(T) where f = E(F12-CCSD)/E(CCSD) 
f = CCSD (with F12)/ CCSD (without F12)    ...      1.000000000
Scaled triples correction (T)              ...     -0.023111956

Final correlation energy                   ...     -0.695985787
E(CCSD)                                    ...  -1503.615836101
E(CCSD(T))                                 ...  -1503.638948057



        !!!!!!!!!!!!!!!!!!!!!!!!!!!!!!!!!!!!!!!!!!!!!!!!!!!!!!!!!!!!!!!!!!!!!!!!!! 
        !  Warning: Densities are linearized densities                           !
        !!!!!!!!!!!!!!!!!!!!!!!!!!!!!!!!!!!!!!!!!!!!!!!!!!!!!!!!!!!!!!!!!!!!!!!!!! 

NORM  =      1.887517460 sqrt=     1.373869521
W(HF) =      0.529796424
------------------------------------------------------------------------------
                           ORCA POPULATION ANALYSIS
------------------------------------------------------------------------------
Input electron density              ... 21_CrCl.mdcip
Input spin density                  ... 21_CrCl.mdcir
BaseName (.gbw .S,...)              ... 21_CrCl

                    ********************************
                    * MULLIKEN POPULATION ANALYSIS *
                    ********************************

------------------------------------------
MULLIKEN ATOMIC CHARGES AND SPIN DENSITIES
------------------------------------------
   0 Cr:    0.550935    5.041976
   1 Cl:   -0.550935   -0.041976
Sum of atomic charges       :   -0.0000000
Sum of atomic spin densities:    5.0000000

---------------------------------------------------
MULLIKEN REDUCED ORBITAL CHARGES AND SPIN DENSITIES
---------------------------------------------------
CHARGE
  0 Crs       :     6.190294  s :     6.190294
      pz      :     3.932088  p :    12.014047
      px      :     4.040980
      py      :     4.040980
      dz2     :     1.157260  d :     5.195398
      dxz     :     1.018493
      dyz     :     1.018493
      dx2y2   :     1.000576
      dxy     :     1.000576
      f0      :     0.008206  f :     0.044280
      f+1     :     0.008172
      f-1     :     0.008172
      f+2     :     0.005093
      f-2     :     0.005093
      f+3     :     0.004773
      f-3     :     0.004773
      g0      :     0.000811  g :     0.005045
      g+1     :     0.000702
      g-1     :     0.000702
      g+2     :     0.000502
      g-2     :     0.000502
      g+3     :     0.000472
      g-3     :     0.000472
      g+4     :     0.000441
      g-4     :     0.000441
  1 Cls       :     5.952811  s :     5.952811
      pz      :     3.685908  p :    11.448252
      px      :     3.881172
      py      :     3.881172
      dz2     :     0.028198  d :     0.130302
      dxz     :     0.028511
      dyz     :     0.028511
      dx2y2   :     0.022541
      dxy     :     0.022541
      f0      :     0.002832  f :     0.016791
      f+1     :     0.003139
      f-1     :     0.003139
      f+2     :     0.002063
      f-2     :     0.002063
      f+3     :     0.001777
      f-3     :     0.001777
      g0      :     0.000403  g :     0.002780
      g+1     :     0.000376
      g-1     :     0.000376
      g+2     :     0.000293
      g-2     :     0.000293
      g+3     :     0.000262
      g-3     :     0.000262
      g+4     :     0.000257
      g-4     :     0.000257

SPIN
  0 Crs       :     0.110720  s :     0.110720
      pz      :    -0.091126  p :    -0.017558
      px      :     0.036784
      py      :     0.036784
      dz2     :     1.044602  d :     4.919911
      dxz     :     0.951155
      dyz     :     0.951155
      dx2y2   :     0.986499
      dxy     :     0.986499
      f0      :     0.003476  f :     0.026354
      f+1     :     0.003904
      f-1     :     0.003904
      f+2     :     0.003814
      f-2     :     0.003814
      f+3     :     0.003721
      f-3     :     0.003721
      g0      :     0.000262  g :     0.002550
      g+1     :     0.000283
      g-1     :     0.000283
      g+2     :     0.000290
      g-2     :     0.000290
      g+3     :     0.000298
      g-3     :     0.000298
      g+4     :     0.000273
      g-4     :     0.000273
  1 Cls       :     0.001659  s :     0.001659
      pz      :    -0.072848  p :    -0.054742
      px      :     0.009053
      py      :     0.009053
      dz2     :     0.004061  d :     0.008551
      dxz     :     0.001784
      dyz     :     0.001784
      dx2y2   :     0.000461
      dxy     :     0.000461
      f0      :     0.000906  f :     0.002279
      f+1     :     0.000592
      f-1     :     0.000592
      f+2     :     0.000085
      f-2     :     0.000085
      f+3     :     0.000009
      f-3     :     0.000009
      g0      :     0.000098  g :     0.000277
      g+1     :     0.000071
      g-1     :     0.000071
      g+2     :     0.000016
      g-2     :     0.000016
      g+3     :     0.000001
      g-3     :     0.000001
      g+4     :     0.000000
      g-4     :     0.000000


                     *******************************
                     * LOEWDIN POPULATION ANALYSIS *
                     *******************************

-----------------------------------------
LOEWDIN ATOMIC CHARGES AND SPIN DENSITIES
-----------------------------------------
   0 Cr:   -0.016665    4.977557
   1 Cl:    0.016665    0.022443

--------------------------------------------------
LOEWDIN REDUCED ORBITAL CHARGES AND SPIN DENSITIES
--------------------------------------------------
CHARGE
  0 Crs       :     6.252864  s :     6.252864
      pz      :     4.057998  p :    12.209337
      px      :     4.075670
      py      :     4.075670
      dz2     :     1.306668  d :     5.453725
      dxz     :     1.073799
      dyz     :     1.073799
      dx2y2   :     0.999730
      dxy     :     0.999730
      f0      :     0.032223  f :     0.091688
      f+1     :     0.019791
      f-1     :     0.019791
      f+2     :     0.005168
      f-2     :     0.005168
      f+3     :     0.004773
      f-3     :     0.004773
      g0      :     0.002917  g :     0.009050
      g+1     :     0.001642
      g-1     :     0.001642
      g+2     :     0.000511
      g-2     :     0.000511
      g+3     :     0.000472
      g-3     :     0.000472
      g+4     :     0.000441
      g-4     :     0.000441
  1 Cls       :     5.603247  s :     5.603247
      pz      :     3.639112  p :    11.181387
      px      :     3.771138
      py      :     3.771138
      dz2     :     0.047984  d :     0.158783
      dxz     :     0.032520
      dyz     :     0.032520
      dx2y2   :     0.022879
      dxy     :     0.022879
      f0      :     0.014493  f :     0.035560
      f+1     :     0.006306
      f-1     :     0.006306
      f+2     :     0.002450
      f-2     :     0.002450
      f+3     :     0.001777
      f-3     :     0.001777
      g0      :     0.001305  g :     0.004358
      g+1     :     0.000677
      g-1     :     0.000677
      g+2     :     0.000330
      g-2     :     0.000330
      g+3     :     0.000262
      g-3     :     0.000262
      g+4     :     0.000257
      g-4     :     0.000257

SPIN
  0 Crs       :     0.116892  s :     0.116892
      pz      :    -0.116210  p :    -0.034979
      px      :     0.040616
      py      :     0.040616
      dz2     :     1.030309  d :     4.868204
      dxz     :     0.933404
      dyz     :     0.933404
      dx2y2   :     0.985543
      dxy     :     0.985543
      f0      :     0.001209  f :     0.025096
      f+1     :     0.004383
      f-1     :     0.004383
      f+2     :     0.003840
      f-2     :     0.003840
      f+3     :     0.003721
      f-3     :     0.003721
      g0      :     0.000028  g :     0.002343
      g+1     :     0.000297
      g-1     :     0.000297
      g+2     :     0.000289
      g-2     :     0.000289
      g+3     :     0.000298
      g-3     :     0.000298
      g+4     :     0.000273
      g-4     :     0.000273
  1 Cls       :     0.000930  s :     0.000930
      pz      :    -0.037408  p :    -0.013643
      px      :     0.011882
      py      :     0.011882
      dz2     :     0.002927  d :     0.022483
      dxz     :     0.008836
      dyz     :     0.008836
      dx2y2   :     0.000942
      dxy     :     0.000942
      f0      :     0.002708  f :     0.011419
      f+1     :     0.003849
      f-1     :     0.003849
      f+2     :     0.000497
      f-2     :     0.000497
      f+3     :     0.000009
      f-3     :     0.000009
      g0      :     0.000427  g :     0.001254
      g+1     :     0.000359
      g-1     :     0.000359
      g+2     :     0.000053
      g-2     :     0.000053
      g+3     :     0.000001
      g-3     :     0.000001
      g+4     :     0.000000
      g-4     :     0.000000


                      *****************************
                      * MAYER POPULATION ANALYSIS *
                      *****************************

  NA   - Mulliken gross atomic population
  ZA   - Total nuclear charge
  QA   - Mulliken gross atomic charge
  VA   - Mayer's total valence
  BVA  - Mayer's bonded valence
  FA   - Mayer's free valence

  ATOM       NA         ZA         QA         VA         BVA        FA
  0 Cr    23.4491    24.0000     0.5509     5.2128     0.8828     4.3300
  1 Cl    17.5509    17.0000    -0.5509     1.5292     0.8828     0.6464

  Mayer bond orders larger than 0.100000
B(  0-Cr,  1-Cl) :   0.8828 



------------------------------------------------------------------------------- 
                                     TIMINGS                                   
------------------------------------------------------------------------------- 


Total execution time                   ...      125.147 sec

Fock Matrix Formation                  ...        1.070 sec (  0.9%)
Initial Guess                          ...        0.100 sec (  0.1%)
DIIS Solver                            ...        5.627 sec (  4.5%)
State Vector Update                    ...        0.253 sec (  0.2%)
Sigma-vector construction              ...       88.960 sec ( 71.1%)
  <0|H|D>                              ...        0.013 sec (  0.0% of sigma)
  <D|H|D>(0-ext Fock)                  ...        0.127 sec (  0.1% of sigma)
  <D|H|D>(0-ext)                       ...        0.669 sec (  0.8% of sigma)
  <D|H|D>(2-ext Fock)                  ...        0.038 sec (  0.0% of sigma)
  <D|H|D>(2-ext)                       ...        1.989 sec (  2.2% of sigma)
  <D|H|D>(4-ext)                       ...       50.744 sec ( 57.0% of sigma)
  <S|H|0>                              ...        4.486 sec (  5.0% of sigma)
  <S|H|S>                              ...        0.005 sec (  0.0% of sigma)
  <S|H|D>(1-ext)                       ...        0.027 sec (  0.0% of sigma)
  <D|H|S>(1-ext)                       ...        0.417 sec (  0.5% of sigma)
  Fock-dressing                        ...       14.121 sec ( 15.9% of sigma)
  (ik|jl)-dressing                     ...        0.762 sec (  0.9% of sigma)
  (ij|ab),(ia|jb)-dressing             ...       12.842 sec ( 14.4% of sigma)
  Pair energies                        ...        0.019 sec (  0.0% of sigma)
Total Time for computing (T)           ...       18.597 sec ( 14.9% of ALL)
  I/O of integral and amplitudes       ...        2.837 sec ( 15.3% of (T))
  External N**7 contributions          ...        6.624 sec ( 35.6% of (T))
  Internal N**7 contributions          ...        2.091 sec ( 11.2% of (T))
  N**6 triples energy contributions    ...        6.785 sec ( 36.5% of (T))


-------------------
EXTRAPOLATED ENERGY
-------------------


-----------------------------------------------------------------
                      EP1 - MDCI extrapolation:
-----------------------------------------------------------------
NOTE: We use as reference SCF energy, for the extrapolation, the one from the MDCI module and not the one 
from the SCF calculation. In case the first step is a DFT calculation these two might be different.

NOTE: For the SCF part we extrapolate based on the scheme proposed in J. Chem. Phys. 2008, 129, 184116
using the exponents from J. Chem. Theory Comput., 7, 33-43 (2011)

NOTE: For the correlation part we extrapolate based on the scheme proposed in J. Chem. Phys. 1997, 106, 9639
using the exponents from J. Chem. Theory Comput., 7, 33-43 (2011)


Alpha(3/4)     :  7.880 (SCF Extrapolation)
Beta(3/4)      :  2.970 (correlation extrapolation)

SCF energy with basis def2-TZVPP:                     -1502.907804861
SCF energy with basis def2-QZVPP:                     -1502.942962271
Extrapolated CBS SCF energy (3/4) :                   -1502.947804806 (-0.004842535) 

MDCI energy with basis def2-TZVPP:                       -0.642515915
MDCI energy with basis def2-QZVPP:                       -0.695985786
Extrapolated CBS correlation energy (3/4) :              -0.735593069 (-0.039607283)

Estimated CBS total energy (3/4) :                    -1503.683397876



-------------------------   --------------------
FINAL SINGLE POINT ENERGY     -1503.683397875530
-------------------------   --------------------


                            ***************************************
                            *     ORCA property calculations      *
                            ***************************************

                                    ---------------------
                                    Active property flags
                                    ---------------------
   (+) Dipole Moment


------------------------------------------------------------------------------
                       ORCA ELECTRIC PROPERTIES CALCULATION
------------------------------------------------------------------------------

Dipole Moment Calculation                       ... on
Quadrupole Moment Calculation                   ... off
Polarizability Calculation                      ... off
GBWName                                         ... 21_CrCl.gbw
Electron density file                           ... 21_CrCl.scfp
The origin for moment calculation is the CENTER OF MASS  = ( 0.000000,  0.000000  1.496825)

-------------
DIPOLE MOMENT
-------------
                                X             Y             Z
Electronic contribution:      0.00000      -0.00000      -3.08706
Nuclear contribution   :      0.00000       0.00000       1.57322
                        -----------------------------------------
Total Dipole Moment    :      0.00000      -0.00000      -1.51384
                        -----------------------------------------
Magnitude (a.u.)       :      1.51384
Magnitude (Debye)      :      3.84788



--------------------
Rotational spectrum 
--------------------
 
Rotational constants in cm-1:     0.000000     0.165568     0.165568 
Rotational constants in MHz :     0.000000  4963.604658  4963.604658 

 Dipole components along the rotational axes: 
x,y,z [a.u.] :    -1.513841    -0.000001     0.000000 
x,y,z [Debye]:    -3.847877    -0.000002     0.000001 

 

                           *** MDCI DENSITY ***

------------------------------------------------------------------------------
                       ORCA ELECTRIC PROPERTIES CALCULATION
------------------------------------------------------------------------------

Dipole Moment Calculation                       ... on
Quadrupole Moment Calculation                   ... off
Polarizability Calculation                      ... off
GBWName                                         ... 21_CrCl.gbw
Electron density file                           ... 21_CrCl.mdcip
The origin for moment calculation is the CENTER OF MASS  = ( 0.000000,  0.000000  1.496825)

-------------
DIPOLE MOMENT
-------------
                                X             Y             Z
Electronic contribution:     -0.00000       0.00000      -4.54065
Nuclear contribution   :      0.00000       0.00000       1.57322
                        -----------------------------------------
Total Dipole Moment    :     -0.00000       0.00000      -2.96743
                        -----------------------------------------
Magnitude (a.u.)       :      2.96743
Magnitude (Debye)      :      7.54262



--------------------
Rotational spectrum 
--------------------
 
Rotational constants in cm-1:     0.000000     0.165568     0.165568 
Rotational constants in MHz :     0.000000  4963.604658  4963.604658 

 Dipole components along the rotational axes: 
x,y,z [a.u.] :    -2.967434     0.000000    -0.000000 
x,y,z [Debye]:    -7.542617     0.000001    -0.000001 

 

Timings for individual modules:

Sum of individual times         ...      215.146 sec (=   3.586 min)
GTO integral calculation        ...        1.592 sec (=   0.027 min)   0.7 %
SCF iterations                  ...       53.956 sec (=   0.899 min)  25.1 %
MDCI module                     ...      159.598 sec (=   2.660 min)  74.2 %
                             ****ORCA TERMINATED NORMALLY****
TOTAL RUN TIME: 0 days 0 hours 3 minutes 36 seconds 118 msec
