
                                 *****************
                                 * O   R   C   A *
                                 *****************

           --- An Ab Initio, DFT and Semiempirical electronic structure package ---

                  #######################################################
                  #                        -***-                        #
                  #          Department of theory and spectroscopy      #
                  #               Directorship: Frank Neese             #
                  #        Max Planck Institute fuer Kohlenforschung    #
                  #                Kaiser Wilhelm Platz 1               #
                  #                 D-45470 Muelheim/Ruhr               #
                  #                      Germany                        #
                  #                                                     #
                  #                  All rights reserved                #
                  #                        -***-                        #
                  #######################################################


                         Program Version 4.2.0 -  RELEASE  -


 With contributions from (in alphabetic order):
   Daniel Aravena         : Magnetic Suceptibility
   Michael Atanasov       : Ab Initio Ligand Field Theory (pilot matlab implementation)
   Alexander A. Auer      : GIAO ZORA, VPT2
   Ute Becker             : Parallelization
   Giovanni Bistoni       : ED, misc. LED, open-shell LED, HFLED
   Martin Brehm           : Molecular dynamics
   Dmytro Bykov           : SCF Hessian
   Vijay G. Chilkuri      : MRCI spin determinant printing, contributions to CSF-ICE
   Dipayan Datta          : RHF DLPNO-CCSD density
   Achintya Kumar Dutta   : EOM-CC, STEOM-CC
   Dmitry Ganyushin       : Spin-Orbit,Spin-Spin,Magnetic field MRCI
   Miquel Garcia          : C-PCM Hessian, Gaussian charge scheme
   Yang Guo               : DLPNO-NEVPT2, CIM, IAO-localization
   Andreas Hansen         : Spin unrestricted coupled pair/coupled cluster methods
   Benjamin Helmich-Paris : CASSCF linear response (MC-RPA)
   Lee Huntington         : MR-EOM, pCC
   Robert Izsak           : Overlap fitted RIJCOSX, COSX-SCS-MP3, EOM
   Christian Kollmar      : KDIIS, OOCD, Brueckner-CCSD(T), CCSD density
   Simone Kossmann        : Meta GGA functionals, TD-DFT gradient, OOMP2, MP2 Hessian
   Martin Krupicka        : AUTO-CI
   Lucas Lang             : DCDCAS
   Dagmar Lenk            : GEPOL surface, SMD
   Dimitrios Liakos       : Extrapolation schemes; Compound Job, initial MDCI parallelization
   Dimitrios Manganas     : Further ROCIS development; embedding schemes
   Dimitrios Pantazis     : SARC Basis sets
   Taras Petrenko         : DFT Hessian,TD-DFT gradient, ASA, ECA, R-Raman, ABS, FL, XAS/XES, NRVS
   Peter Pinski           : DLPNO-MP2, DLPNO-MP2 Gradient
   Christoph Reimann      : Effective Core Potentials
   Marius Retegan         : Local ZFS, SOC
   Christoph Riplinger    : Optimizer, TS searches, QM/MM, DLPNO-CCSD(T), (RO)-DLPNO pert. Triples
   Tobias Risthaus        : Range-separated hybrids, TD-DFT gradient, RPA, STAB
   Michael Roemelt        : Original ROCIS implementation
   Masaaki Saitow         : Open-shell DLPNO-CCSD energy and density
   Barbara Sandhoefer     : DKH picture change effects
   Avijit Sen             : IP-ROCIS
   Kantharuban Sivalingam : CASSCF convergence, NEVPT2, FIC-MRCI
   Bernardo de Souza      : ESD, SOC TD-DFT
   Georgi Stoychev        : AutoAux, RI-MP2 NMR
   Willem Van den Heuvel  : Paramagnetic NMR
   Boris Wezisla          : Elementary symmetry handling
   Frank Wennmohs         : Technical directorship


 We gratefully acknowledge several colleagues who have allowed us to
 interface, adapt or use parts of their codes:
   Stefan Grimme, W. Hujo, H. Kruse,             : VdW corrections, initial TS optimization,
                  C. Bannwarth                     DFT functionals, gCP, sTDA/sTD-DF
   Ed Valeev, F. Pavosevic, A. Kumar             : LibInt (2-el integral package), F12 methods
   Garnet Chan, S. Sharma, J. Yang, R. Olivares  : DMRG
   Ulf Ekstrom                                   : XCFun DFT Library
   Mihaly Kallay                                 : mrcc  (arbitrary order and MRCC methods)
   Andreas Klamt, Michael Diedenhofen            : otool_cosmo (COSMO solvation model)
   Jiri Pittner, Ondrej Demel                    : Mk-CCSD
   Frank Weinhold                                : gennbo (NPA and NBO analysis)
   Christopher J. Cramer and Donald G. Truhlar   : smd solvation model
   Lars Goerigk                                  : TD-DFT with DH, B97 family of functionals
   V. Asgeirsson, H. Jonsson                     : NEB implementation
   FAccTs GmbH                                   : IRC, NEB, NEB-TS, Multilevel, MM, QM/MM, CI optimization
   S Lehtola, MJT Oliveira, MAL Marques          : LibXC Library


 Your calculation uses the libint2 library for the computation of 2-el integrals
 For citations please refer to: http://libint.valeyev.net

 Your ORCA version has been built with support for libXC version: 4.2.3
 For citations please refer to: https://tddft.org/programs/libxc/

 This ORCA versions uses:
   CBLAS   interface :  Fast vector & matrix operations
   LAPACKE interface :  Fast linear algebra routines
   SCALAPACK package :  Parallel linear algebra routines


----- Orbital basis set information -----
Your calculation utilizes the basis: def2-TZVPP
   F. Weigend and R. Ahlrichs, Phys. Chem. Chem. Phys. 7, 3297 (2005).

================================================================================
                                        WARNINGS
                       Please study these warnings very carefully!
================================================================================


WARNING: your system is open-shell and RHF/RKS was chosen
  ===> : WILL SWITCH to UHF/UKS


WARNING: MDCI localization with Augmented Hessian Foster-Boys
  ===> : Switching off randomization!

WARNING: Post HF methods need fully converged wavefunctions
  ===> : Setting SCFConvForced true
         You can overwrite this default with %scf ConvForced false 


INFO   : the flag for use of LIBINT has been found!

================================================================================
                                       INPUT FILE
================================================================================
NAME = 22_CrBr.in
|  1> #
|  2> # 22_CrBr ccsd(t)/cbs
|  3> #
|  4> ! ccsd(t) extrapolate(3/4,def2) verytightscf
|  5> 
|  6> *xyz 0 6
|  7>   Cr  0.00000000000000      0.00000000000000     -0.17198862284832
|  8>   Br  0.00000000000000      0.00000000000000      2.17198862284831
|  9> *
| 10> 
| 11> %maxcore 5000
| 12> %pal
| 13> nprocs 24
| 14> end
| 15> 
| 16> 
| 17>                          ****END OF INPUT****
================================================================================

                   *****************************************
                   * Extrapolated Single Point Calculation *
                   *****************************************

----- Orbital basis set information -----
Your calculation utilizes the basis: def2-TZVPP
   F. Weigend and R. Ahlrichs, Phys. Chem. Chem. Phys. 7, 3297 (2005).

----- AuxJ basis set information -----
Your calculation utilizes the auxiliary basis: def2/J
   F. Weigend, Phys. Chem. Chem. Phys. 8, 1057 (2006).

----- AuxC basis set information -----
Your calculation utilizes the auxiliary basis: def2-TZVPP/C
  H-La, Hf-Rn : A. Hellweg, C. Hattig, S. Hofener and W. Klopper, Theor. Chem. Acc. 117, 587 (2007).
        Ce-Lu : J. Chmela and M. E. Harding, Mol. Phys. (2018).

----- AuxJK basis set information -----
Your calculation utilizes the auxiliary basis: def2/JK
   H-Ba, Hf-Rn: F. Weigend, J. Comput. Chem. 29, 167 (2008).

All done

                     -----------------------------------------
                     Extrapolated Energy 1 Basis=  def2-TZVPP
                     -----------------------------------------

---------------------------------
CARTESIAN COORDINATES (ANGSTROEM)
---------------------------------
  Cr     0.000000    0.000000   -0.171989
  Br     0.000000    0.000000    2.171989

----------------------------
CARTESIAN COORDINATES (A.U.)
----------------------------
  NO LB      ZA    FRAG     MASS         X           Y           Z
   0 Cr   24.0000    0    52.000    0.000000    0.000000   -0.325011
   1 Br   35.0000    0    79.900    0.000000    0.000000    4.104464

--------------------------------
INTERNAL COORDINATES (ANGSTROEM)
--------------------------------
 Cr     0   0   0     0.000000000000     0.00000000     0.00000000
 Br     1   0   0     2.343977245697     0.00000000     0.00000000

---------------------------
INTERNAL COORDINATES (A.U.)
---------------------------
 Cr     0   0   0     0.000000000000     0.00000000     0.00000000
 Br     1   0   0     4.429475058510     0.00000000     0.00000000

---------------------
BASIS SET INFORMATION
---------------------
There are 2 groups of distinct atoms

 Group   1 Type Cr  : 17s12p7d2f1g contracted to 6s5p4d2f1g pattern {842111/63111/4111/11/1}
 Group   2 Type Br  : 17s13p8d1f contracted to 6s5p4d1f pattern {842111/64111/5111/1}

Atom   0Cr   basis set group =>   1
Atom   1Br   basis set group =>   2
---------------------------------
AUXILIARY/J BASIS SET INFORMATION
---------------------------------
There are 2 groups of distinct atoms

 Group   1 Type Cr  : 19s5p5d3f3g contracted to 8s5p5d2f3g pattern {121111111/11111/11111/21/111}
 Group   2 Type Br  : 19s5p5d3f1g contracted to 8s4p3d2f1g pattern {121111111/2111/311/21/1}

Atom   0Cr   basis set group =>   1
Atom   1Br   basis set group =>   2
---------------------------------
AUXILIARY/C BASIS SET INFORMATION
---------------------------------
There are 2 groups of distinct atoms

 Group   1 Type Cr  : 9s9p8d7f5g3h1i contracted to 9s9p8d7f5g3h1i pattern {111111111/111111111/11111111/1111111/11111/111/1}
 Group   2 Type Br  : 10s9p8d6f4g1h contracted to 10s9p8d5f4g1h pattern {1111111111/111111111/11111111/21111/1111/1}

Atom   0Cr   basis set group =>   1
Atom   1Br   basis set group =>   2
----------------------------------
AUXILIARY/JK BASIS SET INFORMATION
----------------------------------
There are 2 groups of distinct atoms

 Group   1 Type Cr  : 19s14p12d10f7g3h1i contracted to 16s13p11d9f5g3h1i pattern {4111111111111111/2111111111111/21111111111/211111111/31111/111/1}
 Group   2 Type Br  : 20s14p13d10f7g3h contracted to 17s13p12d9f6g3h pattern {41111111111111111/2111111111111/211111111111/211111111/211111/111}

Atom   0Cr   basis set group =>   1
Atom   1Br   basis set group =>   2


           ************************************************************
           *        Program running with 24 parallel MPI-processes    *
           *              working on a common directory               *
           ************************************************************
------------------------------------------------------------------------------
                           ORCA GTO INTEGRAL CALCULATION
------------------------------------------------------------------------------

                         BASIS SET STATISTICS AND STARTUP INFO

 # of primitive gaussian shells          ...   78
 # of primitive gaussian functions       ...  214
 # of contracted shells                  ...   34
 # of contracted basis functions         ...  112
 Highest angular momentum                ...    4
 Maximum contraction depth               ...    8
 Integral package used                   ... LIBINT
 Integral threshhold            Thresh   ...  1.000e-12
 Primitive cut-off              TCut     ...  1.000e-14


------------------------------ INTEGRAL EVALUATION ----------------------------


 * One electron integrals 
 Pre-screening matrix                    ... done
 Shell pair data                         ... done (   0.000 sec)



           ************************************************************
           *        Program running with 24 parallel MPI-processes    *
           *              working on a common directory               *
           ************************************************************
-------------------------------------------------------------------------------
                                 ORCA SCF
-------------------------------------------------------------------------------

------------
SCF SETTINGS
------------
Hamiltonian:
 Ab initio Hamiltonian  Method          .... Hartree-Fock(GTOs)


General Settings:
 Integral files         IntName         .... 22_CrBr
 Hartree-Fock type      HFTyp           .... UHF
 Total Charge           Charge          ....    0
 Multiplicity           Mult            ....    6
 Number of Electrons    NEL             ....   59
 Basis Dimension        Dim             ....  112
 Nuclear Repulsion      ENuc            ....    189.6387244322 Eh

Convergence Acceleration:
 DIIS                   CNVDIIS         .... on
   Start iteration      DIISMaxIt       ....    12
   Startup error        DIISStart       ....  0.200000
   # of expansion vecs  DIISMaxEq       ....     5
   Bias factor          DIISBfac        ....   1.050
   Max. coefficient     DIISMaxC        ....  10.000
 Newton-Raphson         CNVNR           .... off
 SOSCF                  CNVSOSCF        .... off
 Level Shifting         CNVShift        .... on
   Level shift para.    LevelShift      ....    0.2500
   Turn off err/grad.   ShiftErr        ....    0.0010
 Zerner damping         CNVZerner       .... off
 Static damping         CNVDamp         .... on
   Fraction old density DampFac         ....    0.7000
   Max. Damping (<1)    DampMax         ....    0.9800
   Min. Damping (>=0)   DampMin         ....    0.0000
   Turn off err/grad.   DampErr         ....    0.1000
 Fernandez-Rico         CNVRico         .... off

SCF Procedure:
 Maximum # iterations   MaxIter         ....   125
 SCF integral mode      SCFMode         .... Direct
   Integral package                     .... LIBINT
 Reset frequency        DirectResetFreq ....    20
 Integral Threshold     Thresh          ....  1.000e-12 Eh
 Primitive CutOff       TCut            ....  1.000e-14 Eh

Convergence Tolerance:
 Convergence Check Mode ConvCheckMode   .... Total+1el-Energy
 Convergence forced     ConvForced      .... 1
 Energy Change          TolE            ....  1.000e-09 Eh
 1-El. energy change                    ....  1.000e-06 Eh
 DIIS Error             TolErr          ....  1.000e-08


Diagonalization of the overlap matrix:
Smallest eigenvalue                        ... 6.958e-03
Time for diagonalization                   ...    0.004 sec
Threshold for overlap eigenvalues          ... 1.000e-08
Number of eigenvalues below threshold      ... 0
Time for construction of square roots      ...    0.002 sec
Total time needed                          ...    0.006 sec

-------------------
DFT GRID GENERATION
-------------------

General Integration Accuracy     IntAcc      ...  4.340
Radial Grid Type                 RadialGrid  ... Gauss-Chebyshev
Angular Grid (max. acc.)         AngularGrid ... Lebedev-110
Angular grid pruning method      GridPruning ... 3 (G Style)
Weight generation scheme         WeightScheme... Becke
Basis function cutoff            BFCut       ...    1.0000e-12
Integration weight cutoff        WCut        ...    1.0000e-14
Grids for H and He will be reduced by one unit

# of grid points (after initial pruning)     ...   5862 (   0.0 sec)
# of grid points (after weights+screening)   ...   5838 (   0.0 sec)
nearest neighbour list constructed           ...    0.0 sec
Grid point re-assignment to atoms done       ...    0.0 sec
Grid point division into batches done        ...    0.0 sec
Reduced shell lists constructed in    0.0 sec

Total number of grid points                  ...     5838
Total number of batches                      ...       92
Average number of points per batch           ...       63
Average number of grid points per atom       ...     2919
Average number of shells per batch           ...     8.80 (25.88%)
Average number of basis functions per batch  ...    26.40 (23.57%)
Average number of large shells per batch     ...     6.80 (77.27%)
Average number of large basis fcns per batch ...    19.60 (74.24%)
Maximum spatial batch extension              ...  18.98, 28.73, 16.39 au
Average spatial batch extension              ...   0.76,  1.04,  0.71 au

Time for grid setup =    0.029 sec

------------------------------
INITIAL GUESS: MODEL POTENTIAL
------------------------------
Loading Hartree-Fock densities                     ... done
Calculating cut-offs                               ... done
Setting up the integral package                    ... done
Initializing the effective Hamiltonian             ... done
Starting the Coulomb interaction                   ... done (   0.0 sec)
Reading the grid                                   ... done
Mapping shells                                     ... done
Starting the XC term evaluation                    ... done (   0.0 sec)
Transforming the Hamiltonian                       ... done (   0.0 sec)
Diagonalizing the Hamiltonian                      ... done (   0.0 sec)
Back transforming the eigenvectors                 ... done (   0.0 sec)
Now organizing SCF variables                       ... done
                      ------------------
                      INITIAL GUESS DONE (   0.1 sec)
                      ------------------
--------------
SCF ITERATIONS
--------------
ITER       Energy         Delta-E        Max-DP      RMS-DP      [F,P]     Damp
               ***  Starting incremental Fock matrix formation  ***
  0  -3615.6741876667   0.000000000000 0.02689757  0.00062096  0.1586632 0.7000
  1  -3615.7125283434  -0.038340676787 0.02383863  0.00050164  0.0998764 0.7000
                               ***Turning on DIIS***
  2  -3615.7390512009  -0.026522857431 0.06147162  0.00124672  0.0643365 0.0000
  3  -3615.7290035528   0.010047648114 0.01249920  0.00040468  0.0228570 0.0000
  4  -3615.9094330673  -0.180429514558 0.00593174  0.00021830  0.0149436 0.0000
  5  -3615.8111675005   0.098265566787 0.00372220  0.00011894  0.0050730 0.0000
  6  -3615.8088392641   0.002328236391 0.00205220  0.00006819  0.0020126 0.0000
  7  -3615.8118338334  -0.002994569288 0.00163769  0.00005480  0.0009954 0.0000
  8  -3615.8147627580  -0.002928924528 0.00115191  0.00003155  0.0005466 0.0000
  9  -3615.8155558300  -0.000793072028 0.00149526  0.00002319  0.0004842 0.0000
 10  -3615.8152793720   0.000276458006 0.00137556  0.00001527  0.0003901 0.0000
 11  -3615.8115717165   0.003707655489 0.00226932  0.00002355  0.0003448 0.0000
 12  -3615.8079780920   0.003593624437 0.00304044  0.00003124  0.0002583 0.0000
 13  -3615.8073814845   0.000596607539 0.00273303  0.00002826  0.0001391 0.0000
 14  -3615.8131165369  -0.005735052382 0.00047272  0.00000507  0.0000397 0.0000
 15  -3615.8134493389  -0.000332801967 0.00037598  0.00000394  0.0000175 0.0000
 16  -3615.8144529509  -0.001003612078 0.00001350  0.00000027  0.0000044 0.0000
 17  -3615.8143887634   0.000064187519 0.00001981  0.00000023  0.0000029 0.0000
 18  -3615.8144740614  -0.000085298008 0.00000734  0.00000011  0.0000018 0.0000
 19  -3615.8144274332   0.000046628236 0.00000964  0.00000011  0.0000014 0.0000
               *** Restarting incremental Fock matrix formation ***
                                   *** Resetting DIIS ***
 20  -3615.8144310565  -0.000003623310 0.00000220  0.00000002  0.0000010 0.0000
 21  -3615.8144309353   0.000000121205 0.00000205  0.00000002  0.0000010 0.0000
 22  -3615.8144181431   0.000012792209 0.00000652  0.00000007  0.0000008 0.0000
 23  -3615.8144163502   0.000001792891 0.00000713  0.00000007  0.0000006 0.0000
 24  -3615.8144222188  -0.000005868613 0.00000364  0.00000004  0.0000003 0.0000
 25  -3615.8144254576  -0.000003238771 0.00000216  0.00000002  0.0000001 0.0000
 26  -3615.8144289231  -0.000003465540 0.00000094  0.00000001  0.0000000 0.0000
                            ***DIIS convergence achieved***

               *****************************************************
               *                     SUCCESS                       *
               *           SCF CONVERGED AFTER  27 CYCLES          *
               *****************************************************


----------------
TOTAL SCF ENERGY
----------------

Total Energy       :        -3615.81443084 Eh          -98391.31278 eV

Components:
Nuclear Repulsion  :          189.63872443 Eh            5160.33204 eV
Electronic Energy  :        -3805.45315527 Eh         -103551.64482 eV
One Electron Energy:        -5403.51440558 Eh         -147037.10220 eV
Two Electron Energy:         1598.06125031 Eh           43485.45738 eV

Virial components:
Potential Energy   :        -7231.63955516 Eh         -196782.91655 eV
Kinetic Energy     :         3615.82512432 Eh           98391.60377 eV
Virial Ratio       :            1.99999704


---------------
SCF CONVERGENCE
---------------

  Last Energy change         ...   -1.9141e-06  Tolerance :   1.0000e-09
  Last MAX-Density change    ...    2.7206e-08  Tolerance :   1.0000e-08
  Last RMS-Density change    ...    6.8026e-10  Tolerance :   1.0000e-09
  Last DIIS Error            ...    9.2199e-09  Tolerance :   1.0000e-08

             **** THE GBW FILE WAS UPDATED (22_CrBr.gbw) ****
             **** DENSITY FILE WAS UPDATED (22_CrBr.scfp) ****
             **** ENERGY FILE WAS UPDATED (22_CrBr.en.tmp) ****
----------------------
UHF SPIN CONTAMINATION
----------------------

Expectation value of <S**2>     :     8.771110
Ideal value S*(S+1) for S=2.5   :     8.750000
Deviation                       :     0.021110

             **** THE GBW FILE WAS UPDATED (22_CrBr.gbw) ****
             **** DENSITY FILE WAS UPDATED (22_CrBr.scfp) ****
----------------
ORBITAL ENERGIES
----------------
                 SPIN UP ORBITALS
  NO   OCC          E(Eh)            E(eV) 
   0   1.0000    -489.937405    -13331.8746 
   1   1.0000    -220.439188     -5998.4553 
   2   1.0000     -65.080596     -1770.9330 
   3   1.0000     -58.434938     -1590.0955 
   4   1.0000     -58.434938     -1590.0955 
   5   1.0000     -58.434561     -1590.0852 
   6   1.0000     -26.313595      -716.0293 
   7   1.0000     -22.244486      -605.3032 
   8   1.0000     -22.244486      -605.3032 
   9   1.0000     -22.240770      -605.2021 
  10   1.0000      -9.753686      -265.4113 
  11   1.0000      -7.361621      -200.3199 
  12   1.0000      -7.361379      -200.3133 
  13   1.0000      -7.361379      -200.3133 
  14   1.0000      -3.507949       -95.4561 
  15   1.0000      -3.103662       -84.4549 
  16   1.0000      -3.102966       -84.4360 
  17   1.0000      -3.102966       -84.4360 
  18   1.0000      -3.101652       -84.4003 
  19   1.0000      -3.101652       -84.4003 
  20   1.0000      -2.314496       -62.9806 
  21   1.0000      -2.311160       -62.8899 
  22   1.0000      -2.311160       -62.8899 
  23   1.0000      -0.915828       -24.9210 
  24   1.0000      -0.445698       -12.1281 
  25   1.0000      -0.445698       -12.1281 
  26   1.0000      -0.424519       -11.5518 
  27   1.0000      -0.423779       -11.5316 
  28   1.0000      -0.423779       -11.5316 
  29   1.0000      -0.343150        -9.3376 
  30   1.0000      -0.343150        -9.3376 
  31   1.0000      -0.337217        -9.1761 
  32   0.0000      -0.010683        -0.2907 
  33   0.0000       0.069051         1.8790 
  34   0.0000       0.069051         1.8790 
  35   0.0000       0.119252         3.2450 
  36   0.0000       0.148105         4.0301 
  37   0.0000       0.148105         4.0301 
  38   0.0000       0.173300         4.7157 
  39   0.0000       0.173300         4.7157 
  40   0.0000       0.175639         4.7794 
  41   0.0000       0.229784         6.2527 
  42   0.0000       0.393787        10.7155 
  43   0.0000       0.393787        10.7155 
  44   0.0000       0.402963        10.9652 
  45   0.0000       0.459392        12.5007 
  46   0.0000       0.480571        13.0770 
  47   0.0000       0.480571        13.0770 
  48   0.0000       0.523002        14.2316 
  49   0.0000       0.523002        14.2316 
  50   0.0000       0.579793        15.7770 
  51   0.0000       0.579793        15.7770 
  52   0.0000       0.629898        17.1404 
  53   0.0000       0.629898        17.1404 
  54   0.0000       0.690158        18.7801 
  55   0.0000       0.735763        20.0211 
  56   0.0000       0.735763        20.0211 
  57   0.0000       0.817394        22.2424 
  58   0.0000       1.215344        33.0712 
  59   0.0000       1.524597        41.4864 
  60   0.0000       1.631869        44.4054 
  61   0.0000       1.631869        44.4054 
  62   0.0000       1.651470        44.9388 
  63   0.0000       1.651470        44.9388 
  64   0.0000       1.723630        46.9024 
  65   0.0000       1.723630        46.9024 
  66   0.0000       1.733891        47.1816 
  67   0.0000       1.733891        47.1816 
  68   0.0000       1.736597        47.2552 
  69   0.0000       1.736597        47.2552 
  70   0.0000       1.885556        51.3086 
  71   0.0000       1.885556        51.3086 
  72   0.0000       1.920048        52.2472 
  73   0.0000       1.937601        52.7248 
  74   0.0000       1.937601        52.7248 
  75   0.0000       1.979519        53.8655 
  76   0.0000       1.994885        54.2836 
  77   0.0000       1.994885        54.2836 
  78   0.0000       2.035840        55.3980 
  79   0.0000       2.035840        55.3980 
  80   0.0000       2.125515        57.8382 
  81   0.0000       2.243915        61.0600 
  82   0.0000       2.243915        61.0600 
  83   0.0000       2.298782        62.5531 
  84   0.0000       2.442807        66.4722 
  85   0.0000       2.442807        66.4722 
  86   0.0000       2.460096        66.9426 
  87   0.0000       2.460096        66.9426 
  88   0.0000       2.500751        68.0489 
  89   0.0000       2.939848        79.9973 
  90   0.0000       4.517736       122.9338 
  91   0.0000       4.517736       122.9338 
  92   0.0000       4.574132       124.4685 
  93   0.0000       4.574132       124.4685 
  94   0.0000       4.668555       127.0378 
  95   0.0000       6.038920       164.3274 
  96   0.0000       6.038920       164.3274 
  97   0.0000       6.039691       164.3483 
  98   0.0000       6.039691       164.3483 
  99   0.0000       6.040877       164.3806 
 100   0.0000       6.040877       164.3806 
 101   0.0000       6.054240       164.7442 
 102   0.0000       6.054240       164.7442 
 103   0.0000       6.101354       166.0263 
 104   0.0000       6.751602       183.7204 
 105   0.0000       6.751602       183.7204 
 106   0.0000       6.751851       183.7272 
 107   0.0000       6.751851       183.7272 
 108   0.0000       6.820457       185.5941 
 109   0.0000       6.820457       185.5941 
 110   0.0000       7.018827       190.9920 
 111   0.0000       8.123686       221.0567 

                 SPIN DOWN ORBITALS
  NO   OCC          E(Eh)            E(eV) 
   0   1.0000    -489.937997    -13331.8907 
   1   1.0000    -220.438160     -5998.4273 
   2   1.0000     -65.080922     -1770.9419 
   3   1.0000     -58.435861     -1590.1206 
   4   1.0000     -58.435170     -1590.1018 
   5   1.0000     -58.435170     -1590.1018 
   6   1.0000     -26.215233      -713.3528 
   7   1.0000     -22.147013      -602.6509 
   8   1.0000     -22.145766      -602.6169 
   9   1.0000     -22.145766      -602.6169 
  10   1.0000      -9.754852      -265.4430 
  11   1.0000      -7.364841      -200.4075 
  12   1.0000      -7.361869      -200.3266 
  13   1.0000      -7.361869      -200.3266 
  14   1.0000      -3.171096       -86.2899 
  15   1.0000      -3.104701       -84.4832 
  16   1.0000      -3.103890       -84.4611 
  17   1.0000      -3.103890       -84.4611 
  18   1.0000      -3.101833       -84.4052 
  19   1.0000      -3.101833       -84.4052 
  20   1.0000      -1.904721       -51.8301 
  21   1.0000      -1.896760       -51.6135 
  22   1.0000      -1.896760       -51.6135 
  23   1.0000      -0.923062       -25.1178 
  24   1.0000      -0.394606       -10.7378 
  25   1.0000      -0.362376        -9.8608 
  26   1.0000      -0.362376        -9.8608 
  27   0.0000       0.004140         0.1127 
  28   0.0000       0.089220         2.4278 
  29   0.0000       0.089220         2.4278 
  30   0.0000       0.103454         2.8151 
  31   0.0000       0.139748         3.8027 
  32   0.0000       0.139748         3.8027 
  33   0.0000       0.177074         4.8184 
  34   0.0000       0.177074         4.8184 
  35   0.0000       0.202789         5.5182 
  36   0.0000       0.246227         6.7002 
  37   0.0000       0.324616         8.8332 
  38   0.0000       0.324616         8.8332 
  39   0.0000       0.325820         8.8660 
  40   0.0000       0.353983         9.6324 
  41   0.0000       0.353983         9.6324 
  42   0.0000       0.424395        11.5484 
  43   0.0000       0.437881        11.9154 
  44   0.0000       0.437881        11.9154 
  45   0.0000       0.518264        14.1027 
  46   0.0000       0.518264        14.1027 
  47   0.0000       0.524916        14.2837 
  48   0.0000       0.529678        14.4133 
  49   0.0000       0.529678        14.4133 
  50   0.0000       0.650934        17.7128 
  51   0.0000       0.650934        17.7128 
  52   0.0000       0.774877        21.0855 
  53   0.0000       0.792619        21.5683 
  54   0.0000       0.792619        21.5683 
  55   0.0000       0.834832        22.7169 
  56   0.0000       0.834832        22.7169 
  57   0.0000       0.863517        23.4975 
  58   0.0000       1.226428        33.3728 
  59   0.0000       1.556628        42.3580 
  60   0.0000       1.667577        45.3771 
  61   0.0000       1.667577        45.3771 
  62   0.0000       1.671611        45.4869 
  63   0.0000       1.671611        45.4869 
  64   0.0000       1.761552        47.9343 
  65   0.0000       1.761552        47.9343 
  66   0.0000       1.794391        48.8279 
  67   0.0000       1.794391        48.8279 
  68   0.0000       1.869040        50.8592 
  69   0.0000       1.869040        50.8592 
  70   0.0000       1.893200        51.5166 
  71   0.0000       1.893200        51.5166 
  72   0.0000       1.935459        52.6665 
  73   0.0000       1.983323        53.9690 
  74   0.0000       1.983323        53.9690 
  75   0.0000       2.007343        54.6226 
  76   0.0000       2.009463        54.6803 
  77   0.0000       2.009463        54.6803 
  78   0.0000       2.124078        57.7991 
  79   0.0000       2.124078        57.7991 
  80   0.0000       2.229305        60.6625 
  81   0.0000       2.304254        62.7019 
  82   0.0000       2.304254        62.7019 
  83   0.0000       2.419241        65.8309 
  84   0.0000       2.606570        70.9284 
  85   0.0000       2.625453        71.4422 
  86   0.0000       2.625453        71.4422 
  87   0.0000       2.640641        71.8555 
  88   0.0000       2.640641        71.8555 
  89   0.0000       3.023573        82.2756 
  90   0.0000       4.517338       122.9230 
  91   0.0000       4.517338       122.9230 
  92   0.0000       4.572781       124.4317 
  93   0.0000       4.572781       124.4317 
  94   0.0000       4.674553       127.2010 
  95   0.0000       6.163033       167.7046 
  96   0.0000       6.163033       167.7046 
  97   0.0000       6.166665       167.8035 
  98   0.0000       6.166665       167.8035 
  99   0.0000       6.168847       167.8629 
 100   0.0000       6.168847       167.8629 
 101   0.0000       6.173039       167.9769 
 102   0.0000       6.173039       167.9769 
 103   0.0000       6.218837       169.2232 
 104   0.0000       6.989241       190.1869 
 105   0.0000       6.989241       190.1869 
 106   0.0000       6.997163       190.4025 
 107   0.0000       6.997163       190.4025 
 108   0.0000       7.050775       191.8614 
 109   0.0000       7.050775       191.8614 
 110   0.0000       7.229760       196.7318 
 111   0.0000       8.122436       221.0227 

                    ********************************
                    * MULLIKEN POPULATION ANALYSIS *
                    ********************************

--------------------------------------------
MULLIKEN ATOMIC CHARGES AND SPIN POPULATIONS
--------------------------------------------
   0 Cr:    0.581354    5.094482
   1 Br:   -0.581354   -0.094482
Sum of atomic charges         :   -0.0000000
Sum of atomic spin populations:    5.0000000

-----------------------------------------------------
MULLIKEN REDUCED ORBITAL CHARGES AND SPIN POPULATIONS
-----------------------------------------------------
CHARGE
  0 Crs       :     6.304018  s :     6.304018
      pz      :     4.063700  p :    12.155502
      px      :     4.045901
      py      :     4.045901
      dz2     :     0.919139  d :     4.954611
      dxz     :     1.017986
      dyz     :     1.017986
      dx2y2   :     0.999749
      dxy     :     0.999749
      f0      :     0.002090  f :     0.004476
      f+1     :     0.001121
      f-1     :     0.001121
      f+2     :     0.000071
      f-2     :     0.000071
      f+3     :     0.000000
      f-3     :     0.000000
      g0      :     0.000022  g :     0.000040
      g+1     :     0.000009
      g-1     :     0.000009
      g+2     :     0.000000
      g-2     :     0.000000
      g+3     :     0.000000
      g-3     :     0.000000
      g+4     :     0.000000
      g-4     :     0.000000
  1 Brs       :     7.935096  s :     7.935096
      pz      :     5.765782  p :    17.626480
      px      :     5.930349
      py      :     5.930349
      dz2     :     2.009090  d :    10.017431
      dxz     :     2.004030
      dyz     :     2.004030
      dx2y2   :     2.000140
      dxy     :     2.000140
      f0      :     0.001063  f :     0.002347
      f+1     :     0.000603
      f-1     :     0.000603
      f+2     :     0.000039
      f-2     :     0.000039
      f+3     :     0.000000
      f-3     :     0.000000

SPIN
  0 Crs       :     0.220719  s :     0.220719
      pz      :     0.013329  p :     0.052165
      px      :     0.019418
      py      :     0.019418
      dz2     :     0.857315  d :     4.821131
      dxz     :     0.982151
      dyz     :     0.982151
      dx2y2   :     0.999757
      dxy     :     0.999757
      f0      :     0.000114  f :     0.000469
      f+1     :     0.000106
      f-1     :     0.000106
      f+2     :     0.000072
      f-2     :     0.000072
      f+3     :     0.000000
      f-3     :     0.000000
      g0      :    -0.000002  g :    -0.000003
      g+1     :    -0.000001
      g-1     :    -0.000001
      g+2     :     0.000000
      g-2     :     0.000000
      g+3     :     0.000000
      g-3     :     0.000000
      g+4     :     0.000000
      g-4     :     0.000000
  1 Brs       :    -0.007462  s :    -0.007462
      pz      :    -0.088582  p :    -0.092946
      px      :    -0.002182
      py      :    -0.002182
      dz2     :     0.003897  d :     0.004480
      dxz     :     0.000159
      dyz     :     0.000159
      dx2y2   :     0.000133
      dxy     :     0.000133
      f0      :     0.000673  f :     0.001446
      f+1     :     0.000348
      f-1     :     0.000348
      f+2     :     0.000038
      f-2     :     0.000038
      f+3     :     0.000000
      f-3     :     0.000000


                     *******************************
                     * LOEWDIN POPULATION ANALYSIS *
                     *******************************

-------------------------------------------
LOEWDIN ATOMIC CHARGES AND SPIN POPULATIONS
-------------------------------------------
   0 Cr:    0.001255    5.028488
   1 Br:   -0.001255   -0.028488

----------------------------------------------------
LOEWDIN REDUCED ORBITAL CHARGES AND SPIN POPULATIONS
----------------------------------------------------
CHARGE
  0 Crs       :     6.351808  s :     6.351808
      pz      :     4.225488  p :    12.377573
      px      :     4.076042
      py      :     4.076042
      dz2     :     1.081786  d :     5.253916
      dxz     :     1.086694
      dyz     :     1.086694
      dx2y2   :     0.999371
      dxy     :     0.999371
      f0      :     0.008727  f :     0.015309
      f+1     :     0.003215
      f-1     :     0.003215
      f+2     :     0.000076
      f-2     :     0.000076
      f+3     :     0.000000
      f-3     :     0.000000
      g0      :     0.000084  g :     0.000140
      g+1     :     0.000028
      g-1     :     0.000028
      g+2     :     0.000000
      g-2     :     0.000000
      g+3     :     0.000000
      g-3     :     0.000000
      g+4     :     0.000000
      g-4     :     0.000000
  1 Brs       :     7.602652  s :     7.602652
      pz      :     5.707364  p :    17.358754
      px      :     5.825695
      py      :     5.825695
      dz2     :     2.020250  d :    10.035760
      dxz     :     2.007294
      dyz     :     2.007294
      dx2y2   :     2.000461
      dxy     :     2.000461
      f0      :     0.001841  f :     0.004088
      f+1     :     0.001032
      f-1     :     0.001032
      f+2     :     0.000092
      f-2     :     0.000092
      f+3     :     0.000000
      f-3     :     0.000000

SPIN
  0 Crs       :     0.198126  s :     0.198126
      pz      :     0.000619  p :     0.042536
      px      :     0.020959
      py      :     0.020959
      dz2     :     0.847629  d :     4.788117
      dxz     :     0.970877
      dyz     :     0.970877
      dx2y2   :     0.999367
      dxy     :     0.999367
      f0      :    -0.000734  f :    -0.000279
      f+1     :     0.000151
      f-1     :     0.000151
      f+2     :     0.000076
      f-2     :     0.000076
      f+3     :     0.000000
      f-3     :     0.000000
      g0      :    -0.000010  g :    -0.000012
      g+1     :    -0.000001
      g-1     :    -0.000001
      g+2     :     0.000000
      g-2     :     0.000000
      g+3     :     0.000000
      g-3     :     0.000000
      g+4     :     0.000000
      g-4     :     0.000000
  1 Brs       :    -0.001483  s :    -0.001483
      pz      :    -0.049213  p :    -0.046509
      px      :     0.001352
      py      :     0.001352
      dz2     :     0.003934  d :     0.016281
      dxz     :     0.005708
      dyz     :     0.005708
      dx2y2   :     0.000465
      dxy     :     0.000465
      f0      :     0.001132  f :     0.003223
      f+1     :     0.000954
      f-1     :     0.000954
      f+2     :     0.000091
      f-2     :     0.000091
      f+3     :     0.000000
      f-3     :     0.000000


                      *****************************
                      * MAYER POPULATION ANALYSIS *
                      *****************************

  NA   - Mulliken gross atomic population
  ZA   - Total nuclear charge
  QA   - Mulliken gross atomic charge
  VA   - Mayer's total valence
  BVA  - Mayer's bonded valence
  FA   - Mayer's free valence

  ATOM       NA         ZA         QA         VA         BVA        FA
  0 Cr    23.4186    24.0000     0.5814     5.7482     0.7867     4.9615
  1 Br    35.5814    35.0000    -0.5814     0.7984     0.7867     0.0117

  Mayer bond orders larger than 0.100000
B(  0-Cr,  1-Br) :   0.7867 

-------
TIMINGS
-------

Total SCF time: 0 days 0 hours 0 min 5 sec 

Total time                  ....       5.278 sec
Sum of individual times     ....       4.970 sec  ( 94.2%)

Fock matrix formation       ....       4.690 sec  ( 88.9%)
Diagonalization             ....       0.083 sec  (  1.6%)
Density matrix formation    ....       0.013 sec  (  0.3%)
Population analysis         ....       0.006 sec  (  0.1%)
Initial guess               ....       0.107 sec  (  2.0%)
Orbital Transformation      ....       0.000 sec  (  0.0%)
Orbital Orthonormalization  ....       0.000 sec  (  0.0%)
DIIS solution               ....       0.041 sec  (  0.8%)


           ************************************************************
           *        Program running with 24 parallel MPI-processes    *
           *              working on a common directory               *
           ************************************************************


------------------------------------------------------------------------------- 
                              ORCA-MATRIX DRIVEN CI                            
------------------------------------------------------------------------------- 

--------------------------------
AUTOMATIC CHOICE OF INCORE LEVEL
--------------------------------

Memory available                           ...   2500.00 MB
Memory needed for S+T                      ...     25.05 MB
Memory needed for J+K                      ...     50.31 MB
Memory needed for DIIS                     ...    350.68 MB
Memory needed for 3-ext                    ...     70.31 MB
Memory needed for 4-ext                    ...    158.20 MB
Memory needed for triples                  ...     19.53 MB
 -> Final InCoreLevel    ... 5
 -> check shows that triples correction can be computed


Wavefunction type
-----------------
Correlation treatment                      ...      CCSD     
Single excitations                         ... ON
Orbital optimization                       ... OFF
Calculation of Z vector                    ... OFF
Calculation of Brueckner orbitals          ... OFF
Perturbative triple excitations            ... ON
Calculation of F12 correction              ... OFF
Frozen core treatment                      ... chemical core (28 el)
Reference Wavefunction                     ... UHF
  Alpha-MOs occ    :    14 ...   31 ( 18 MO's/ 18 electrons)
  Beta-MOs occ     :    14 ...   26 ( 13 MO's/ 13 electrons)
  Alpha-MOs virt   :    32 ...  111 ( 80 MO's              )
  Beta-MOs virt    :    27 ...  111 ( 85 MO's              )
Number of AO's                             ...    112
Number of electrons                        ...     59
Number of correlated electrons             ...     31

Algorithmic settings
--------------------
Integral transformation                    ... AO direct full transformation
K(C) Formation                             ... FULL-MO TRAFO
Maximum number of iterations               ...        50
Convergence tolerance (max. residuum)      ... 1.000e-06
Level shift for amplitude update           ... 2.000e-01
Maximum number of DIIS vectors             ...         7
DIIS turned on at iteration                ...         0
Damping before turning on DIIS             ...     0.500
Damping after turning on DIIS              ...     0.000
Pair specific amplitude update             ... OFF
Natural orbital iterations                 ... OFF
Perturbative natural orbital generation    ... OFF
Printlevel                                 ... 2

Memory handling:
----------------
Maximum memory for working arrays          ...   2500 MB
Data storage in matrix containers          ... UNCOMPRESSED
Data type for integral storage             ... DOUBLE
In-Core Storage of quantities:
   Amplitudes+Sigma Vector      ... YES
   J+K operators                ... YES
   DIIS vectors                 ... YES
   3-external integrals         ... YES
   4-external integrals         ... YES


Initializing the integral package          ... done
Warning: reference  - re-canonicalizations have been set to INT 1 VIRT 1

--------------------------
UNRESTRICTED FOCK OPERATOR
--------------------------

<ss|ss>:         2485 b          116 skpd (  4.7%)    0.001 s ( 0.000 ms/b)
<ss|sp>:         7980 b          448 skpd (  5.6%)    0.002 s ( 0.000 ms/b)
<ss|sd>:         6510 b          269 skpd (  4.1%)    0.002 s ( 0.000 ms/b)
<ss|sf>:         2380 b          110 skpd (  4.6%)    0.000 s ( 0.000 ms/b)
<ss|sg>:          840 b           59 skpd (  7.0%)    0.001 s ( 0.001 ms/b)
<ss|pp>:         3780 b          180 skpd (  4.8%)    0.002 s ( 0.000 ms/b)
<ss|pd>:         5530 b          235 skpd (  4.2%)    0.002 s ( 0.000 ms/b)
<ss|pf>:         2030 b           72 skpd (  3.5%)    0.001 s ( 0.000 ms/b)
<ss|pg>:          700 b           41 skpd (  5.9%)    0.001 s ( 0.001 ms/b)
<ss|dd>:         2520 b           78 skpd (  3.1%)    0.002 s ( 0.001 ms/b)
<ss|df>:         1680 b           68 skpd (  4.0%)    0.001 s ( 0.000 ms/b)
<ss|dg>:          560 b           24 skpd (  4.3%)    0.001 s ( 0.002 ms/b)
<ss|ff>:          420 b           13 skpd (  3.1%)    0.000 s ( 0.001 ms/b)
<ss|fg>:          210 b            7 skpd (  3.3%)    0.000 s ( 0.002 ms/b)
<ss|gg>:           70 b            2 skpd (  2.9%)    0.001 s ( 0.010 ms/b)
<sp|sp>:         6555 b          434 skpd (  6.6%)    0.003 s ( 0.000 ms/b)
<sp|sd>:        10602 b          570 skpd (  5.4%)    0.004 s ( 0.000 ms/b)
<sp|sf>:         3876 b          242 skpd (  6.2%)    0.001 s ( 0.000 ms/b)
<sp|sg>:         1368 b          145 skpd ( 10.6%)    0.001 s ( 0.001 ms/b)
<sp|pp>:         6156 b          305 skpd (  5.0%)    0.003 s ( 0.001 ms/b)
<sp|pd>:         9006 b          431 skpd (  4.8%)    0.006 s ( 0.001 ms/b)
<sp|pf>:         3306 b          130 skpd (  3.9%)    0.002 s ( 0.001 ms/b)
<sp|pg>:         1140 b           68 skpd (  6.0%)    0.002 s ( 0.002 ms/b)
<sp|dd>:         4104 b          151 skpd (  3.7%)    0.006 s ( 0.002 ms/b)
<sp|df>:         2736 b          140 skpd (  5.1%)    0.002 s ( 0.001 ms/b)
<sp|dg>:          912 b           43 skpd (  4.7%)    0.003 s ( 0.003 ms/b)
<sp|ff>:          684 b           26 skpd (  3.8%)    0.001 s ( 0.002 ms/b)
<sp|fg>:          342 b           13 skpd (  3.8%)    0.002 s ( 0.005 ms/b)
<sp|gg>:          114 b            4 skpd (  3.5%)    0.002 s ( 0.020 ms/b)
<sd|sd>:         4371 b          137 skpd (  3.1%)    0.003 s ( 0.001 ms/b)
<sd|sf>:         3162 b          146 skpd (  4.6%)    0.002 s ( 0.001 ms/b)
<sd|sg>:         1116 b          116 skpd ( 10.4%)    0.002 s ( 0.002 ms/b)
<sd|pp>:         5022 b          201 skpd (  4.0%)    0.005 s ( 0.001 ms/b)
<sd|pd>:         7347 b          207 skpd (  2.8%)    0.008 s ( 0.001 ms/b)
<sd|pf>:         2697 b           60 skpd (  2.2%)    0.003 s ( 0.001 ms/b)
<sd|pg>:          930 b           52 skpd (  5.6%)    0.004 s ( 0.004 ms/b)
<sd|dd>:         3348 b           38 skpd (  1.1%)    0.010 s ( 0.003 ms/b)
<sd|df>:         2232 b           54 skpd (  2.4%)    0.004 s ( 0.002 ms/b)
<sd|dg>:          744 b           13 skpd (  1.7%)    0.005 s ( 0.007 ms/b)
<sd|ff>:          558 b            8 skpd (  1.4%)    0.002 s ( 0.004 ms/b)
<sd|fg>:          279 b            5 skpd (  1.8%)    0.003 s ( 0.011 ms/b)
<sd|gg>:           93 b            1 skpd (  1.1%)    0.004 s ( 0.044 ms/b)
<sf|sf>:          595 b           39 skpd (  6.6%)    0.000 s ( 0.001 ms/b)
<sf|sg>:          408 b           63 skpd ( 15.4%)    0.001 s ( 0.003 ms/b)
<sf|pp>:         1836 b           94 skpd (  5.1%)    0.003 s ( 0.001 ms/b)
<sf|pd>:         2686 b          128 skpd (  4.8%)    0.004 s ( 0.002 ms/b)
<sf|pf>:          986 b           40 skpd (  4.1%)    0.002 s ( 0.002 ms/b)
<sf|pg>:          340 b           26 skpd (  7.6%)    0.002 s ( 0.006 ms/b)
<sf|dd>:         1224 b           33 skpd (  2.7%)    0.005 s ( 0.004 ms/b)
<sf|df>:          816 b           44 skpd (  5.4%)    0.002 s ( 0.003 ms/b)
<sf|dg>:          272 b           12 skpd (  4.4%)    0.003 s ( 0.010 ms/b)
<sf|ff>:          204 b            6 skpd (  2.9%)    0.001 s ( 0.007 ms/b)
<sf|fg>:          102 b            3 skpd (  2.9%)    0.002 s ( 0.018 ms/b)
<sf|gg>:           34 b            1 skpd (  2.9%)    0.002 s ( 0.070 ms/b)
<sg|sg>:           78 b           20 skpd ( 25.6%)    0.000 s ( 0.004 ms/b)
<sg|pp>:          648 b           55 skpd (  8.5%)    0.002 s ( 0.003 ms/b)
<sg|pd>:          948 b          109 skpd ( 11.5%)    0.002 s ( 0.003 ms/b)
<sg|pf>:          348 b           44 skpd ( 12.6%)    0.001 s ( 0.002 ms/b)
<sg|pg>:          120 b           22 skpd ( 18.3%)    0.001 s ( 0.011 ms/b)
<sg|dd>:          432 b           39 skpd (  9.0%)    0.004 s ( 0.009 ms/b)
<sg|df>:          288 b           44 skpd ( 15.3%)    0.001 s ( 0.004 ms/b)
<sg|dg>:           96 b           17 skpd ( 17.7%)    0.002 s ( 0.021 ms/b)
<sg|ff>:           72 b            9 skpd ( 12.5%)    0.001 s ( 0.009 ms/b)
<sg|fg>:           36 b            5 skpd ( 13.9%)    0.001 s ( 0.032 ms/b)
<sg|gg>:           12 b            2 skpd ( 16.7%)    0.001 s ( 0.117 ms/b)
<pp|pp>:         1485 b           47 skpd (  3.2%)    0.003 s ( 0.002 ms/b)
<pp|pd>:         4266 b          119 skpd (  2.8%)    0.007 s ( 0.002 ms/b)
<pp|pf>:         1566 b           37 skpd (  2.4%)    0.002 s ( 0.002 ms/b)
<pp|pg>:          540 b           18 skpd (  3.3%)    0.003 s ( 0.006 ms/b)
<pp|dd>:         1944 b           48 skpd (  2.5%)    0.008 s ( 0.004 ms/b)
<pp|df>:         1296 b           43 skpd (  3.3%)    0.003 s ( 0.002 ms/b)
<pp|dg>:          432 b           14 skpd (  3.2%)    0.004 s ( 0.010 ms/b)
<pp|ff>:          324 b            7 skpd (  2.2%)    0.002 s ( 0.006 ms/b)
<pp|fg>:          162 b            4 skpd (  2.5%)    0.002 s ( 0.016 ms/b)
<pp|gg>:           54 b            1 skpd (  1.9%)    0.003 s ( 0.064 ms/b)
<pd|pd>:         3160 b           62 skpd (  2.0%)    0.012 s ( 0.004 ms/b)
<pd|pf>:         2291 b           32 skpd (  1.4%)    0.006 s ( 0.003 ms/b)
<pd|pg>:          790 b           25 skpd (  3.2%)    0.008 s ( 0.010 ms/b)
<pd|dd>:         2844 b           26 skpd (  0.9%)    0.020 s ( 0.007 ms/b)
<pd|df>:         1896 b           31 skpd (  1.6%)    0.008 s ( 0.004 ms/b)
<pd|dg>:          632 b            7 skpd (  1.1%)    0.012 s ( 0.018 ms/b)
<pd|ff>:          474 b            6 skpd (  1.3%)    0.005 s ( 0.010 ms/b)
<pd|fg>:          237 b            3 skpd (  1.3%)    0.007 s ( 0.028 ms/b)
<pd|gg>:           79 b            1 skpd (  1.3%)    0.009 s ( 0.120 ms/b)
<pf|pf>:          435 b            1 skpd (  0.2%)    0.002 s ( 0.003 ms/b)
<pf|pg>:          290 b            4 skpd (  1.4%)    0.004 s ( 0.013 ms/b)
<pf|dd>:         1044 b            1 skpd (  0.1%)    0.009 s ( 0.008 ms/b)
<pf|df>:          696 b           11 skpd (  1.6%)    0.004 s ( 0.006 ms/b)
<pf|dg>:          232 b            2 skpd (  0.9%)    0.005 s ( 0.022 ms/b)
<pf|ff>:          174 b            0 skpd (  0.0%)    0.003 s ( 0.016 ms/b)
<pf|fg>:           87 b            0 skpd (  0.0%)    0.004 s ( 0.042 ms/b)
<pf|gg>:           29 b            0 skpd (  0.0%)    0.005 s ( 0.166 ms/b)
<pg|pg>:           55 b            3 skpd (  5.5%)    0.001 s ( 0.027 ms/b)
<pg|dd>:          360 b            5 skpd (  1.4%)    0.006 s ( 0.018 ms/b)
<pg|df>:          240 b           11 skpd (  4.6%)    0.002 s ( 0.009 ms/b)
<pg|dg>:           80 b            4 skpd (  5.0%)    0.003 s ( 0.045 ms/b)
<pg|ff>:           60 b            1 skpd (  1.7%)    0.001 s ( 0.023 ms/b)
<pg|fg>:           30 b            2 skpd (  6.7%)    0.002 s ( 0.082 ms/b)
<pg|gg>:           10 b            1 skpd ( 10.0%)    0.002 s ( 0.263 ms/b)
<dd|dd>:          666 b            1 skpd (  0.2%)    0.014 s ( 0.022 ms/b)
<dd|df>:          864 b            1 skpd (  0.1%)    0.007 s ( 0.008 ms/b)
<dd|dg>:          288 b            0 skpd (  0.0%)    0.010 s ( 0.035 ms/b)
<dd|ff>:          216 b            0 skpd (  0.0%)    0.004 s ( 0.018 ms/b)
<dd|fg>:          108 b            0 skpd (  0.0%)    0.006 s ( 0.052 ms/b)
<dd|gg>:           36 b            0 skpd (  0.0%)    0.008 s ( 0.223 ms/b)
<df|df>:          300 b            4 skpd (  1.3%)    0.004 s ( 0.015 ms/b)
<df|dg>:          192 b            2 skpd (  1.0%)    0.007 s ( 0.038 ms/b)
<df|ff>:          144 b            1 skpd (  0.7%)    0.004 s ( 0.028 ms/b)
<df|fg>:           72 b            1 skpd (  1.4%)    0.005 s ( 0.074 ms/b)
<df|gg>:           24 b            0 skpd (  0.0%)    0.007 s ( 0.294 ms/b)
<dg|dg>:           36 b            0 skpd (  0.0%)    0.004 s ( 0.101 ms/b)
<dg|ff>:           48 b            0 skpd (  0.0%)    0.002 s ( 0.037 ms/b)
<dg|fg>:           24 b            0 skpd (  0.0%)    0.003 s ( 0.128 ms/b)
<dg|gg>:            8 b            0 skpd (  0.0%)    0.004 s ( 0.465 ms/b)
<ff|ff>:           21 b            0 skpd (  0.0%)    0.001 s ( 0.052 ms/b)
<ff|fg>:           18 b            0 skpd (  0.0%)    0.002 s ( 0.108 ms/b)
<ff|gg>:            6 b            0 skpd (  0.0%)    0.003 s ( 0.449 ms/b)
<fg|fg>:            6 b            0 skpd (  0.0%)    0.001 s ( 0.244 ms/b)
<fg|gg>:            3 b            0 skpd (  0.0%)    0.003 s ( 0.835 ms/b)
<gg|gg>:            1 b            0 skpd (  0.0%)    0.001 s ( 1.177 ms/b)
Recanonicalizing the internal orbitals
Recanonicalizing the virtual orbitals
Time needed for Fock operator              ...            0.437 sec
Reference energy                           ...  -3615.814431057
Warning: for UHF the TrafoType has to be JK
Warning: for UHF the K(C)-option cannot be MO but must be AOX

-------------------------------
PARTIAL EXCHANGE TRANSFORMATION
-------------------------------

Transformation type                        ... two-operators
Generation of integrals (i,mue|j,nue)      ... ON
Generation of integrals (mue,kappa|nue,tau)... ON
Generation of integrals (i,mue|a,nue)      ... ON
Dimension of the basis                     ...  112
Number of internal alpha-MOs               ...   18 (  14-  31)
Number of internal beta-MOs                ...   13 (  14-  26)
Number of external alpha-MOs               ...   80 (  32- 111)
Number of external beta-MOs                ...   85 (  27- 111)
Pair cutoff                                ... 0.000e+00 Eh
Number of AO pairs in the trafo            ... 6328
Total Number of distinct AO pairs          ... 6328
Memory devoted for trafo                   ... 2500.0 MB 
Max. Number of MO pairs treated together   ... 26122      
Number Format for Storage                  ... Double (8 Byte)
Integral package used                      ... LIBINT

Starting integral evaluation:
    ... done with AO integral generation
Closing buffer AOK[aa] ( 0.00 GB; CompressionRatio= 1.00)
Closing buffer AOK[bb] ( 0.00 GB; CompressionRatio= 0.99)
Closing buffer AOK[ab] ( 0.00 GB; CompressionRatio= 0.99)
Closing buffer AOK[ba] ( 0.00 GB; CompressionRatio= 0.99)
Collecting buffer AOK 
Closing buffer IAAO1[aa] ( 0.00 GB; CompressionRatio= 1.00)
Closing buffer IAAO1[bb] ( 0.00 GB; CompressionRatio= 1.00)
Closing buffer IAAO1[ab] ( 0.00 GB; CompressionRatio= 1.00)
Closing buffer IAAO1[ba] ( 0.00 GB; CompressionRatio= 1.00)
Closing buffer IAAO2[aa] ( 0.00 GB; CompressionRatio= 1.00)
Closing buffer IAAO2[bb] ( 0.00 GB; CompressionRatio= 1.00)
Closing buffer IAAO2[ab] ( 0.00 GB; CompressionRatio= 1.00)
Closing buffer IAAO2[ba] ( 0.00 GB; CompressionRatio= 1.00)
Collecting buffer IAAO 
Closing buffer PRQS    ( 0.01 GB; CompressionRatio= 1.00)
Collecting buffer PRQS 
Number of alpha/alpha MO pairs in trafo    ...  171
Number of beta /beta  MO pairs in trafo    ...   91
Number of alpha/ beta MO pairs in trafo    ...  234
------------------------
SORTING OF (i,mue|j,nue)
------------------------

SORTING OF ALPHA/ALPHA PAIRS
IBATCH = 1 of  1
Closing buffer KAO[aa] ( 0.00 GB; CompressionRatio= 1.00)
Collecting buffer KAO 
SORTING OF BETA /BETA  PAIRS
IBATCH = 1 of  1
Closing buffer KAO[bb] ( 0.00 GB; CompressionRatio= 1.00)
Collecting buffer KAO 
SORTING OF ALPHA/BETA  PAIRS
IBATCH = 1 of  1
Closing buffer KAO[ab] ( 0.00 GB; CompressionRatio= 0.999880435216)
Collecting buffer KAO[ab] 
------------------------
SORTING OF (i,mue|a,nue)
------------------------

Number of alpha/alpha (i,a) pairs in trafo  ... 1440
Number of beta /beta  (i,a) pairs in trafo  ... 1105
Number of alpha/ beta (i,a) pairs in trafo  ... 1530
Number of beta /alpha (i,a) pairs in trafo  ... 1040
Setting up the alpha/alpha list             ... done
Setting up the beta /beta  list             ... done
Setting up the alpha/beta  list             ... done
Setting up the beta /alpha list             ... done
    ... Now sorting (i,mue|a,nue)integrals
    ... Integrals (i,b|a,c) will be made on the fly
SORTING OF ALPHA/ALPHA PAIRS
IBATCH = 1 of  1
Closing buffer IPAQ[aa]  0.00 GB; CompressionRatio= 1.00)
SORTING OF BETA /BETA  PAIRS
IBATCH = 1 of  1
Closing buffer IPAQ[bb]( 0.00 GB; CompressionRatio= 1.00)
SORTING OF ALPHA/BETA  PAIRS (NMatSort_ab=64)
IBATCH = 1 of  1
Closing buffer IPAQ[ab]( 0.00 GB; CompressionRatio= 1.00)
SORTING OF BETA/ALPHA  PAIRS
IBATCH = 1 of  1
Closing buffer IPAQ[ba]( 0.00 GB; CompressionRatio= 1.00)
N(AO-Batches) Done                         ...     11834 
N(AO-Batches) Skipped                      ...         0 
N(IJ)-pairs Skipped                        ...         0 
TOTAL TIME for half transformation         ...     2.166 sec
AO-integral generation                     ...     0.154 sec
Half transformation                        ...     0.032 sec
K-integral sorting                         ...     1.162 sec
<ss|**>: 
------------------------------
PARTIAL COULOMB TRANSFORMATION
------------------------------

Transformation type                        ... two-operators
Dimension of the basis                     ...  112
Number of internal alpha-MOs               ...   18 (14-31)
Number of internal beta-MOs                ...   13 (14-26)
Pair cutoff                                ... 0.000e+00 Eh
Number of AO pairs included in the trafo   ... 6327
Total Number of distinct AO pairs          ... 6328
Memory devoted for trafo                   ... 2500.0 MB 
Max. Number of MO pairs treated together   ... 51782      
Max. Number of MOs treated per batch       ...  462      
Number Format for Storage                  ... Double (8 Byte)
AO-integral source                         ... DIRECT
Integral package used                      ... LIBINT

Starting integral evaluation:
       40110 b        0 skpd     0.020 s (  0.001 ms/b)
<sp|**>: <sd|**>:        65322 b        0 skpd     0.051 s (  0.001 ms/b)
       53289 b        0 skpd     0.047 s (  0.001 ms/b)
<sf|**>:        19482 b        0 skpd     0.018 s (  0.001 ms/b)
<sg|**>:         6876 b        0 skpd     0.027 s (  0.004 ms/b)
<pp|**>:        30942 b        0 skpd     0.041 s (  0.001 ms/b)
<pd|**>:        45267 b        0 skpd     0.082 s (  0.002 ms/b)
<pf|**>:        16617 b        0 skpd     0.029 s (  0.002 ms/b)
<pg|**>:         5730 b        0 skpd     0.042 s (  0.007 ms/b)
<dd|**>:        20628 b        0 skpd     0.103 s (  0.005 ms/b)
<df|**>:        13752 b        0 skpd     0.040 s (  0.003 ms/b)
<dg|**>:         4584 b        0 skpd     0.056 s (  0.012 ms/b)
<ff|**>:         3438 b        0 skpd     0.022 s (  0.006 ms/b)
<fg|**>:         1719 b        0 skpd     0.032 s (  0.018 ms/b)
<gg|**>:          573 b        0 skpd     0.047 s (  0.083 ms/b)
Closing buffer AOJ[aa] ( 0.00 GB; CompressionRatio= 0.99)
Closing buffer AOJ[bb] ( 0.00 GB; CompressionRatio= 0.00)
Collecting buffer AOJ 
    ... done with AO integral generation
Number of Alpha-MO pairs included          ...  171
Number of Beta-MO pairs included           ...   91
    ... Now sorting integrals
SORTING ALPHA/ALPHA PAIRS
IBATCH = 1 of  1
Closing buffer JAO[aa] ( 0.00 GB; CompressionRatio= 1.00)
SORTING BETA/BETA PAIRS
IBATCH = 1 of  1
Closing buffer JAO[bb] ( 0.00 GB; CompressionRatio= 1.00)
Collecting buffer JAO 
TOTAL TIME for half transformation         ...     0.700 sec
AO-integral generation                     ...     0.652 sec
Half transformation                        ...     0.018 sec
J-integral sorting                         ...     0.021 sec

-------------------------- SECOND HALF TRANSFORMATION -------------------------
Formation of (ij|kl),(ij|ka), (ij|ab)      ... ok (     0.097 sec)
Formation of (ik|jl),(ik|ja), (ia|jb)      ... ok (     0.172 sec)


-----------------------
SPIN UNRESTRICTED GUESS
-----------------------

Entering MDCI_UHF_Guess, Tailored=0
Spin-components of the MP2 energy:
EMP2(aa)=     -0.181276772
EMP2(bb)=     -0.074201618
EMP2(ab)=     -0.442017986

Initial guess performed in     0.074 sec
E(0)                                       ...  -3615.814431057
E(MP2)                                     ...     -0.697496376
Initial E(tot)                             ...  -3616.511927433
<T|T>                                      ...      0.158360818
Number of pairs included                   ... 465

------------------------------------------------
                  UHF COUPLED CLUSTER ITERATIONS
------------------------------------------------

Number of amplitudes to be optimized       ...      2363808

Iter       E(tot)           E(Corr)          Delta-E          Residual     Time      <S|S>**1/2
  0  -3616.511927433     -0.697496376      0.000000000      0.019068192    1.88      0.000000021
                           *** Turning on DIIS ***
  1  -3616.498754824     -0.684323767      0.013172609      0.004187249    2.04      0.045632031
  2  -3616.511036604     -0.696605548     -0.012281780      0.005250577    2.13      0.052805891
  3  -3616.513179322     -0.698748265     -0.002142717      0.004273633    2.14      0.067431330
  4  -3616.514088886     -0.699657829     -0.000909564      0.003799522    2.16      0.078267411
  5  -3616.514588750     -0.700157693     -0.000499864      0.002999591    2.22      0.092204868
  6  -3616.514783844     -0.700352787     -0.000195094      0.002389653    2.29      0.102413451
  7  -3616.514929308     -0.700498251     -0.000145464      0.001765719    2.28      0.112877421
  8  -3616.515088708     -0.700657651     -0.000159400      0.000791845    2.30      0.130098129
  9  -3616.515161150     -0.700730094     -0.000072443      0.000315760    2.19      0.139042918
 10  -3616.515180245     -0.700749188     -0.000019095      0.000135516    2.25      0.142567928
 11  -3616.515191112     -0.700760056     -0.000010867      0.000065622    2.18      0.143710744
 12  -3616.515193583     -0.700762526     -0.000002470      0.000032381    2.19      0.143966632
 13  -3616.515197475     -0.700766418     -0.000003892      0.000011477    2.20      0.144151502
 14  -3616.515198103     -0.700767046     -0.000000628      0.000005459    2.19      0.144156287
 15  -3616.515199020     -0.700767963     -0.000000917      0.000004975    2.21      0.144146768
 16  -3616.515199452     -0.700768395     -0.000000432      0.000004396    2.23      0.144160604
 17  -3616.515200103     -0.700769047     -0.000000651      0.000003456    2.25      0.144185081
 18  -3616.515200361     -0.700769304     -0.000000258      0.000002414    2.22      0.144208782
 19  -3616.515200615     -0.700769558     -0.000000254      0.000001228    2.22      0.144233097
 20  -3616.515200741     -0.700769685     -0.000000127      0.000000487    2.18      0.144248295
               --- The Coupled-Cluster iterations have converged ---

----------------------
COUPLED CLUSTER ENERGY
----------------------

E(0)                                       ...  -3615.814431057
E(CORR)                                    ...     -0.700769685
E(TOT)                                     ...  -3616.515200741
Singles norm <S|S>**1/2                    ...      0.144248295 ( 0.115108034, 0.029140261)  
T1 diagnostic                              ...      0.025907759                              

------------------
LARGEST AMPLITUDES
------------------
  31a-> 32a  -1a-> -1a       0.156739
  26a-> 32a  -1a-> -1a       0.063819
  31a-> 40a  -1a-> -1a       0.060196
  31a-> 41a  -1a-> -1a       0.031205
  26b-> 48b  25b-> 49b       0.030317
  26b-> 49b  25b-> 48b       0.030317
  29a-> 49a  26b-> 49b       0.029437
  30a-> 49a  25b-> 49b       0.029437
  29a-> 48a  26b-> 48b       0.029437
  30a-> 48a  25b-> 48b       0.029437
  24b-> 39b  -1b-> -1b       0.029009
  30a-> 48a  29a-> 49a       0.025461
  30a-> 49a  29a-> 48a       0.025461
  26a-> 45a  24b-> 47b       0.025264
  25b-> 38b  -1b-> -1b       0.023733
  26b-> 37b  -1b-> -1b       0.023733

----------------------
UHF TRIPLES CORRECTION (Algorithm 1)
----------------------

Multiplier for the singles contribution    ...      1.000000000

SPIN-CASE Alpha-Alpha-Alpha:
10% done
20% done
30% done
40% done
50% done
60% done
70% done
80% done
90% done


SPIN-CASE Beta-Beta-Beta:
10% done
20% done
30% done
40% done
50% done
60% done
70% done
80% done
90% done


SPIN-CASE Alpha-Alpha-Beta:
10% done
20% done
30% done
40% done
50% done
60% done
70% done
80% done
90% done


SPIN-CASE Beta-Beta-Alpha:
10% done
20% done
30% done
40% done
50% done
60% done
70% done
80% done
90% done


Triples Correction (T)                     ...     -0.021168298
    alpha-alpha-alpha ... -0.002600369 ( 12.3%)
    alpha-alpha-beta  ... -0.011121830 ( 52.5%)
    alpha-beta -beta  ... -0.006959696 ( 32.9%)
    beta -beta -beta  ... -0.000486403 (  2.3%)
Scaling of triples based on CCSD energies (Peterson et al. Molecular Physics 113, 1551 (2015))
E(T*) = f*E(T) where f = E(F12-CCSD)/E(CCSD) 
f = CCSD (with F12)/ CCSD (without F12)    ...      1.000000000
Scaled triples correction (T)              ...     -0.021168298

Final correlation energy                   ...     -0.721937983
E(CCSD)                                    ...  -3616.515200741
E(CCSD(T))                                 ...  -3616.536369039



        !!!!!!!!!!!!!!!!!!!!!!!!!!!!!!!!!!!!!!!!!!!!!!!!!!!!!!!!!!!!!!!!!!!!!!!!!! 
        !  Warning: Densities are linearized densities                           !
        !!!!!!!!!!!!!!!!!!!!!!!!!!!!!!!!!!!!!!!!!!!!!!!!!!!!!!!!!!!!!!!!!!!!!!!!!! 

NORM  =      1.214909195 sqrt=     1.102229193
W(HF) =      0.823106784
------------------------------------------------------------------------------
                           ORCA POPULATION ANALYSIS
------------------------------------------------------------------------------
Input electron density              ... 22_CrBr.mdcip
Input spin density                  ... 22_CrBr.mdcir
BaseName (.gbw .S,...)              ... 22_CrBr

                    ********************************
                    * MULLIKEN POPULATION ANALYSIS *
                    ********************************

------------------------------------------
MULLIKEN ATOMIC CHARGES AND SPIN DENSITIES
------------------------------------------
   0 Cr:    0.461735    5.076753
   1 Br:   -0.461735   -0.076753
Sum of atomic charges       :   -0.0000000
Sum of atomic spin densities:    5.0000000

---------------------------------------------------
MULLIKEN REDUCED ORBITAL CHARGES AND SPIN DENSITIES
---------------------------------------------------
CHARGE
  0 Crs       :     6.485386  s :     6.485386
      pz      :     4.052285  p :    12.151955
      px      :     4.049835
      py      :     4.049835
      dz2     :     0.813815  d :     4.864579
      dxz     :     1.024282
      dyz     :     1.024282
      dx2y2   :     1.001100
      dxy     :     1.001100
      f0      :     0.006040  f :     0.033397
      f+1     :     0.005298
      f-1     :     0.005298
      f+2     :     0.004272
      f-2     :     0.004272
      f+3     :     0.004109
      f-3     :     0.004109
      g0      :     0.000345  g :     0.002947
      g+1     :     0.000331
      g-1     :     0.000331
      g+2     :     0.000324
      g-2     :     0.000324
      g+3     :     0.000328
      g-3     :     0.000328
      g+4     :     0.000318
      g-4     :     0.000318
  1 Brs       :     7.926581  s :     7.926581
      pz      :     5.650867  p :    17.403747
      px      :     5.876440
      py      :     5.876440
      dz2     :     2.027439  d :    10.114263
      dxz     :     2.024128
      dyz     :     2.024128
      dx2y2   :     2.019284
      dxy     :     2.019284
      f0      :     0.003355  f :     0.017143
      f+1     :     0.002855
      f-1     :     0.002855
      f+2     :     0.002095
      f-2     :     0.002095
      f+3     :     0.001944
      f-3     :     0.001944

SPIN
  0 Crs       :     0.365002  s :     0.365002
      pz      :     0.016997  p :     0.088420
      px      :     0.035711
      py      :     0.035711
      dz2     :     0.707403  d :     4.599964
      dxz     :     0.958279
      dyz     :     0.958279
      dx2y2   :     0.988002
      dxy     :     0.988002
      f0      :     0.002768  f :     0.021583
      f+1     :     0.002923
      f-1     :     0.002923
      f+2     :     0.003265
      f-2     :     0.003265
      f+3     :     0.003220
      f-3     :     0.003220
      g0      :     0.000179  g :     0.001784
      g+1     :     0.000187
      g-1     :     0.000187
      g+2     :     0.000200
      g-2     :     0.000200
      g+3     :     0.000211
      g-3     :     0.000211
      g+4     :     0.000205
      g-4     :     0.000205
  1 Brs       :    -0.005551  s :    -0.005551
      pz      :    -0.085560  p :    -0.076934
      px      :     0.004313
      py      :     0.004313
      dz2     :     0.002564  d :     0.004406
      dxz     :     0.000578
      dyz     :     0.000578
      dx2y2   :     0.000343
      dxy     :     0.000343
      f0      :     0.000575  f :     0.001326
      f+1     :     0.000350
      f-1     :     0.000350
      f+2     :     0.000022
      f-2     :     0.000022
      f+3     :     0.000004
      f-3     :     0.000004


                     *******************************
                     * LOEWDIN POPULATION ANALYSIS *
                     *******************************

-----------------------------------------
LOEWDIN ATOMIC CHARGES AND SPIN DENSITIES
-----------------------------------------
   0 Cr:   -0.058350    5.009491
   1 Br:    0.058350   -0.009491

--------------------------------------------------
LOEWDIN REDUCED ORBITAL CHARGES AND SPIN DENSITIES
--------------------------------------------------
CHARGE
  0 Crs       :     6.501347  s :     6.501347
      pz      :     4.200812  p :    12.357706
      px      :     4.078447
      py      :     4.078447
      dz2     :     0.975726  d :     5.152620
      dxz     :     1.087704
      dyz     :     1.087704
      dx2y2   :     1.000743
      dxy     :     1.000743
      f0      :     0.012259  f :     0.043631
      f+1     :     0.007293
      f-1     :     0.007293
      f+2     :     0.004284
      f-2     :     0.004284
      f+3     :     0.004109
      f-3     :     0.004109
      g0      :     0.000405  g :     0.003045
      g+1     :     0.000350
      g-1     :     0.000350
      g+2     :     0.000324
      g-2     :     0.000324
      g+3     :     0.000328
      g-3     :     0.000328
      g+4     :     0.000318
      g-4     :     0.000318
  1 Brs       :     7.602922  s :     7.602922
      pz      :     5.628857  p :    17.186223
      px      :     5.778683
      py      :     5.778683
      dz2     :     2.039816  d :    10.133715
      dxz     :     2.027381
      dyz     :     2.027381
      dx2y2   :     2.019568
      dxy     :     2.019568
      f0      :     0.003970  f :     0.018790
      f+1     :     0.003311
      f-1     :     0.003311
      f+2     :     0.002155
      f-2     :     0.002155
      f+3     :     0.001944
      f-3     :     0.001944

SPIN
  0 Crs       :     0.329611  s :     0.329611
      pz      :     0.008745  p :     0.084387
      px      :     0.037821
      py      :     0.037821
      dz2     :     0.706109  d :     4.572633
      dxz     :     0.945744
      dyz     :     0.945744
      dx2y2   :     0.987519
      dxy     :     0.987519
      f0      :     0.002121  f :     0.021081
      f+1     :     0.002991
      f-1     :     0.002991
      f+2     :     0.003270
      f-2     :     0.003270
      f+3     :     0.003220
      f-3     :     0.003220
      g0      :     0.000174  g :     0.001778
      g+1     :     0.000186
      g-1     :     0.000186
      g+2     :     0.000200
      g-2     :     0.000200
      g+3     :     0.000211
      g-3     :     0.000211
      g+4     :     0.000205
      g-4     :     0.000205
  1 Brs       :    -0.000206  s :    -0.000206
      pz      :    -0.045899  p :    -0.029879
      px      :     0.008010
      py      :     0.008010
      dz2     :     0.002881  d :     0.017570
      dxz     :     0.006587
      dyz     :     0.006587
      dx2y2   :     0.000758
      dxy     :     0.000758
      f0      :     0.000842  f :     0.003024
      f+1     :     0.001001
      f-1     :     0.001001
      f+2     :     0.000086
      f-2     :     0.000086
      f+3     :     0.000004
      f-3     :     0.000004


                      *****************************
                      * MAYER POPULATION ANALYSIS *
                      *****************************

  NA   - Mulliken gross atomic population
  ZA   - Total nuclear charge
  QA   - Mulliken gross atomic charge
  VA   - Mayer's total valence
  BVA  - Mayer's bonded valence
  FA   - Mayer's free valence

  ATOM       NA         ZA         QA         VA         BVA        FA
  0 Cr    23.5383    24.0000     0.4617     6.2773     0.8961     5.3811
  1 Br    35.4617    35.0000    -0.4617     1.5953     0.8961     0.6991

  Mayer bond orders larger than 0.100000
B(  0-Cr,  1-Br) :   0.8961 



------------------------------------------------------------------------------- 
                                     TIMINGS                                   
------------------------------------------------------------------------------- 


Total execution time                   ...       57.976 sec

Fock Matrix Formation                  ...        0.437 sec (  0.8%)
Initial Guess                          ...        0.074 sec (  0.1%)
DIIS Solver                            ...        4.832 sec (  8.3%)
State Vector Update                    ...        0.209 sec (  0.4%)
Sigma-vector construction              ...       40.883 sec ( 70.5%)
  <0|H|D>                              ...        0.010 sec (  0.0% of sigma)
  <D|H|D>(0-ext Fock)                  ...        0.135 sec (  0.3% of sigma)
  <D|H|D>(0-ext)                       ...        1.047 sec (  2.6% of sigma)
  <D|H|D>(2-ext Fock)                  ...        0.021 sec (  0.1% of sigma)
  <D|H|D>(2-ext)                       ...        1.675 sec (  4.1% of sigma)
  <D|H|D>(4-ext)                       ...       16.174 sec ( 39.6% of sigma)
  <S|H|0>                              ...        3.277 sec (  8.0% of sigma)
  <S|H|S>                              ...        0.005 sec (  0.0% of sigma)
  <S|H|D>(1-ext)                       ...        0.030 sec (  0.1% of sigma)
  <D|H|S>(1-ext)                       ...        0.336 sec (  0.8% of sigma)
  Fock-dressing                        ...        6.288 sec ( 15.4% of sigma)
  (ik|jl)-dressing                     ...        1.484 sec (  3.6% of sigma)
  (ij|ab),(ia|jb)-dressing             ...        8.222 sec ( 20.1% of sigma)
  Pair energies                        ...        0.017 sec (  0.0% of sigma)
Total Time for computing (T)           ...        7.551 sec ( 13.0% of ALL)
  I/O of integral and amplitudes       ...        1.192 sec ( 15.8% of (T))
  External N**7 contributions          ...        2.157 sec ( 28.6% of (T))
  Internal N**7 contributions          ...        1.197 sec ( 15.8% of (T))
  N**6 triples energy contributions    ...        2.953 sec ( 39.1% of (T))

----- Orbital basis set information -----
Your calculation utilizes the basis: def2-QZVPP
   F. Weigend and R. Ahlrichs, Phys. Chem. Chem. Phys. 7, 3297 (2005).

----- AuxJ basis set information -----
Your calculation utilizes the auxiliary basis: def2/J
   F. Weigend, Phys. Chem. Chem. Phys. 8, 1057 (2006).

----- AuxC basis set information -----
Your calculation utilizes the auxiliary basis: def2-QZVPP/C
  H-La, Hf-Rn : A. Hellweg, C. Hattig, S. Hofener and W. Klopper, Theor. Chem. Acc. 117, 587 (2007).
        Ce-Lu : J. Chmela and M. E. Harding, Mol. Phys. (2018).

----- AuxJK basis set information -----
Your calculation utilizes the auxiliary basis: def2/JK
   H-Ba, Hf-Rn: F. Weigend, J. Comput. Chem. 29, 167 (2008).

All done

                     -----------------------------------------
                     Extrapolated Energy 2 Basis=  def2-QZVPP
                     -----------------------------------------

---------------------------------
CARTESIAN COORDINATES (ANGSTROEM)
---------------------------------
  Cr     0.000000    0.000000   -0.171989
  Br     0.000000    0.000000    2.171989

----------------------------
CARTESIAN COORDINATES (A.U.)
----------------------------
  NO LB      ZA    FRAG     MASS         X           Y           Z
   0 Cr   24.0000    0    52.000    0.000000    0.000000   -0.325011
   1 Br   35.0000    0    79.900    0.000000    0.000000    4.104464

--------------------------------
INTERNAL COORDINATES (ANGSTROEM)
--------------------------------
 Cr     0   0   0     0.000000000000     0.00000000     0.00000000
 Br     1   0   0     2.343977245697     0.00000000     0.00000000

---------------------------
INTERNAL COORDINATES (A.U.)
---------------------------
 Cr     0   0   0     0.000000000000     0.00000000     0.00000000
 Br     1   0   0     4.429475058510     0.00000000     0.00000000

---------------------
BASIS SET INFORMATION
---------------------
There are 2 groups of distinct atoms

 Group   1 Type Cr  : 24s18p9d3f2g contracted to 11s6p5d3f2g pattern {114111111111/951111/51111/111/11}
 Group   2 Type Br  : 24s20p10d4f1g contracted to 11s7p4d4f1g pattern {114111111111/10511111/7111/1111/1}

Atom   0Cr   basis set group =>   1
Atom   1Br   basis set group =>   2
---------------------------------
AUXILIARY/J BASIS SET INFORMATION
---------------------------------
There are 2 groups of distinct atoms

 Group   1 Type Cr  : 19s5p5d3f3g contracted to 8s5p5d2f3g pattern {121111111/11111/11111/21/111}
 Group   2 Type Br  : 19s5p5d3f1g contracted to 8s4p3d2f1g pattern {121111111/2111/311/21/1}

Atom   0Cr   basis set group =>   1
Atom   1Br   basis set group =>   2
---------------------------------
AUXILIARY/C BASIS SET INFORMATION
---------------------------------
There are 2 groups of distinct atoms

 Group   1 Type Cr  : 15s13p11d8f7g5h2i contracted to 15s13p11d8f7g5h2i pattern {111111111111111/1111111111111/11111111111/11111111/1111111/11111/11}
 Group   2 Type Br  : 13s12p11d9f7g5h1i contracted to 13s12p11d9f7g5h1i pattern {1111111111111/111111111111/11111111111/111111111/1111111/11111/1}

Atom   0Cr   basis set group =>   1
Atom   1Br   basis set group =>   2
----------------------------------
AUXILIARY/JK BASIS SET INFORMATION
----------------------------------
There are 2 groups of distinct atoms

 Group   1 Type Cr  : 19s14p12d10f7g3h1i contracted to 16s13p11d9f5g3h1i pattern {4111111111111111/2111111111111/21111111111/211111111/31111/111/1}
 Group   2 Type Br  : 20s14p13d10f7g3h contracted to 17s13p12d9f6g3h pattern {41111111111111111/2111111111111/211111111111/211111111/211111/111}

Atom   0Cr   basis set group =>   1
Atom   1Br   basis set group =>   2

Checking for AutoStart:
The File: 22_CrBr.gbw exists
Trying to determine its content:
     ... Fine, the file contains calculation information
     ... Fine, the calculation information was read
     ... Fine, the file contains a basis set
     ... Fine, the basis set was read
     ... Fine, the file contains a geometry
     ... Fine, the geometry was read
     ... Fine, the file contains a set of orbitals
     ... Fine, the orbitals can be read
     => possible old guess file was deleted
     => GBW file was renamed to GES file
     => GES file is set as startup file
     => Guess is set to MORead
     ... now leaving AutoStart



           ************************************************************
           *        Program running with 24 parallel MPI-processes    *
           *              working on a common directory               *
           ************************************************************
[...]
 11  -3616.912479972     -1.027105817     -0.000003688      0.000045962   11.63      0.129084955
 12  -3616.912484413     -1.027110257     -0.000004440      0.000021581   11.54      0.129423393
 13  -3616.912486535     -1.027112379     -0.000002122      0.000009905   11.62      0.129528741
 14  -3616.912487990     -1.027113835     -0.000001456      0.000006063   11.55      0.129586207
 15  -3616.912488282     -1.027114127     -0.000000292      0.000003562   11.74      0.129555206
 16  -3616.912488775     -1.027114619     -0.000000492      0.000003050   11.72      0.129572372
 17  -3616.912489174     -1.027115019     -0.000000399      0.000002779   11.57      0.129583929
 18  -3616.912489543     -1.027115388     -0.000000369      0.000001668   11.52      0.129611599
 19  -3616.912489716     -1.027115561     -0.000000173      0.000000712   11.59      0.129632196
               --- The Coupled-Cluster iterations have converged ---

----------------------
COUPLED CLUSTER ENERGY
----------------------

E(0)                                       ...  -3615.885374156
E(CORR)                                    ...     -1.027115561
E(TOT)                                     ...  -3616.912489716
Singles norm <S|S>**1/2                    ...      0.129632196 ( 0.101099349, 0.028532847)  
T1 diagnostic                              ...      0.023282630                              

------------------
LARGEST AMPLITUDES
------------------
  31a-> 32a  -1a-> -1a       0.125251
  31a-> 35a  -1a-> -1a       0.053609
  28a-> 32a  -1a-> -1a       0.051584
  31a-> 36a  -1a-> -1a       0.044545
  26b-> 52b  25b-> 53b       0.029887
  26b-> 53b  25b-> 52b       0.029887
  24b-> 45b  -1b-> -1b       0.026860
  30a-> 52a  26b-> 52b       0.026441
  29a-> 52a  25b-> 52b       0.026441
  30a-> 53a  26b-> 53b       0.026441
  29a-> 53a  25b-> 53b       0.026441
  31a-> 44a  -1a-> -1a       0.023877
  30a-> 53a  29a-> 52a       0.023628
  30a-> 52a  29a-> 53a       0.023628
  28a-> 51a  24b-> 51b       0.022090
  27a-> 40a  -1a-> -1a       0.021890

----------------------
UHF TRIPLES CORRECTION (Algorithm 1)
----------------------

Multiplier for the singles contribution    ...      1.000000000

SPIN-CASE Alpha-Alpha-Alpha:
10% done
20% done
30% done
40% done
50% done
60% done
70% done
80% done
90% done


SPIN-CASE Beta-Beta-Beta:
10% done
20% done
30% done
40% done
50% done
60% done
70% done
80% done
90% done


SPIN-CASE Alpha-Alpha-Beta:
10% done
20% done
30% done
40% done
50% done
60% done
70% done
80% done
90% done


SPIN-CASE Beta-Beta-Alpha:
10% done
20% done
30% done
40% done
50% done
60% done
70% done
80% done
90% done


Triples Correction (T)                     ...     -0.028170108
    alpha-alpha-alpha ... -0.003534627 ( 12.5%)
    alpha-alpha-beta  ... -0.014596253 ( 51.8%)
    alpha-beta -beta  ... -0.009343765 ( 33.2%)
    beta -beta -beta  ... -0.000695462 (  2.5%)
Scaling of triples based on CCSD energies (Peterson et al. Molecular Physics 113, 1551 (2015))
E(T*) = f*E(T) where f = E(F12-CCSD)/E(CCSD) 
f = CCSD (with F12)/ CCSD (without F12)    ...      1.000000000
Scaled triples correction (T)              ...     -0.028170108

Final correlation energy                   ...     -1.055285668
E(CCSD)                                    ...  -3616.912489716
E(CCSD(T))                                 ...  -3616.940659824



        !!!!!!!!!!!!!!!!!!!!!!!!!!!!!!!!!!!!!!!!!!!!!!!!!!!!!!!!!!!!!!!!!!!!!!!!!! 
        !  Warning: Densities are linearized densities                           !
        !!!!!!!!!!!!!!!!!!!!!!!!!!!!!!!!!!!!!!!!!!!!!!!!!!!!!!!!!!!!!!!!!!!!!!!!!! 

NORM  =      1.217466193 sqrt=     1.103388505
W(HF) =      0.821378044
------------------------------------------------------------------------------
                           ORCA POPULATION ANALYSIS
------------------------------------------------------------------------------
Input electron density              ... 22_CrBr.mdcip
Input spin density                  ... 22_CrBr.mdcir
BaseName (.gbw .S,...)              ... 22_CrBr

                    ********************************
                    * MULLIKEN POPULATION ANALYSIS *
                    ********************************

------------------------------------------
MULLIKEN ATOMIC CHARGES AND SPIN DENSITIES
------------------------------------------
   0 Cr:    0.532405    5.054678
   1 Br:   -0.532405   -0.054678
Sum of atomic charges       :    0.0000000
Sum of atomic spin densities:    5.0000000

---------------------------------------------------
MULLIKEN REDUCED ORBITAL CHARGES AND SPIN DENSITIES
---------------------------------------------------
CHARGE
  0 Crs       :     6.436514  s :     6.436514
      pz      :     4.043161  p :    12.129902
      px      :     4.043370
      py      :     4.043370
      dz2     :     0.817636  d :     4.857140
      dxz     :     1.019194
      dyz     :     1.019194
      dx2y2   :     1.000558
      dxy     :     1.000558
      f0      :     0.007292  f :     0.039480
      f+1     :     0.006900
      f-1     :     0.006900
      f+2     :     0.004730
      f-2     :     0.004730
      f+3     :     0.004464
      f-3     :     0.004464
      g0      :     0.000701  g :     0.004560
      g+1     :     0.000585
      g-1     :     0.000585
      g+2     :     0.000464
      g-2     :     0.000464
      g+3     :     0.000451
      g-3     :     0.000451
      g+4     :     0.000429
      g-4     :     0.000429
  1 Brs       :     7.962364  s :     7.962364
      pz      :     5.665568  p :    17.431492
      px      :     5.882962
      py      :     5.882962
      dz2     :     2.022053  d :    10.095943
      dxz     :     2.021426
      dyz     :     2.021426
      dx2y2   :     2.015520
      dxy     :     2.015520
      f0      :     0.006262  f :     0.038509
      f+1     :     0.006424
      f-1     :     0.006424
      f+2     :     0.005018
      f-2     :     0.005018
      f+3     :     0.004682
      f-3     :     0.004682
      g0      :     0.000587  g :     0.004097
      g+1     :     0.000569
      g-1     :     0.000569
      g+2     :     0.000428
      g-2     :     0.000428
      g+3     :     0.000382
      g-3     :     0.000382
      g+4     :     0.000375
      g-4     :     0.000375

SPIN
  0 Crs       :     0.335634  s :     0.335634
      pz      :     0.017062  p :     0.083874
      px      :     0.033406
      py      :     0.033406
      dz2     :     0.721539  d :     4.609362
      dxz     :     0.956575
      dyz     :     0.956575
      dx2y2   :     0.987337
      dxy     :     0.987337
      f0      :     0.002994  f :     0.023450
      f+1     :     0.003234
      f-1     :     0.003234
      f+2     :     0.003528
      f-2     :     0.003528
      f+3     :     0.003466
      f-3     :     0.003466
      g0      :     0.000230  g :     0.002357
      g+1     :     0.000245
      g-1     :     0.000245
      g+2     :     0.000270
      g-2     :     0.000270
      g+3     :     0.000281
      g-3     :     0.000281
      g+4     :     0.000268
      g-4     :     0.000268
  1 Brs       :     0.000473  s :     0.000473
      pz      :    -0.077036  p :    -0.064730
      px      :     0.006153
      py      :     0.006153
      dz2     :     0.002448  d :     0.006630
      dxz     :     0.001673
      dyz     :     0.001673
      dx2y2   :     0.000418
      dxy     :     0.000418
      f0      :     0.000863  f :     0.002521
      f+1     :     0.000707
      f-1     :     0.000707
      f+2     :     0.000113
      f-2     :     0.000113
      f+3     :     0.000009
      f-3     :     0.000009
      g0      :     0.000122  g :     0.000428
      g+1     :     0.000124
      g-1     :     0.000124
      g+2     :     0.000027
      g-2     :     0.000027
      g+3     :     0.000002
      g-3     :     0.000002
      g+4     :     0.000001
      g-4     :     0.000001


                     *******************************
                     * LOEWDIN POPULATION ANALYSIS *
                     *******************************

-----------------------------------------
LOEWDIN ATOMIC CHARGES AND SPIN DENSITIES
-----------------------------------------
   0 Cr:   -0.094935    4.990293
   1 Br:    0.094935    0.009707

--------------------------------------------------
LOEWDIN REDUCED ORBITAL CHARGES AND SPIN DENSITIES
--------------------------------------------------
CHARGE
  0 Crs       :     6.488609  s :     6.488609
      pz      :     4.210883  p :    12.376455
      px      :     4.082786
      py      :     4.082786
      dz2     :     0.976150  d :     5.144967
      dxz     :     1.084491
      dyz     :     1.084491
      dx2y2   :     0.999917
      dxy     :     0.999917
      f0      :     0.026957  f :     0.077643
      f+1     :     0.016083
      f-1     :     0.016083
      f+2     :     0.004796
      f-2     :     0.004796
      f+3     :     0.004464
      f-3     :     0.004464
      g0      :     0.002116  g :     0.007262
      g+1     :     0.001221
      g-1     :     0.001221
      g+2     :     0.000471
      g-2     :     0.000471
      g+3     :     0.000451
      g-3     :     0.000451
      g+4     :     0.000429
      g-4     :     0.000429
  1 Brs       :     7.605430  s :     7.605430
      pz      :     5.602800  p :    17.130352
      px      :     5.763776
      py      :     5.763776
      dz2     :     2.031287  d :    10.107735
      dxz     :     2.022607
      dyz     :     2.022607
      dx2y2   :     2.015617
      dxy     :     2.015617
      f0      :     0.016352  f :     0.055583
      f+1     :     0.009497
      f-1     :     0.009497
      f+2     :     0.005436
      f-2     :     0.005436
      f+3     :     0.004682
      f-3     :     0.004682
      g0      :     0.001556  g :     0.005965
      g+1     :     0.000967
      g-1     :     0.000967
      g+2     :     0.000480
      g-2     :     0.000480
      g+3     :     0.000382
      g-3     :     0.000382
      g+4     :     0.000375
      g-4     :     0.000375

SPIN
  0 Crs       :     0.314451  s :     0.314451
      pz      :     0.008196  p :     0.082127
      px      :     0.036966
      py      :     0.036966
      dz2     :     0.712679  d :     4.569119
      dxz     :     0.941659
      dyz     :     0.941659
      dx2y2   :     0.986561
      dxy     :     0.986561
      f0      :     0.001399  f :     0.022372
      f+1     :     0.003475
      f-1     :     0.003475
      f+2     :     0.003546
      f-2     :     0.003546
      f+3     :     0.003466
      f-3     :     0.003466
      g0      :     0.000098  g :     0.002224
      g+1     :     0.000245
      g-1     :     0.000245
      g+2     :     0.000269
      g-2     :     0.000269
      g+3     :     0.000281
      g-3     :     0.000281
      g+4     :     0.000268
      g-4     :     0.000268
  1 Brs       :     0.001895  s :     0.001895
      pz      :    -0.039047  p :    -0.022100
      px      :     0.008473
      py      :     0.008473
      dz2     :     0.002569  d :     0.017259
      dxz     :     0.006671
      dyz     :     0.006671
      dx2y2   :     0.000673
      dxy     :     0.000673
      f0      :     0.001686  f :     0.011034
      f+1     :     0.004103
      f-1     :     0.004103
      f+2     :     0.000562
      f-2     :     0.000562
      f+3     :     0.000009
      f-3     :     0.000009
      g0      :     0.000402  g :     0.001620
      g+1     :     0.000526
      g-1     :     0.000526
      g+2     :     0.000080
      g-2     :     0.000080
      g+3     :     0.000002
      g-3     :     0.000002
      g+4     :     0.000001
      g-4     :     0.000001


                      *****************************
                      * MAYER POPULATION ANALYSIS *
                      *****************************

  NA   - Mulliken gross atomic population
  ZA   - Total nuclear charge
  QA   - Mulliken gross atomic charge
  VA   - Mayer's total valence
  BVA  - Mayer's bonded valence
  FA   - Mayer's free valence

  ATOM       NA         ZA         QA         VA         BVA        FA
  0 Cr    23.4676    24.0000     0.5324     6.1857     0.8277     5.3579
  1 Br    35.5324    35.0000    -0.5324     1.6155     0.8277     0.7878

  Mayer bond orders larger than 0.100000
B(  0-Cr,  1-Br) :   0.8277 



------------------------------------------------------------------------------- 
                                     TIMINGS                                   
------------------------------------------------------------------------------- 


Total execution time                   ...      315.027 sec

Fock Matrix Formation                  ...        1.879 sec (  0.6%)
Initial Guess                          ...        0.242 sec (  0.1%)
DIIS Solver                            ...       15.413 sec (  4.9%)
State Vector Update                    ...        0.657 sec (  0.2%)
Sigma-vector construction              ...      213.368 sec ( 67.7%)
  <0|H|D>                              ...        0.034 sec (  0.0% of sigma)
  <D|H|D>(0-ext Fock)                  ...        0.483 sec (  0.2% of sigma)
  <D|H|D>(0-ext)                       ...        3.555 sec (  1.7% of sigma)
  <D|H|D>(2-ext Fock)                  ...        0.103 sec (  0.0% of sigma)
  <D|H|D>(2-ext)                       ...        8.082 sec (  3.8% of sigma)
  <D|H|D>(4-ext)                       ...       89.914 sec ( 42.1% of sigma)
  <S|H|0>                              ...       38.200 sec ( 17.9% of sigma)
  <S|H|S>                              ...        0.007 sec (  0.0% of sigma)
  <S|H|D>(1-ext)                       ...        0.097 sec (  0.0% of sigma)
  <D|H|S>(1-ext)                       ...        1.086 sec (  0.5% of sigma)
  Fock-dressing                        ...       30.018 sec ( 14.1% of sigma)
  (ik|jl)-dressing                     ...        4.256 sec (  2.0% of sigma)
  (ij|ab),(ia|jb)-dressing             ...       31.018 sec ( 14.5% of sigma)
  Pair energies                        ...        0.054 sec (  0.0% of sigma)
Total Time for computing (T)           ...       65.119 sec ( 20.7% of ALL)
  I/O of integral and amplitudes       ...        9.674 sec ( 14.9% of (T))
  External N**7 contributions          ...       24.476 sec ( 37.6% of (T))
  Internal N**7 contributions          ...        7.799 sec ( 12.0% of (T))
  N**6 triples energy contributions    ...       22.201 sec ( 34.1% of (T))


-------------------
EXTRAPOLATED ENERGY
-------------------


-----------------------------------------------------------------
                      EP1 - MDCI extrapolation:
-----------------------------------------------------------------
NOTE: We use as reference SCF energy, for the extrapolation, the one from the MDCI module and not the one 
from the SCF calculation. In case the first step is a DFT calculation these two might be different.

NOTE: For the SCF part we extrapolate based on the scheme proposed in J. Chem. Phys. 2008, 129, 184116
using the exponents from J. Chem. Theory Comput., 7, 33-43 (2011)

NOTE: For the correlation part we extrapolate based on the scheme proposed in J. Chem. Phys. 1997, 106, 9639
using the exponents from J. Chem. Theory Comput., 7, 33-43 (2011)


Alpha(3/4)     :  7.880 (SCF Extrapolation)
Beta(3/4)      :  2.970 (correlation extrapolation)

SCF energy with basis def2-TZVPP:                     -3615.814431057
SCF energy with basis def2-QZVPP:                     -3615.885374155
Extrapolated CBS SCF energy (3/4) :                   -3615.895145765 (-0.009771609) 

MDCI energy with basis def2-TZVPP:                       -0.721937983
MDCI energy with basis def2-QZVPP:                       -1.055285668
Extrapolated CBS correlation energy (3/4) :              -1.302209697 (-0.246924028)

Estimated CBS total energy (3/4) :                    -3617.197355461



-------------------------   --------------------
FINAL SINGLE POINT ENERGY     -3617.197355461456
-------------------------   --------------------


                            ***************************************
                            *     ORCA property calculations      *
                            ***************************************

                                    ---------------------
                                    Active property flags
                                    ---------------------
   (+) Dipole Moment


------------------------------------------------------------------------------
                       ORCA ELECTRIC PROPERTIES CALCULATION
------------------------------------------------------------------------------

Dipole Moment Calculation                       ... on
Quadrupole Moment Calculation                   ... off
Polarizability Calculation                      ... off
GBWName                                         ... 22_CrBr.gbw
Electron density file                           ... 22_CrBr.scfp
The origin for moment calculation is the CENTER OF MASS  = ( 0.000000,  0.000000  2.358196)

-------------
DIPOLE MOMENT
-------------
                                X             Y             Z
Electronic contribution:     -0.00000      -0.00000       0.44273
Nuclear contribution   :      0.00000       0.00000      -3.27761
                        -----------------------------------------
Total Dipole Moment    :     -0.00000      -0.00000      -2.83488
                        -----------------------------------------
Magnitude (a.u.)       :      2.83488
Magnitude (Debye)      :      7.20569



--------------------
Rotational spectrum 
--------------------
 
Rotational constants in cm-1:     0.000000     0.097406     0.097406 
Rotational constants in MHz :     0.000000  2920.152240  2920.152240 

 Dipole components along the rotational axes: 
x,y,z [a.u.] :    -2.834881    -0.000000    -0.000000 
x,y,z [Debye]:    -7.205694    -0.000000    -0.000000 

 

                           *** MDCI DENSITY ***

------------------------------------------------------------------------------
                       ORCA ELECTRIC PROPERTIES CALCULATION
------------------------------------------------------------------------------

Dipole Moment Calculation                       ... on
Quadrupole Moment Calculation                   ... off
Polarizability Calculation                      ... off
GBWName                                         ... 22_CrBr.gbw
Electron density file                           ... 22_CrBr.mdcip
The origin for moment calculation is the CENTER OF MASS  = ( 0.000000,  0.000000  2.358196)

-------------
DIPOLE MOMENT
-------------
                                X             Y             Z
Electronic contribution:     -0.00000      -0.00000       0.89715
Nuclear contribution   :      0.00000       0.00000      -3.27761
                        -----------------------------------------
Total Dipole Moment    :     -0.00000      -0.00000      -2.38046
                        -----------------------------------------
Magnitude (a.u.)       :      2.38046
Magnitude (Debye)      :      6.05065



--------------------
Rotational spectrum 
--------------------
 
Rotational constants in cm-1:     0.000000     0.097406     0.097406 
Rotational constants in MHz :     0.000000  2920.152240  2920.152240 

 Dipole components along the rotational axes: 
x,y,z [a.u.] :    -2.380459    -0.000000    -0.000000 
x,y,z [Debye]:    -6.050645    -0.000000    -0.000000 

 

Timings for individual modules:

Sum of individual times         ...      397.991 sec (=   6.633 min)
GTO integral calculation        ...        1.572 sec (=   0.026 min)   0.4 %
SCF iterations                  ...       20.795 sec (=   0.347 min)   5.2 %
MDCI module                     ...      375.625 sec (=   6.260 min)  94.4 %
                             ****ORCA TERMINATED NORMALLY****
TOTAL RUN TIME: 0 days 0 hours 6 minutes 38 seconds 955 msec
