
                                 *****************
                                 * O   R   C   A *
                                 *****************

           --- An Ab Initio, DFT and Semiempirical electronic structure package ---

                  #######################################################
                  #                        -***-                        #
                  #          Department of theory and spectroscopy      #
                  #               Directorship: Frank Neese             #
                  #        Max Planck Institute fuer Kohlenforschung    #
                  #                Kaiser Wilhelm Platz 1               #
                  #                 D-45470 Muelheim/Ruhr               #
                  #                      Germany                        #
                  #                                                     #
                  #                  All rights reserved                #
                  #                        -***-                        #
                  #######################################################


                         Program Version 4.2.0 -  RELEASE  -


 With contributions from (in alphabetic order):
   Daniel Aravena         : Magnetic Suceptibility
   Michael Atanasov       : Ab Initio Ligand Field Theory (pilot matlab implementation)
   Alexander A. Auer      : GIAO ZORA, VPT2
   Ute Becker             : Parallelization
   Giovanni Bistoni       : ED, misc. LED, open-shell LED, HFLED
   Martin Brehm           : Molecular dynamics
   Dmytro Bykov           : SCF Hessian
   Vijay G. Chilkuri      : MRCI spin determinant printing, contributions to CSF-ICE
   Dipayan Datta          : RHF DLPNO-CCSD density
   Achintya Kumar Dutta   : EOM-CC, STEOM-CC
   Dmitry Ganyushin       : Spin-Orbit,Spin-Spin,Magnetic field MRCI
   Miquel Garcia          : C-PCM Hessian, Gaussian charge scheme
   Yang Guo               : DLPNO-NEVPT2, CIM, IAO-localization
   Andreas Hansen         : Spin unrestricted coupled pair/coupled cluster methods
   Benjamin Helmich-Paris : CASSCF linear response (MC-RPA)
   Lee Huntington         : MR-EOM, pCC
   Robert Izsak           : Overlap fitted RIJCOSX, COSX-SCS-MP3, EOM
   Christian Kollmar      : KDIIS, OOCD, Brueckner-CCSD(T), CCSD density
   Simone Kossmann        : Meta GGA functionals, TD-DFT gradient, OOMP2, MP2 Hessian
   Martin Krupicka        : AUTO-CI
   Lucas Lang             : DCDCAS
   Dagmar Lenk            : GEPOL surface, SMD
   Dimitrios Liakos       : Extrapolation schemes; Compound Job, initial MDCI parallelization
   Dimitrios Manganas     : Further ROCIS development; embedding schemes
   Dimitrios Pantazis     : SARC Basis sets
   Taras Petrenko         : DFT Hessian,TD-DFT gradient, ASA, ECA, R-Raman, ABS, FL, XAS/XES, NRVS
   Peter Pinski           : DLPNO-MP2, DLPNO-MP2 Gradient
   Christoph Reimann      : Effective Core Potentials
   Marius Retegan         : Local ZFS, SOC
   Christoph Riplinger    : Optimizer, TS searches, QM/MM, DLPNO-CCSD(T), (RO)-DLPNO pert. Triples
   Tobias Risthaus        : Range-separated hybrids, TD-DFT gradient, RPA, STAB
   Michael Roemelt        : Original ROCIS implementation
   Masaaki Saitow         : Open-shell DLPNO-CCSD energy and density
   Barbara Sandhoefer     : DKH picture change effects
   Avijit Sen             : IP-ROCIS
   Kantharuban Sivalingam : CASSCF convergence, NEVPT2, FIC-MRCI
   Bernardo de Souza      : ESD, SOC TD-DFT
   Georgi Stoychev        : AutoAux, RI-MP2 NMR
   Willem Van den Heuvel  : Paramagnetic NMR
   Boris Wezisla          : Elementary symmetry handling
   Frank Wennmohs         : Technical directorship


 We gratefully acknowledge several colleagues who have allowed us to
 interface, adapt or use parts of their codes:
   Stefan Grimme, W. Hujo, H. Kruse,             : VdW corrections, initial TS optimization,
                  C. Bannwarth                     DFT functionals, gCP, sTDA/sTD-DF
   Ed Valeev, F. Pavosevic, A. Kumar             : LibInt (2-el integral package), F12 methods
   Garnet Chan, S. Sharma, J. Yang, R. Olivares  : DMRG
   Ulf Ekstrom                                   : XCFun DFT Library
   Mihaly Kallay                                 : mrcc  (arbitrary order and MRCC methods)
   Andreas Klamt, Michael Diedenhofen            : otool_cosmo (COSMO solvation model)
   Jiri Pittner, Ondrej Demel                    : Mk-CCSD
   Frank Weinhold                                : gennbo (NPA and NBO analysis)
   Christopher J. Cramer and Donald G. Truhlar   : smd solvation model
   Lars Goerigk                                  : TD-DFT with DH, B97 family of functionals
   V. Asgeirsson, H. Jonsson                     : NEB implementation
   FAccTs GmbH                                   : IRC, NEB, NEB-TS, Multilevel, MM, QM/MM, CI optimization
   S Lehtola, MJT Oliveira, MAL Marques          : LibXC Library


 Your calculation uses the libint2 library for the computation of 2-el integrals
 For citations please refer to: http://libint.valeyev.net

 Your ORCA version has been built with support for libXC version: 4.2.3
 For citations please refer to: https://tddft.org/programs/libxc/

 This ORCA versions uses:
   CBLAS   interface :  Fast vector & matrix operations
   LAPACKE interface :  Fast linear algebra routines
   SCALAPACK package :  Parallel linear algebra routines


----- Orbital basis set information -----
Your calculation utilizes the basis: def2-TZVPP
   F. Weigend and R. Ahlrichs, Phys. Chem. Chem. Phys. 7, 3297 (2005).

================================================================================
                                        WARNINGS
                       Please study these warnings very carefully!
================================================================================


WARNING: your system is open-shell and RHF/RKS was chosen
  ===> : WILL SWITCH to UHF/UKS


WARNING: MDCI localization with Augmented Hessian Foster-Boys
  ===> : Switching off randomization!

WARNING: Post HF methods need fully converged wavefunctions
  ===> : Setting SCFConvForced true
         You can overwrite this default with %scf ConvForced false 


INFO   : the flag for use of LIBINT has been found!

================================================================================
                                       INPUT FILE
================================================================================
NAME = 23_CrO.in
|  1> #
|  2> # 23_CrO ccsd(t)/cbs
|  3> #
|  4> ! ccsd(t) extrapolate(3/4,def2) verytightscf
|  5> 
|  6> *xyz 0 5
|  7>   Cr  0.00000000000000      0.00000000000000      0.19264925280896
|  8>   O   0.00000000000000      0.00000000000000      1.80735074719104
|  9> *
| 10> 
| 11> %maxcore 5000
| 12> %pal
| 13> nprocs 24
| 14> end
| 15> 
| 16> 
| 17>                          ****END OF INPUT****
================================================================================

                   *****************************************
                   * Extrapolated Single Point Calculation *
                   *****************************************

----- Orbital basis set information -----
Your calculation utilizes the basis: def2-TZVPP
   F. Weigend and R. Ahlrichs, Phys. Chem. Chem. Phys. 7, 3297 (2005).

----- AuxJ basis set information -----
Your calculation utilizes the auxiliary basis: def2/J
   F. Weigend, Phys. Chem. Chem. Phys. 8, 1057 (2006).

----- AuxC basis set information -----
Your calculation utilizes the auxiliary basis: def2-TZVPP/C
  H-La, Hf-Rn : A. Hellweg, C. Hattig, S. Hofener and W. Klopper, Theor. Chem. Acc. 117, 587 (2007).
        Ce-Lu : J. Chmela and M. E. Harding, Mol. Phys. (2018).

----- AuxJK basis set information -----
Your calculation utilizes the auxiliary basis: def2/JK
   H-Ba, Hf-Rn: F. Weigend, J. Comput. Chem. 29, 167 (2008).

All done

                     -----------------------------------------
                     Extrapolated Energy 1 Basis=  def2-TZVPP
                     -----------------------------------------

---------------------------------
CARTESIAN COORDINATES (ANGSTROEM)
---------------------------------
  Cr     0.000000    0.000000    0.192649
  O      0.000000    0.000000    1.807351

----------------------------
CARTESIAN COORDINATES (A.U.)
----------------------------
  NO LB      ZA    FRAG     MASS         X           Y           Z
   0 Cr   24.0000    0    52.000    0.000000    0.000000    0.364054
   1 O     8.0000    0    15.999    0.000000    0.000000    3.415398

--------------------------------
INTERNAL COORDINATES (ANGSTROEM)
--------------------------------
 Cr     0   0   0     0.000000000000     0.00000000     0.00000000
 O      1   0   0     1.614701494382     0.00000000     0.00000000

---------------------------
INTERNAL COORDINATES (A.U.)
---------------------------
 Cr     0   0   0     0.000000000000     0.00000000     0.00000000
 O      1   0   0     3.051343612416     0.00000000     0.00000000

---------------------
BASIS SET INFORMATION
---------------------
There are 2 groups of distinct atoms

 Group   1 Type Cr  : 17s12p7d2f1g contracted to 6s5p4d2f1g pattern {842111/63111/4111/11/1}
 Group   2 Type O   : 11s6p2d1f contracted to 5s3p2d1f pattern {62111/411/11/1}

Atom   0Cr   basis set group =>   1
Atom   1O    basis set group =>   2
---------------------------------
AUXILIARY/J BASIS SET INFORMATION
---------------------------------
There are 2 groups of distinct atoms

 Group   1 Type Cr  : 19s5p5d3f3g contracted to 8s5p5d2f3g pattern {121111111/11111/11111/21/111}
 Group   2 Type O   : 12s5p4d2f1g contracted to 6s4p3d1f1g pattern {711111/2111/211/2/1}

Atom   0Cr   basis set group =>   1
Atom   1O    basis set group =>   2
---------------------------------
AUXILIARY/C BASIS SET INFORMATION
---------------------------------
There are 2 groups of distinct atoms

 Group   1 Type Cr  : 9s9p8d7f5g3h1i contracted to 9s9p8d7f5g3h1i pattern {111111111/111111111/11111111/1111111/11111/111/1}
 Group   2 Type O   : 8s6p5d3f1g contracted to 8s6p4d3f1g pattern {11111111/111111/2111/111/1}

Atom   0Cr   basis set group =>   1
Atom   1O    basis set group =>   2
----------------------------------
AUXILIARY/JK BASIS SET INFORMATION
----------------------------------
There are 2 groups of distinct atoms

 Group   1 Type Cr  : 19s14p12d10f7g3h1i contracted to 16s13p11d9f5g3h1i pattern {4111111111111111/2111111111111/21111111111/211111111/31111/111/1}
 Group   2 Type O   : 14s10p6d2f1g contracted to 10s8p4d2f1g pattern {5111111111/31111111/3111/11/1}

Atom   0Cr   basis set group =>   1
Atom   1O    basis set group =>   2


           ************************************************************
           *        Program running with 24 parallel MPI-processes    *
           *              working on a common directory               *
           ************************************************************
------------------------------------------------------------------------------
                           ORCA GTO INTEGRAL CALCULATION
------------------------------------------------------------------------------

                         BASIS SET STATISTICS AND STARTUP INFO

 # of primitive gaussian shells          ...   59
 # of primitive gaussian functions       ...  157
 # of contracted shells                  ...   29
 # of contracted basis functions         ...   95
 Highest angular momentum                ...    4
 Maximum contraction depth               ...    8
 Integral package used                   ... LIBINT
 Integral threshhold            Thresh   ...  1.000e-12
 Primitive cut-off              TCut     ...  1.000e-14


------------------------------ INTEGRAL EVALUATION ----------------------------


 * One electron integrals 
 Pre-screening matrix                    ... done
 Shell pair data                         ... done (   0.000 sec)



           ************************************************************
           *        Program running with 24 parallel MPI-processes    *
           *              working on a common directory               *
           ************************************************************
-------------------------------------------------------------------------------
                                 ORCA SCF
-------------------------------------------------------------------------------

------------
SCF SETTINGS
------------
Hamiltonian:
 Ab initio Hamiltonian  Method          .... Hartree-Fock(GTOs)


General Settings:
 Integral files         IntName         .... 23_CrO
 Hartree-Fock type      HFTyp           .... UHF
 Total Charge           Charge          ....    0
 Multiplicity           Mult            ....    5
 Number of Electrons    NEL             ....   32
 Basis Dimension        Dim             ....   95
 Nuclear Repulsion      ENuc            ....     62.9231002430 Eh

Convergence Acceleration:
 DIIS                   CNVDIIS         .... on
   Start iteration      DIISMaxIt       ....    12
   Startup error        DIISStart       ....  0.200000
   # of expansion vecs  DIISMaxEq       ....     5
   Bias factor          DIISBfac        ....   1.050
   Max. coefficient     DIISMaxC        ....  10.000
 Newton-Raphson         CNVNR           .... off
 SOSCF                  CNVSOSCF        .... off
 Level Shifting         CNVShift        .... on
   Level shift para.    LevelShift      ....    0.2500
   Turn off err/grad.   ShiftErr        ....    0.0010
 Zerner damping         CNVZerner       .... off
 Static damping         CNVDamp         .... on
   Fraction old density DampFac         ....    0.7000
   Max. Damping (<1)    DampMax         ....    0.9800
   Min. Damping (>=0)   DampMin         ....    0.0000
   Turn off err/grad.   DampErr         ....    0.1000
 Fernandez-Rico         CNVRico         .... off

SCF Procedure:
 Maximum # iterations   MaxIter         ....   125
 SCF integral mode      SCFMode         .... Direct
   Integral package                     .... LIBINT
 Reset frequency        DirectResetFreq ....    20
 Integral Threshold     Thresh          ....  1.000e-12 Eh
 Primitive CutOff       TCut            ....  1.000e-14 Eh

Convergence Tolerance:
 Convergence Check Mode ConvCheckMode   .... Total+1el-Energy
 Convergence forced     ConvForced      .... 1
 Energy Change          TolE            ....  1.000e-09 Eh
 1-El. energy change                    ....  1.000e-06 Eh
 DIIS Error             TolErr          ....  1.000e-08


Diagonalization of the overlap matrix:
Smallest eigenvalue                        ... 2.960e-03
Time for diagonalization                   ...    0.018 sec
Threshold for overlap eigenvalues          ... 1.000e-08
Number of eigenvalues below threshold      ... 0
Time for construction of square roots      ...    0.001 sec
Total time needed                          ...    0.019 sec

-------------------
DFT GRID GENERATION
-------------------

General Integration Accuracy     IntAcc      ...  4.340
Radial Grid Type                 RadialGrid  ... Gauss-Chebyshev
Angular Grid (max. acc.)         AngularGrid ... Lebedev-110
Angular grid pruning method      GridPruning ... 3 (G Style)
Weight generation scheme         WeightScheme... Becke
Basis function cutoff            BFCut       ...    1.0000e-12
Integration weight cutoff        WCut        ...    1.0000e-14
Grids for H and He will be reduced by one unit

# of grid points (after initial pruning)     ...   4688 (   0.0 sec)
# of grid points (after weights+screening)   ...   4661 (   0.0 sec)
nearest neighbour list constructed           ...    0.0 sec
Grid point re-assignment to atoms done       ...    0.0 sec
Grid point division into batches done        ...    0.0 sec
Reduced shell lists constructed in    0.0 sec

Total number of grid points                  ...     4661
Total number of batches                      ...       73
Average number of points per batch           ...       63
Average number of grid points per atom       ...     2330
Average number of shells per batch           ...     8.40 (28.97%)
Average number of basis functions per batch  ...    27.60 (29.05%)
Average number of large shells per batch     ...     6.40 (76.19%)
Average number of large basis fcns per batch ...    17.60 (63.77%)
Maximum spatial batch extension              ...  19.25, 28.73, 15.77 au
Average spatial batch extension              ...   1.01,  1.32,  0.86 au

Time for grid setup =    0.019 sec

------------------------------
INITIAL GUESS: MODEL POTENTIAL
------------------------------
Loading Hartree-Fock densities                     ... done
Calculating cut-offs                               ... done
Setting up the integral package                    ... done
Initializing the effective Hamiltonian             ... done
Starting the Coulomb interaction                   ... done (   0.0 sec)
Reading the grid                                   ... done
Mapping shells                                     ... done
Starting the XC term evaluation                    ... done (   0.0 sec)
Transforming the Hamiltonian                       ... done (   0.0 sec)
Diagonalizing the Hamiltonian                      ... done (   0.0 sec)
Back transforming the eigenvectors                 ... done (   0.0 sec)
Now organizing SCF variables                       ... done
                      ------------------
                      INITIAL GUESS DONE (   0.1 sec)
                      ------------------
--------------
SCF ITERATIONS
--------------
ITER       Energy         Delta-E        Max-DP      RMS-DP      [F,P]     Damp
               ***  Starting incremental Fock matrix formation  ***
  0  -1117.8364512909   0.000000000000 0.03633377  0.00120710  0.4663644 0.7000
  1  -1117.9553843216  -0.118933030675 0.02270496  0.00073606  0.2296948 0.7000
                               ***Turning on DIIS***
  2  -1118.0018243295  -0.046440007922 0.01085113  0.00036719  0.1689968 0.7000
  3  -1118.1923220286  -0.190497699066 0.00692245  0.00025466  0.1255176 0.7000
  4  -1118.3946724132  -0.202350384648 0.02166417  0.00081949  0.0882521 0.0000
  5  -1118.1618024555   0.232869957664 0.01609110  0.00033705  0.0143396 0.0000
  6  -1118.1232231273   0.038579328281 0.01761108  0.00029151  0.0102740 0.0000
  7  -1118.1582255704  -0.035002443178 0.02322005  0.00035500  0.0086385 0.0000
  8  -1118.1470999519   0.011125618570 0.02413063  0.00036803  0.0083613 0.0000
  9  -1118.1380652997   0.009034652177 0.01568484  0.00025980  0.0081115 0.0000
 10  -1118.1122138797   0.025851420024 0.00860436  0.00012243  0.0077993 0.0000
 11  -1118.0905811805   0.021632699147 0.00458564  0.00009542  0.0090488 0.0000
 12  -1118.0801325302   0.010448650353 0.00279753  0.00005688  0.0074453 0.0000
 13  -1118.1084869940  -0.028354463810 0.00696016  0.00012318  0.0074079 0.0000
 14  -1118.1473374162  -0.038850422190 0.02059384  0.00036385  0.0075337 0.0000
 15  -1118.1493834713  -0.002046055169 0.01320685  0.00026487  0.0081386 0.0000
 16  -1118.1247028885   0.024680582856 0.00537160  0.00007613  0.0076790 0.0000
 17  -1118.0945904951   0.030112393394 0.00468899  0.00006369  0.0082820 0.0000
 18  -1118.0862935750   0.008296920112 0.00103610  0.00002259  0.0098801 0.0000
 19  -1118.0996089353  -0.013315360358 0.00950799  0.00017304  0.0098638 0.0000
               *** Restarting incremental Fock matrix formation ***
                                   *** Resetting DIIS ***
 20  -1118.1467820667  -0.047173131408 0.00670859  0.00018071  0.0081573 0.0000
 21  -1118.1485351373  -0.001753070509 0.00703572  0.00018787  0.0076057 0.0000
 22  -1118.1462128277   0.002322309574 0.00479395  0.00012487  0.0068728 0.0000
 23  -1118.1322062425   0.014006585159 0.00217040  0.00004554  0.0068562 0.0000
 24  -1118.1155898768   0.016616365765 0.00268128  0.00003696  0.0075926 0.0000
 25  -1118.1102385300   0.005351346786 0.00088268  0.00001266  0.0084890 0.0000
 26  -1118.1152576556  -0.005019125613 0.00551588  0.00012953  0.0086353 0.0000
 27  -1118.1602677945  -0.045010138873 0.00793124  0.00022641  0.0063258 0.0000
 28  -1118.1552314442   0.005036350266 0.00885693  0.00025935  0.0065282 0.0000
 29  -1118.1694366564  -0.014205212256 0.00929687  0.00028183  0.0062582 0.0000
 30  -1118.1776478110  -0.008211154529 0.01332003  0.00039191  0.0059761 0.0000
 31  -1118.1553313321   0.022316478842 0.00623007  0.00012458  0.0055750 0.0000
 32  -1118.2298656362  -0.074534304100 0.02427441  0.00066686  0.0061636 0.0000
 33  -1118.1910294762   0.038836160000 0.01050378  0.00013484  0.0098301 0.0000
 34  -1118.1714006226   0.019628853591 0.00704100  0.00008880  0.0022430 0.0000
 35  -1118.1660804877   0.005320134944 0.00949504  0.00010215  0.0009020 0.0000
 36  -1118.1610538589   0.005026628809 0.00355909  0.00004055  0.0004816 0.0000
 37  -1118.1620653353  -0.001011476438 0.00166983  0.00002420  0.0002506 0.0000
 38  -1118.1604659109   0.001599424415 0.00039270  0.00001030  0.0001134 0.0000
 39  -1118.1595272731   0.000938637853 0.00032041  0.00000566  0.0000793 0.0000
               *** Restarting incremental Fock matrix formation ***
                                   *** Resetting DIIS ***
 40  -1118.1593948267   0.000132446351 0.00004543  0.00000106  0.0000339 0.0000
 41  -1118.1593451832   0.000049643480 0.00003823  0.00000084  0.0000299 0.0000
 42  -1118.1592340635   0.000111119721 0.00006627  0.00000148  0.0000220 0.0000
 43  -1118.1594203637  -0.000186300193 0.00002921  0.00000058  0.0000138 0.0000
 44  -1118.1594035277   0.000016835975 0.00001798  0.00000042  0.0000062 0.0000
 45  -1118.1594170505  -0.000013522751 0.00001558  0.00000026  0.0000039 0.0000
 46  -1118.1594063986   0.000010651837 0.00000276  0.00000007  0.0000010 0.0000
 47  -1118.1593960095   0.000010389099 0.00000094  0.00000003  0.0000006 0.0000
 48  -1118.1593956872   0.000000322353 0.00000086  0.00000002  0.0000004 0.0000
 49  -1118.1593941409   0.000001546313 0.00000036  0.00000001  0.0000002 0.0000
 50  -1118.1593945834  -0.000000442553 0.00000010  0.00000000  0.0000001 0.0000
 51  -1118.1593950553  -0.000000471846 0.00000012  0.00000000  0.0000001 0.0000
 52  -1118.1593947898   0.000000265518 0.00000009  0.00000000  0.0000000 0.0000
 53  -1118.1593950060  -0.000000216283 0.00000004  0.00000000  0.0000000 0.0000
                            ***DIIS convergence achieved***

               *****************************************************
               *                     SUCCESS                       *
               *           SCF CONVERGED AFTER  54 CYCLES          *
               *****************************************************


----------------
TOTAL SCF ENERGY
----------------

Total Energy       :        -1118.15939504 Eh          -30426.66400 eV

Components:
Nuclear Repulsion  :           62.92310024 Eh            1712.22461 eV
Electronic Energy  :        -1181.08249528 Eh          -32138.88861 eV
One Electron Energy:        -1664.91412770 Eh          -45304.61666 eV
Two Electron Energy:          483.83163242 Eh           13165.72805 eV

Virial components:
Potential Energy   :        -2236.60112076 Eh          -60861.01061 eV
Kinetic Energy     :         1118.44172572 Eh           30434.34661 eV
Virial Ratio       :            1.99974757


---------------
SCF CONVERGENCE
---------------

  Last Energy change         ...   -3.2259e-08  Tolerance :   1.0000e-09
  Last MAX-Density change    ...    4.2718e-08  Tolerance :   1.0000e-08
  Last RMS-Density change    ...    8.9875e-10  Tolerance :   1.0000e-09
  Last DIIS Error            ...    1.6926e-08  Tolerance :   1.0000e-08

             **** THE GBW FILE WAS UPDATED (23_CrO.gbw) ****
             **** DENSITY FILE WAS UPDATED (23_CrO.scfp) ****
             **** ENERGY FILE WAS UPDATED (23_CrO.en.tmp) ****
----------------------
UHF SPIN CONTAMINATION
----------------------

Expectation value of <S**2>     :     6.698140
Ideal value S*(S+1) for S=2.0   :     6.000000
Deviation                       :     0.698140

             **** THE GBW FILE WAS UPDATED (23_CrO.gbw) ****
             **** DENSITY FILE WAS UPDATED (23_CrO.scfp) ****
----------------
ORBITAL ENERGIES
----------------
                 SPIN UP ORBITALS
  NO   OCC          E(Eh)            E(eV) 
   0   1.0000    -220.580375     -6002.2971 
   1   1.0000     -26.475738      -720.4415 
   2   1.0000     -22.401955      -609.5882 
   3   1.0000     -22.401442      -609.5742 
   4   1.0000     -22.400498      -609.5485 
   5   1.0000     -20.532376      -558.7143 
   6   1.0000      -3.637784       -98.9891 
   7   1.0000      -2.452621       -66.7392 
   8   1.0000      -2.411284       -65.6144 
   9   1.0000      -2.409075       -65.5543 
  10   1.0000      -1.149749       -31.2863 
  11   1.0000      -0.604505       -16.4494 
  12   1.0000      -0.572436       -15.5768 
  13   1.0000      -0.552056       -15.0222 
  14   1.0000      -0.518705       -14.1147 
  15   1.0000      -0.466172       -12.6852 
  16   1.0000      -0.415817       -11.3150 
  17   1.0000      -0.274133        -7.4595 
  18   0.0000       0.037592         1.0229 
  19   0.0000       0.062569         1.7026 
  20   0.0000       0.063250         1.7211 
  21   0.0000       0.109871         2.9897 
  22   0.0000       0.147681         4.0186 
  23   0.0000       0.147736         4.0201 
  24   0.0000       0.166446         4.5292 
  25   0.0000       0.172111         4.6834 
  26   0.0000       0.174451         4.7471 
  27   0.0000       0.204604         5.5676 
  28   0.0000       0.211576         5.7573 
  29   0.0000       0.402052        10.9404 
  30   0.0000       0.404024        10.9940 
  31   0.0000       0.536458        14.5978 
  32   0.0000       0.585515        15.9327 
  33   0.0000       0.586373        15.9560 
  34   0.0000       0.624038        16.9809 
  35   0.0000       0.672523        18.3003 
  36   0.0000       0.673595        18.3294 
  37   0.0000       0.763159        20.7666 
  38   0.0000       0.769669        20.9438 
  39   0.0000       0.770753        20.9733 
  40   0.0000       0.972693        26.4683 
  41   0.0000       1.557338        42.3773 
  42   0.0000       1.557394        42.3788 
  43   0.0000       1.611144        43.8414 
  44   0.0000       1.628474        44.3130 
  45   0.0000       1.676252        45.6131 
  46   0.0000       1.676285        45.6140 
  47   0.0000       1.683785        45.8181 
  48   0.0000       1.929401        52.5017 
  49   0.0000       1.941872        52.8410 
  50   0.0000       1.970326        53.6153 
  51   0.0000       1.970332        53.6155 
  52   0.0000       2.033495        55.3342 
  53   0.0000       2.155948        58.6663 
  54   0.0000       2.199085        59.8401 
  55   0.0000       2.249330        61.2074 
  56   0.0000       2.336431        63.5775 
  57   0.0000       2.338189        63.6254 
  58   0.0000       2.441016        66.4234 
  59   0.0000       2.605954        70.9116 
  60   0.0000       2.638478        71.7966 
  61   0.0000       2.841088        77.3099 
  62   0.0000       3.191393        86.8422 
  63   0.0000       3.202484        87.1440 
  64   0.0000       3.381762        92.0224 
  65   0.0000       4.290584       116.7527 
  66   0.0000       5.401491       146.9820 
  67   0.0000       5.404862       147.0738 
  68   0.0000       5.493869       149.4958 
  69   0.0000       5.494022       149.4999 
  70   0.0000       5.524087       150.3181 
  71   0.0000       5.598596       152.3455 
  72   0.0000       5.598596       152.3456 
  73   0.0000       5.933943       161.4708 
  74   0.0000       5.933943       161.4708 
  75   0.0000       5.946864       161.8224 
  76   0.0000       5.946865       161.8224 
  77   0.0000       6.075325       165.3180 
  78   0.0000       6.075360       165.3190 
  79   0.0000       6.431474       175.0093 
  80   0.0000       6.442608       175.3123 
  81   0.0000       6.609074       179.8420 
  82   0.0000       6.609095       179.8426 
  83   0.0000       6.635539       180.5622 
  84   0.0000       6.637994       180.6290 
  85   0.0000       6.680601       181.7884 
  86   0.0000       6.782156       184.5519 
  87   0.0000       6.805662       185.1915 
  88   0.0000       6.866744       186.8536 
  89   0.0000       6.867013       186.8609 
  90   0.0000       7.161240       194.8673 
  91   0.0000       7.408718       201.6015 
  92   0.0000       7.412195       201.6961 
  93   0.0000       7.598331       206.7611 
  94   0.0000      44.998544      1224.4726 

                 SPIN DOWN ORBITALS
  NO   OCC          E(Eh)            E(eV) 
   0   1.0000    -220.578123     -6002.2359 
   1   1.0000     -26.385170      -717.9770 
   2   1.0000     -22.325320      -607.5028 
   3   1.0000     -22.320054      -607.3596 
   4   1.0000     -22.294225      -606.6567 
   5   1.0000     -20.570195      -559.7435 
   6   1.0000      -3.344883       -91.0189 
   7   1.0000      -2.117939       -57.6320 
   8   1.0000      -2.083743       -56.7015 
   9   1.0000      -2.019088       -54.9422 
  10   1.0000      -1.281594       -34.8739 
  11   1.0000      -0.621520       -16.9124 
  12   1.0000      -0.532586       -14.4924 
  13   1.0000      -0.519703       -14.1418 
  14   0.0000       0.018474         0.5027 
  15   0.0000       0.100893         2.7454 
  16   0.0000       0.107312         2.9201 
  17   0.0000       0.120367         3.2754 
  18   0.0000       0.141697         3.8558 
  19   0.0000       0.141720         3.8564 
  20   0.0000       0.174888         4.7590 
  21   0.0000       0.177208         4.8221 
  22   0.0000       0.178214         4.8494 
  23   0.0000       0.214953         5.8492 
  24   0.0000       0.257491         7.0067 
  25   0.0000       0.280446         7.6313 
  26   0.0000       0.280591         7.6353 
  27   0.0000       0.300856         8.1867 
  28   0.0000       0.325266         8.8509 
  29   0.0000       0.463420        12.6103 
  30   0.0000       0.476733        12.9726 
  31   0.0000       0.639272        17.3955 
  32   0.0000       0.687832        18.7169 
  33   0.0000       0.719603        19.5814 
  34   0.0000       0.728674        19.8282 
  35   0.0000       0.729396        19.8479 
  36   0.0000       0.737612        20.0714 
  37   0.0000       0.752947        20.4887 
  38   0.0000       0.755863        20.5681 
  39   0.0000       0.767637        20.8885 
  40   0.0000       0.960360        26.1327 
  41   0.0000       1.604028        43.6478 
  42   0.0000       1.604164        43.6515 
  43   0.0000       1.629816        44.3496 
  44   0.0000       1.647069        44.8190 
  45   0.0000       1.701853        46.3098 
  46   0.0000       1.808333        49.2073 
  47   0.0000       1.808369        49.2082 
  48   0.0000       2.011772        54.7431 
  49   0.0000       2.012098        54.7520 
  50   0.0000       2.022313        55.0299 
  51   0.0000       2.053889        55.8892 
  52   0.0000       2.128383        57.9162 
  53   0.0000       2.229059        60.6558 
  54   0.0000       2.287635        62.2497 
  55   0.0000       2.317611        63.0654 
  56   0.0000       2.510710        68.3199 
  57   0.0000       2.519595        68.5617 
  58   0.0000       2.552357        69.4532 
  59   0.0000       2.648225        72.0619 
  60   0.0000       2.676238        72.8241 
  61   0.0000       2.795381        76.0662 
  62   0.0000       3.178018        86.4783 
  63   0.0000       3.191303        86.8398 
  64   0.0000       3.325065        90.4796 
  65   0.0000       4.279734       116.4575 
  66   0.0000       5.399301       146.9225 
  67   0.0000       5.418813       147.4534 
  68   0.0000       5.482549       149.1878 
  69   0.0000       5.483816       149.2222 
  70   0.0000       5.550389       151.0338 
  71   0.0000       5.589756       152.1050 
  72   0.0000       5.589760       152.1051 
  73   0.0000       6.042607       164.4277 
  74   0.0000       6.042612       164.4278 
  75   0.0000       6.056917       164.8171 
  76   0.0000       6.056917       164.8171 
  77   0.0000       6.142947       167.1581 
  78   0.0000       6.143288       167.1674 
  79   0.0000       6.468243       176.0098 
  80   0.0000       6.496150       176.7692 
  81   0.0000       6.726529       183.0382 
  82   0.0000       6.728597       183.0944 
  83   0.0000       6.774053       184.3314 
  84   0.0000       6.855465       186.5467 
  85   0.0000       6.856448       186.5734 
  86   0.0000       6.862907       186.7492 
  87   0.0000       6.900654       187.7763 
  88   0.0000       6.928828       188.5430 
  89   0.0000       6.930581       188.5907 
  90   0.0000       7.214928       196.3282 
  91   0.0000       7.403296       201.4539 
  92   0.0000       7.430183       202.1856 
  93   0.0000       7.571259       206.0244 
  94   0.0000      44.976919      1223.8842 

                    ********************************
                    * MULLIKEN POPULATION ANALYSIS *
                    ********************************

--------------------------------------------
MULLIKEN ATOMIC CHARGES AND SPIN POPULATIONS
--------------------------------------------
   0 Cr:    0.656616    4.867735
   1 O :   -0.656616   -0.867735
Sum of atomic charges         :   -0.0000000
Sum of atomic spin populations:    4.0000000

-----------------------------------------------------
MULLIKEN REDUCED ORBITAL CHARGES AND SPIN POPULATIONS
-----------------------------------------------------
CHARGE
  0 Crs       :     6.792994  s :     6.792994
      pz      :     4.184503  p :    12.312943
      px      :     4.051222
      py      :     4.077217
      dz2     :     0.968143  d :     4.211744
      dxz     :     0.200313
      dyz     :     1.044211
      dx2y2   :     0.999321
      dxy     :     0.999755
      f0      :     0.005703  f :     0.024953
      f+1     :     0.009931
      f-1     :     0.009069
      f+2     :     0.000187
      f-2     :     0.000012
      f+3     :     0.000026
      f-3     :     0.000026
      g0      :     0.000300  g :     0.000750
      g+1     :     0.000213
      g-1     :     0.000212
      g+2     :     0.000013
      g-2     :     0.000002
      g+3     :     0.000000
      g-3     :     0.000001
      g+4     :     0.000005
      g-4     :     0.000005
  1 O s       :     3.979711  s :     3.979711
      pz      :     1.062400  p :     4.659511
      px      :     1.732280
      py      :     1.864831
      dz2     :     0.005828  d :     0.016061
      dxz     :     0.005707
      dyz     :     0.004096
      dx2y2   :     0.000224
      dxy     :     0.000205
      f0      :     0.000646  f :     0.001333
      f+1     :     0.000306
      f-1     :     0.000337
      f+2     :     0.000022
      f-2     :     0.000021
      f+3     :     0.000001
      f-3     :     0.000001

SPIN
  0 Crs       :     0.776626  s :     0.776626
      pz      :     0.174951  p :     0.245502
      px      :     0.022402
      py      :     0.048149
      dz2     :     0.824811  d :     3.847701
      dxz     :     0.085094
      dyz     :     0.939132
      dx2y2   :     0.998910
      dxy     :     0.999755
      f0      :    -0.001947  f :    -0.001956
      f+1     :     0.000270
      f-1     :    -0.000357
      f+2     :     0.000100
      f-2     :     0.000012
      f+3     :    -0.000017
      f-3     :    -0.000017
      g0      :    -0.000085  g :    -0.000138
      g+1     :    -0.000035
      g-1     :    -0.000036
      g+2     :     0.000007
      g-2     :     0.000002
      g+3     :    -0.000000
      g-3     :     0.000000
      g+4     :     0.000005
      g-4     :     0.000005
  1 O s       :     0.018361  s :     0.018361
      pz      :    -0.794258  p :    -0.890493
      px      :    -0.109284
      py      :     0.013049
      dz2     :     0.002249  d :     0.004555
      dxz     :     0.001698
      dyz     :     0.000191
      dx2y2   :     0.000212
      dxy     :     0.000205
      f0      :     0.000038  f :    -0.000158
      f+1     :    -0.000127
      f-1     :    -0.000109
      f+2     :     0.000021
      f-2     :     0.000021
      f+3     :    -0.000001
      f-3     :    -0.000001


                     *******************************
                     * LOEWDIN POPULATION ANALYSIS *
                     *******************************

-------------------------------------------
LOEWDIN ATOMIC CHARGES AND SPIN POPULATIONS
-------------------------------------------
   0 Cr:    0.216246    4.769843
   1 O :   -0.216246   -0.769843

----------------------------------------------------
LOEWDIN REDUCED ORBITAL CHARGES AND SPIN POPULATIONS
----------------------------------------------------
CHARGE
  0 Crs       :     6.744577  s :     6.744577
      pz      :     4.341898  p :    12.519042
      px      :     4.070859
      py      :     4.106285
      dz2     :     1.084411  d :     4.435328
      dxz     :     0.258460
      dyz     :     1.094264
      dx2y2   :     0.998879
      dxy     :     0.999314
      f0      :     0.034723  f :     0.082084
      f+1     :     0.022488
      f-1     :     0.024611
      f+2     :     0.000192
      f-2     :     0.000018
      f+3     :     0.000026
      f-3     :     0.000026
      g0      :     0.001398  g :     0.002722
      g+1     :     0.000612
      g-1     :     0.000686
      g+2     :     0.000013
      g-2     :     0.000003
      g+3     :     0.000000
      g-3     :     0.000001
      g+4     :     0.000005
      g-4     :     0.000005
  1 O s       :     3.641466  s :     3.641466
      pz      :     1.110646  p :     4.517260
      px      :     1.642916
      py      :     1.763698
      dz2     :     0.037649  d :     0.052574
      dxz     :     0.004371
      dyz     :     0.009384
      dx2y2   :     0.000595
      dxy     :     0.000575
      f0      :     0.003461  f :     0.004947
      f+1     :     0.000267
      f-1     :     0.001044
      f+2     :     0.000087
      f-2     :     0.000086
      f+3     :     0.000001
      f-3     :     0.000001

SPIN
  0 Crs       :     0.717106  s :     0.717106
      pz      :     0.204211  p :     0.279571
      px      :     0.020512
      py      :     0.054848
      dz2     :     0.781468  d :     3.784932
      dxz     :     0.080583
      dyz     :     0.925098
      dx2y2   :     0.998468
      dxy     :     0.999314
      f0      :    -0.010090  f :    -0.010967
      f+1     :    -0.001526
      f-1     :     0.000560
      f+2     :     0.000106
      f-2     :     0.000018
      f+3     :    -0.000017
      f-3     :    -0.000017
      g0      :    -0.000679  g :    -0.000798
      g+1     :    -0.000103
      g-1     :    -0.000035
      g+2     :     0.000008
      g-2     :     0.000003
      g+3     :    -0.000000
      g-3     :     0.000000
      g+4     :     0.000005
      g-4     :     0.000005
  1 O s       :    -0.001360  s :    -0.001360
      pz      :    -0.700480  p :    -0.789353
      px      :    -0.100992
      py      :     0.012119
      dz2     :     0.009408  d :     0.018846
      dxz     :     0.001586
      dyz     :     0.006695
      dx2y2   :     0.000582
      dxy     :     0.000575
      f0      :     0.001162  f :     0.002023
      f+1     :    -0.000042
      f-1     :     0.000733
      f+2     :     0.000086
      f-2     :     0.000086
      f+3     :    -0.000001
      f-3     :    -0.000001


                      *****************************
                      * MAYER POPULATION ANALYSIS *
                      *****************************

  NA   - Mulliken gross atomic population
  ZA   - Total nuclear charge
  QA   - Mulliken gross atomic charge
  VA   - Mayer's total valence
  BVA  - Mayer's bonded valence
  FA   - Mayer's free valence

  ATOM       NA         ZA         QA         VA         BVA        FA
  0 Cr    23.3434    24.0000     0.6566     5.6962     1.1349     4.5613
  1 O      8.6566     8.0000    -0.6566     1.7998     1.1349     0.6649

  Mayer bond orders larger than 0.100000
B(  0-Cr,  1-O ) :   1.1349 

-------
TIMINGS
-------

Total SCF time: 0 days 0 hours 0 min 7 sec 

Total time                  ....       7.777 sec
Sum of individual times     ....       7.374 sec  ( 94.8%)

Fock matrix formation       ....       7.008 sec  ( 90.1%)
Diagonalization             ....       0.137 sec  (  1.8%)
Density matrix formation    ....       0.023 sec  (  0.3%)
Population analysis         ....       0.006 sec  (  0.1%)
Initial guess               ....       0.108 sec  (  1.4%)
Orbital Transformation      ....       0.000 sec  (  0.0%)
Orbital Orthonormalization  ....       0.000 sec  (  0.0%)
DIIS solution               ....       0.073 sec  (  0.9%)


           ************************************************************
           *        Program running with 24 parallel MPI-processes    *
           *              working on a common directory               *
           ************************************************************


------------------------------------------------------------------------------- 
                              ORCA-MATRIX DRIVEN CI                            
------------------------------------------------------------------------------- 

--------------------------------
AUTOMATIC CHOICE OF INCORE LEVEL
--------------------------------

Memory available                           ...   2500.00 MB
Memory needed for S+T                      ...     10.58 MB
Memory needed for J+K                      ...     21.26 MB
Memory needed for DIIS                     ...    148.19 MB
Memory needed for 3-ext                    ...     41.80 MB
Memory needed for 4-ext                    ...    135.84 MB
Memory needed for triples                  ...     17.42 MB
 -> Final InCoreLevel    ... 5
 -> check shows that triples correction can be computed


Wavefunction type
-----------------
Correlation treatment                      ...      CCSD     
Single excitations                         ... ON
Orbital optimization                       ... OFF
Calculation of Z vector                    ... OFF
Calculation of Brueckner orbitals          ... OFF
Perturbative triple excitations            ... ON
Calculation of F12 correction              ... OFF
Frozen core treatment                      ... chemical core (12 el)
Reference Wavefunction                     ... UHF
  Alpha-MOs occ    :     6 ...   17 ( 12 MO's/ 12 electrons)
  Beta-MOs occ     :     6 ...   13 (  8 MO's/  8 electrons)
  Alpha-MOs virt   :    18 ...   94 ( 77 MO's              )
  Beta-MOs virt    :    14 ...   94 ( 81 MO's              )
Number of AO's                             ...     95
Number of electrons                        ...     32
Number of correlated electrons             ...     20

Algorithmic settings
--------------------
Integral transformation                    ... AO direct full transformation
K(C) Formation                             ... FULL-MO TRAFO
Maximum number of iterations               ...        50
Convergence tolerance (max. residuum)      ... 1.000e-06
Level shift for amplitude update           ... 2.000e-01
Maximum number of DIIS vectors             ...         7
DIIS turned on at iteration                ...         0
Damping before turning on DIIS             ...     0.500
Damping after turning on DIIS              ...     0.000
Pair specific amplitude update             ... OFF
Natural orbital iterations                 ... OFF
Perturbative natural orbital generation    ... OFF
Printlevel                                 ... 2

Memory handling:
----------------
Maximum memory for working arrays          ...   2500 MB
Data storage in matrix containers          ... UNCOMPRESSED
Data type for integral storage             ... DOUBLE
In-Core Storage of quantities:
   Amplitudes+Sigma Vector      ... YES
   J+K operators                ... YES
   DIIS vectors                 ... YES
   3-external integrals         ... YES
   4-external integrals         ... YES


Initializing the integral package          ... done
Warning: reference  - re-canonicalizations have been set to INT 1 VIRT 1

--------------------------
UNRESTRICTED FOCK OPERATOR
--------------------------

<ss|ss>:         2016 b           47 skpd (  2.3%)    0.001 s ( 0.000 ms/b)
<ss|sp>:         5481 b          123 skpd (  2.2%)    0.001 s ( 0.000 ms/b)
<ss|sd>:         4158 b           70 skpd (  1.7%)    0.001 s ( 0.000 ms/b)
<ss|sf>:         2079 b           36 skpd (  1.7%)    0.001 s ( 0.000 ms/b)
<ss|sg>:          693 b           11 skpd (  1.6%)    0.000 s ( 0.001 ms/b)
<ss|pp>:         2268 b           32 skpd (  1.4%)    0.001 s ( 0.001 ms/b)
<ss|pd>:         3024 b           50 skpd (  1.7%)    0.001 s ( 0.000 ms/b)
<ss|pf>:         1512 b           24 skpd (  1.6%)    0.000 s ( 0.000 ms/b)
<ss|pg>:          504 b            8 skpd (  1.6%)    0.001 s ( 0.001 ms/b)
<ss|dd>:         1323 b           20 skpd (  1.5%)    0.001 s ( 0.001 ms/b)
<ss|df>:         1134 b           18 skpd (  1.6%)    0.000 s ( 0.000 ms/b)
<ss|dg>:          378 b            6 skpd (  1.6%)    0.001 s ( 0.002 ms/b)
<ss|ff>:          378 b            6 skpd (  1.6%)    0.000 s ( 0.001 ms/b)
<ss|fg>:          189 b            3 skpd (  1.6%)    0.001 s ( 0.003 ms/b)
<ss|gg>:           63 b            1 skpd (  1.6%)    0.001 s ( 0.009 ms/b)
<sp|sp>:         3828 b           78 skpd (  2.0%)    0.002 s ( 0.000 ms/b)
<sp|sd>:         5742 b           72 skpd (  1.3%)    0.002 s ( 0.000 ms/b)
<sp|sf>:         2871 b           38 skpd (  1.3%)    0.001 s ( 0.000 ms/b)
<sp|sg>:          957 b           11 skpd (  1.1%)    0.001 s ( 0.001 ms/b)
<sp|pp>:         3132 b           26 skpd (  0.8%)    0.002 s ( 0.001 ms/b)
<sp|pd>:         4176 b           47 skpd (  1.1%)    0.003 s ( 0.001 ms/b)
<sp|pf>:         2088 b           22 skpd (  1.1%)    0.001 s ( 0.001 ms/b)
<sp|pg>:          696 b            8 skpd (  1.1%)    0.002 s ( 0.002 ms/b)
<sp|dd>:         1827 b           18 skpd (  1.0%)    0.003 s ( 0.001 ms/b)
<sp|df>:         1566 b           18 skpd (  1.1%)    0.001 s ( 0.001 ms/b)
<sp|dg>:          522 b            6 skpd (  1.1%)    0.002 s ( 0.004 ms/b)
<sp|ff>:          522 b            6 skpd (  1.1%)    0.001 s ( 0.002 ms/b)
<sp|fg>:          261 b            3 skpd (  1.1%)    0.001 s ( 0.005 ms/b)
<sp|gg>:           87 b            1 skpd (  1.1%)    0.002 s ( 0.020 ms/b)
<sd|sd>:         2211 b           12 skpd (  0.5%)    0.001 s ( 0.000 ms/b)
<sd|sf>:         2178 b           16 skpd (  0.7%)    0.001 s ( 0.000 ms/b)
<sd|sg>:          726 b            3 skpd (  0.4%)    0.001 s ( 0.002 ms/b)
<sd|pp>:         2376 b            1 skpd (  0.0%)    0.003 s ( 0.001 ms/b)
<sd|pd>:         3168 b           10 skpd (  0.3%)    0.004 s ( 0.001 ms/b)
<sd|pf>:         1584 b            3 skpd (  0.2%)    0.001 s ( 0.001 ms/b)
<sd|pg>:          528 b            1 skpd (  0.2%)    0.002 s ( 0.004 ms/b)
<sd|dd>:         1386 b            2 skpd (  0.1%)    0.004 s ( 0.003 ms/b)
<sd|df>:         1188 b            5 skpd (  0.4%)    0.002 s ( 0.002 ms/b)
<sd|dg>:          396 b            2 skpd (  0.5%)    0.003 s ( 0.007 ms/b)
<sd|ff>:          396 b            1 skpd (  0.3%)    0.001 s ( 0.003 ms/b)
<sd|fg>:          198 b            1 skpd (  0.5%)    0.002 s ( 0.010 ms/b)
<sd|gg>:           66 b            0 skpd (  0.0%)    0.003 s ( 0.040 ms/b)
<sf|sf>:          561 b            7 skpd (  1.2%)    0.000 s ( 0.001 ms/b)
<sf|sg>:          363 b            2 skpd (  0.6%)    0.001 s ( 0.002 ms/b)
<sf|pp>:         1188 b            1 skpd (  0.1%)    0.002 s ( 0.002 ms/b)
<sf|pd>:         1584 b            4 skpd (  0.3%)    0.003 s ( 0.002 ms/b)
<sf|pf>:          792 b            1 skpd (  0.1%)    0.001 s ( 0.001 ms/b)
<sf|pg>:          264 b            0 skpd (  0.0%)    0.002 s ( 0.008 ms/b)
<sf|dd>:          693 b            0 skpd (  0.0%)    0.003 s ( 0.004 ms/b)
<sf|df>:          594 b            2 skpd (  0.3%)    0.002 s ( 0.003 ms/b)
<sf|dg>:          198 b            0 skpd (  0.0%)    0.002 s ( 0.013 ms/b)
<sf|ff>:          198 b            0 skpd (  0.0%)    0.001 s ( 0.007 ms/b)
<sf|fg>:           99 b            0 skpd (  0.0%)    0.002 s ( 0.017 ms/b)
<sf|gg>:           33 b            0 skpd (  0.0%)    0.002 s ( 0.067 ms/b)
<sg|sg>:           66 b            0 skpd (  0.0%)    0.000 s ( 0.004 ms/b)
<sg|pp>:          396 b            0 skpd (  0.0%)    0.001 s ( 0.004 ms/b)
<sg|pd>:          528 b            1 skpd (  0.2%)    0.002 s ( 0.003 ms/b)
<sg|pf>:          264 b            0 skpd (  0.0%)    0.001 s ( 0.003 ms/b)
<sg|pg>:           88 b            0 skpd (  0.0%)    0.001 s ( 0.015 ms/b)
<sg|dd>:          231 b            0 skpd (  0.0%)    0.002 s ( 0.008 ms/b)
<sg|df>:          198 b            0 skpd (  0.0%)    0.001 s ( 0.006 ms/b)
<sg|dg>:           66 b            0 skpd (  0.0%)    0.002 s ( 0.027 ms/b)
<sg|ff>:           66 b            0 skpd (  0.0%)    0.001 s ( 0.010 ms/b)
<sg|fg>:           33 b            0 skpd (  0.0%)    0.001 s ( 0.033 ms/b)
<sg|gg>:           11 b            0 skpd (  0.0%)    0.001 s ( 0.128 ms/b)
<pp|pp>:          666 b            0 skpd (  0.0%)    0.002 s ( 0.003 ms/b)
<pp|pd>:         1728 b            0 skpd (  0.0%)    0.003 s ( 0.002 ms/b)
<pp|pf>:          864 b            0 skpd (  0.0%)    0.001 s ( 0.001 ms/b)
<pp|pg>:          288 b            0 skpd (  0.0%)    0.002 s ( 0.006 ms/b)
<pp|dd>:          756 b            0 skpd (  0.0%)    0.003 s ( 0.004 ms/b)
<pp|df>:          648 b            0 skpd (  0.0%)    0.002 s ( 0.003 ms/b)
<pp|dg>:          216 b            0 skpd (  0.0%)    0.002 s ( 0.011 ms/b)
<pp|ff>:          216 b            0 skpd (  0.0%)    0.001 s ( 0.005 ms/b)
<pp|fg>:          108 b            0 skpd (  0.0%)    0.002 s ( 0.015 ms/b)
<pp|gg>:           36 b            0 skpd (  0.0%)    0.002 s ( 0.062 ms/b)
<pd|pd>:         1176 b            0 skpd (  0.0%)    0.004 s ( 0.004 ms/b)
<pd|pf>:         1152 b            0 skpd (  0.0%)    0.002 s ( 0.002 ms/b)
<pd|pg>:          384 b            0 skpd (  0.0%)    0.004 s ( 0.011 ms/b)
<pd|dd>:         1008 b            0 skpd (  0.0%)    0.006 s ( 0.006 ms/b)
<pd|df>:          864 b            0 skpd (  0.0%)    0.004 s ( 0.004 ms/b)
<pd|dg>:          288 b            0 skpd (  0.0%)    0.005 s ( 0.019 ms/b)
<pd|ff>:          288 b            0 skpd (  0.0%)    0.003 s ( 0.009 ms/b)
<pd|fg>:          144 b            0 skpd (  0.0%)    0.004 s ( 0.027 ms/b)
<pd|gg>:           48 b            0 skpd (  0.0%)    0.005 s ( 0.111 ms/b)
<pf|pf>:          300 b            0 skpd (  0.0%)    0.001 s ( 0.004 ms/b)
<pf|pg>:          192 b            0 skpd (  0.0%)    0.003 s ( 0.015 ms/b)
<pf|dd>:          504 b            0 skpd (  0.0%)    0.004 s ( 0.008 ms/b)
<pf|df>:          432 b            0 skpd (  0.0%)    0.003 s ( 0.006 ms/b)
<pf|dg>:          144 b            0 skpd (  0.0%)    0.004 s ( 0.027 ms/b)
<pf|ff>:          144 b            0 skpd (  0.0%)    0.002 s ( 0.016 ms/b)
<pf|fg>:           72 b            0 skpd (  0.0%)    0.003 s ( 0.042 ms/b)
<pf|gg>:           24 b            0 skpd (  0.0%)    0.004 s ( 0.162 ms/b)
<pg|pg>:           36 b            0 skpd (  0.0%)    0.001 s ( 0.028 ms/b)
<pg|dd>:          168 b            0 skpd (  0.0%)    0.003 s ( 0.016 ms/b)
<pg|df>:          144 b            0 skpd (  0.0%)    0.002 s ( 0.011 ms/b)
<pg|dg>:           48 b            0 skpd (  0.0%)    0.003 s ( 0.053 ms/b)
<pg|ff>:           48 b            0 skpd (  0.0%)    0.001 s ( 0.022 ms/b)
<pg|fg>:           24 b            0 skpd (  0.0%)    0.002 s ( 0.077 ms/b)
<pg|gg>:            8 b            0 skpd (  0.0%)    0.002 s ( 0.272 ms/b)
<dd|dd>:          231 b            0 skpd (  0.0%)    0.004 s ( 0.017 ms/b)
<dd|df>:          378 b            0 skpd (  0.0%)    0.003 s ( 0.007 ms/b)
<dd|dg>:          126 b            0 skpd (  0.0%)    0.004 s ( 0.031 ms/b)
<dd|ff>:          126 b            0 skpd (  0.0%)    0.002 s ( 0.016 ms/b)
<dd|fg>:           63 b            0 skpd (  0.0%)    0.003 s ( 0.046 ms/b)
<dd|gg>:           21 b            0 skpd (  0.0%)    0.004 s ( 0.190 ms/b)
<df|df>:          171 b            0 skpd (  0.0%)    0.003 s ( 0.017 ms/b)
<df|dg>:          108 b            0 skpd (  0.0%)    0.004 s ( 0.040 ms/b)
<df|ff>:          108 b            0 skpd (  0.0%)    0.003 s ( 0.027 ms/b)
<df|fg>:           54 b            0 skpd (  0.0%)    0.004 s ( 0.070 ms/b)
<df|gg>:           18 b            0 skpd (  0.0%)    0.005 s ( 0.278 ms/b)
<dg|dg>:           21 b            0 skpd (  0.0%)    0.002 s ( 0.105 ms/b)
<dg|ff>:           36 b            0 skpd (  0.0%)    0.001 s ( 0.035 ms/b)
<dg|fg>:           18 b            0 skpd (  0.0%)    0.002 s ( 0.121 ms/b)
<dg|gg>:            6 b            0 skpd (  0.0%)    0.003 s ( 0.431 ms/b)
<ff|ff>:           21 b            0 skpd (  0.0%)    0.001 s ( 0.053 ms/b)
<ff|fg>:           18 b            0 skpd (  0.0%)    0.002 s ( 0.113 ms/b)
<ff|gg>:            6 b            0 skpd (  0.0%)    0.003 s ( 0.507 ms/b)
<fg|fg>:            6 b            0 skpd (  0.0%)    0.001 s ( 0.247 ms/b)
<fg|gg>:            3 b            0 skpd (  0.0%)    0.002 s ( 0.695 ms/b)
<gg|gg>:            1 b            0 skpd (  0.0%)    0.001 s ( 1.268 ms/b)
Recanonicalizing the internal orbitals
Recanonicalizing the virtual orbitals
Time needed for Fock operator              ...            0.259 sec
Reference energy                           ...  -1118.159394946
Warning: for UHF the TrafoType has to be JK
Warning: for UHF the K(C)-option cannot be MO but must be AOX

-------------------------------
PARTIAL EXCHANGE TRANSFORMATION
-------------------------------

Transformation type                        ... two-operators
Generation of integrals (i,mue|j,nue)      ... ON
Generation of integrals (mue,kappa|nue,tau)... ON
Generation of integrals (i,mue|a,nue)      ... ON
Dimension of the basis                     ...   95
Number of internal alpha-MOs               ...   12 (   6-  17)
Number of internal beta-MOs                ...    8 (   6-  13)
Number of external alpha-MOs               ...   77 (  18-  94)
Number of external beta-MOs                ...   81 (  14-  94)
Pair cutoff                                ... 0.000e+00 Eh
Number of AO pairs in the trafo            ... 4560
Total Number of distinct AO pairs          ... 4560
Memory devoted for trafo                   ... 2500.0 MB 
Max. Number of MO pairs treated together   ... 36308      
Number Format for Storage                  ... Double (8 Byte)
Integral package used                      ... LIBINT

Starting integral evaluation:
    ... done with AO integral generation
Closing buffer AOK[aa] ( 0.00 GB; CompressionRatio= 0.99)
Closing buffer AOK[bb] ( 0.00 GB; CompressionRatio= 0.98)
Closing buffer AOK[ab] ( 0.00 GB; CompressionRatio= 0.98)
Closing buffer AOK[ba] ( 0.00 GB; CompressionRatio= 0.98)
Collecting buffer AOK 
Closing buffer IAAO1[aa] ( 0.00 GB; CompressionRatio= 1.00)
Closing buffer IAAO1[bb] ( 0.00 GB; CompressionRatio= 1.00)
Closing buffer IAAO1[ab] ( 0.00 GB; CompressionRatio= 1.00)
Closing buffer IAAO1[ba] ( 0.00 GB; CompressionRatio= 1.00)
Closing buffer IAAO2[aa] ( 0.00 GB; CompressionRatio= 1.00)
Closing buffer IAAO2[bb] ( 0.00 GB; CompressionRatio= 1.00)
Closing buffer IAAO2[ab] ( 0.00 GB; CompressionRatio= 1.00)
Closing buffer IAAO2[ba] ( 0.00 GB; CompressionRatio= 1.00)
Collecting buffer IAAO 
Closing buffer PRQS    ( 0.00 GB; CompressionRatio= 1.00)
Collecting buffer PRQS 
Number of alpha/alpha MO pairs in trafo    ...   78
Number of beta /beta  MO pairs in trafo    ...   36
Number of alpha/ beta MO pairs in trafo    ...   96
------------------------
SORTING OF (i,mue|j,nue)
------------------------

SORTING OF ALPHA/ALPHA PAIRS
IBATCH = 1 of  1
Closing buffer KAO[aa] ( 0.00 GB; CompressionRatio= 1.00)
Collecting buffer KAO 
SORTING OF BETA /BETA  PAIRS
IBATCH = 1 of  1
Closing buffer KAO[bb] ( 0.00 GB; CompressionRatio= 1.00)
Collecting buffer KAO 
SORTING OF ALPHA/BETA  PAIRS
IBATCH = 1 of  1
Closing buffer KAO[ab] ( 0.00 GB; CompressionRatio= 0.999833822633)
Collecting buffer KAO[ab] 
------------------------
SORTING OF (i,mue|a,nue)
------------------------

Number of alpha/alpha (i,a) pairs in trafo  ...  924
Number of beta /beta  (i,a) pairs in trafo  ...  648
Number of alpha/ beta (i,a) pairs in trafo  ...  972
Number of beta /alpha (i,a) pairs in trafo  ...  616
Setting up the alpha/alpha list             ... done
Setting up the beta /beta  list             ... done
Setting up the alpha/beta  list             ... done
Setting up the beta /alpha list             ... done
    ... Now sorting (i,mue|a,nue)integrals
    ... Integrals (i,b|a,c) will be made on the fly
SORTING OF ALPHA/ALPHA PAIRS
IBATCH = 1 of  1
Closing buffer IPAQ[aa]  0.00 GB; CompressionRatio= 1.00)
SORTING OF BETA /BETA  PAIRS
IBATCH = 1 of  1
Closing buffer IPAQ[bb]( 0.00 GB; CompressionRatio= 1.00)
SORTING OF ALPHA/BETA  PAIRS (NMatSort_ab=41)
IBATCH = 1 of  1
Closing buffer IPAQ[ab]( 0.00 GB; CompressionRatio= 1.00)
SORTING OF BETA/ALPHA  PAIRS
IBATCH = 1 of  1
Closing buffer IPAQ[ba]( 0.00 GB; CompressionRatio= 1.00)
N(AO-Batches) Done                         ...      4959 
N(AO-Batches) Skipped                      ...         0 
N(IJ)-pairs Skipped                        ...         0 
TOTAL TIME for half transformation         ...     1.143 sec
AO-integral generation                     ...     0.022 sec
Half transformation                        ...     0.005 sec
K-integral sorting                         ...     0.665 sec
<ss|**>: 
------------------------------
PARTIAL COULOMB TRANSFORMATION
------------------------------

Transformation type                        ... two-operators
Dimension of the basis                     ...   95
Number of internal alpha-MOs               ...   12 (6-17)
Number of internal beta-MOs                ...    8 (6-13)
Pair cutoff                                ... 0.000e+00 Eh
Number of AO pairs included in the trafo   ... 4560
Total Number of distinct AO pairs          ... 4560
Memory devoted for trafo                   ... 2500.0 MB 
Max. Number of MO pairs treated together   ... 71859      
Max. Number of MOs treated per batch       ...  756      
Number Format for Storage                  ... Double (8 Byte)
AO-integral source                         ... DIRECT
Integral package used                      ... LIBINT

Starting integral evaluation:
       27153 b        0 skpd     0.006 s (  0.000 ms/b)
<sp|**>: <sd|**>:        37497 b        0 skpd     0.017 s (  0.000 ms/b)
<sf|**>:        28446 b        0 skpd     0.018 s (  0.001 ms/b)
       14223 b        0 skpd     0.011 s (  0.001 ms/b)
<sg|**>:         4741 b        0 skpd     0.018 s (  0.004 ms/b)
<pp|**>:        15516 b        0 skpd     0.025 s (  0.002 ms/b)
<pd|**>:        20688 b        0 skpd     0.036 s (  0.002 ms/b)
<pf|**>:        10344 b        0 skpd     0.015 s (  0.001 ms/b)
<pg|**>:         3448 b        0 skpd     0.027 s (  0.008 ms/b)
<dd|**>:         9051 b        0 skpd     0.040 s (  0.004 ms/b)
<df|**>:         7758 b        0 skpd     0.022 s (  0.003 ms/b)
<dg|**>:         2586 b        0 skpd     0.035 s (  0.013 ms/b)
<ff|**>:         2586 b        0 skpd     0.015 s (  0.006 ms/b)
<fg|**>:         1293 b        0 skpd     0.022 s (  0.017 ms/b)
<gg|**>:          431 b        0 skpd     0.032 s (  0.075 ms/b)
Closing buffer AOJ[aa] ( 0.00 GB; CompressionRatio= 0.98)
Closing buffer AOJ[bb] ( 0.00 GB; CompressionRatio= 0.00)
Collecting buffer AOJ 
    ... done with AO integral generation
Number of Alpha-MO pairs included          ...   78
Number of Beta-MO pairs included           ...   36
    ... Now sorting integrals
SORTING ALPHA/ALPHA PAIRS
IBATCH = 1 of  1
Closing buffer JAO[aa] ( 0.00 GB; CompressionRatio= 1.00)
SORTING BETA/BETA PAIRS
IBATCH = 1 of  1
Closing buffer JAO[bb] ( 0.00 GB; CompressionRatio= 1.00)
Collecting buffer JAO 
TOTAL TIME for half transformation         ...     0.381 sec
AO-integral generation                     ...     0.338 sec
Half transformation                        ...     0.009 sec
J-integral sorting                         ...     0.029 sec

-------------------------- SECOND HALF TRANSFORMATION -------------------------
Formation of (ij|kl),(ij|ka), (ij|ab)      ... ok (     0.043 sec)
Formation of (ik|jl),(ik|ja), (ia|jb)      ... ok (     0.069 sec)


-----------------------
SPIN UNRESTRICTED GUESS
-----------------------

Entering MDCI_UHF_Guess, Tailored=0
Spin-components of the MP2 energy:
EMP2(aa)=     -0.141623923
EMP2(bb)=     -0.067990909
EMP2(ab)=     -0.417120375

Initial guess performed in     0.029 sec
E(0)                                       ...  -1118.159394946
E(MP2)                                     ...     -0.626735207
Initial E(tot)                             ...  -1118.786130153
<T|T>                                      ...      0.135843670
Number of pairs included                   ... 190

------------------------------------------------
                  UHF COUPLED CLUSTER ITERATIONS
------------------------------------------------

Number of amplitudes to be optimized       ...       887002

Iter       E(tot)           E(Corr)          Delta-E          Residual     Time      <S|S>**1/2
  0  -1118.786130153     -0.626735207      0.000000000      0.038411155    0.84      0.000000028
                           *** Turning on DIIS ***
  1  -1118.777680425     -0.618285479      0.008449728      0.016295191    0.89      0.092502552
  2  -1118.796300231     -0.636905285     -0.018619806      0.016296031    0.90      0.118036217
  3  -1118.806921905     -0.647526959     -0.010621674      0.013416977    0.89      0.180323321
  4  -1118.820709611     -0.661314665     -0.013787706      0.009894653    0.91      0.265178209
  5  -1118.837459963     -0.678065017     -0.016750352      0.004419084    0.91      0.377435543
  6  -1118.839263053     -0.679868107     -0.001803090      0.002261724    0.93      0.403884724
  7  -1118.842223012     -0.682828066     -0.002959958      0.001637148    0.95      0.421634822
  8  -1118.842706668     -0.683311722     -0.000483656      0.000989869    0.90      0.426514286
  9  -1118.842918762     -0.683523816     -0.000212094      0.000678924    0.89      0.428032002
 10  -1118.843230032     -0.683835086     -0.000311270      0.000307303    0.91      0.430206414
 11  -1118.843063931     -0.683668985      0.000166101      0.000182134    0.93      0.429422835
 12  -1118.843145279     -0.683750333     -0.000081348      0.000087526    0.91      0.429806991
 13  -1118.843133354     -0.683738408      0.000011925      0.000059498    0.89      0.429765638
 14  -1118.843143210     -0.683748264     -0.000009856      0.000029472    0.89      0.429837093
 15  -1118.843151660     -0.683756714     -0.000008450      0.000014119    0.92      0.429910149
 16  -1118.843147206     -0.683752261      0.000004454      0.000006840    0.94      0.429889773
 17  -1118.843146821     -0.683751876      0.000000385      0.000003354    0.92      0.429884255
 18  -1118.843145895     -0.683750949      0.000000927      0.000002185    0.89      0.429879850
 19  -1118.843146440     -0.683751495     -0.000000546      0.000000923    0.88      0.429884627
               --- The Coupled-Cluster iterations have converged ---

----------------------
COUPLED CLUSTER ENERGY
----------------------

E(0)                                       ...  -1118.159394946
E(CORR)                                    ...     -0.683751495
E(TOT)                                     ...  -1118.843146440
Singles norm <S|S>**1/2                    ...      0.429884627 ( 0.333062220, 0.096822408)  
T1 diagnostic                              ...      0.096125125                              

------------------
LARGEST AMPLITUDES
------------------
  17a-> 19a  -1a-> -1a       0.288246
  15a-> 24a  -1a-> -1a       0.212913
  14a-> 19a  -1a-> -1a       0.207745
  14a-> 28a  -1a-> -1a       0.163671
  17a-> 28a  -1a-> -1a       0.136522
  12b-> 24b  -1b-> -1b       0.134416
  15a-> 18a  -1a-> -1a       0.127532
  12a-> 19a  -1a-> -1a       0.121413
  13b-> 27b  -1b-> -1b       0.113042
  15a-> 26a  -1a-> -1a       0.109039
  11b-> 28b  -1b-> -1b       0.106911
  12a-> 28a  -1a-> -1a       0.104105
  16a-> 20a  -1a-> -1a       0.091410
  11b-> 17b  -1b-> -1b       0.063064
  15a-> 24a  14a-> 19a       0.061926
  15a-> 19a  14a-> 24a       0.061926

----------------------
UHF TRIPLES CORRECTION (Algorithm 1)
----------------------

Multiplier for the singles contribution    ...      1.000000000

SPIN-CASE Alpha-Alpha-Alpha:
10% done
20% done
30% done
40% done
50% done
60% done
70% done
80% done
90% done


SPIN-CASE Beta-Beta-Beta:
10% done
20% done
30% done
40% done
50% done
60% done
70% done
80% done
90% done


SPIN-CASE Alpha-Alpha-Beta:
10% done
20% done
30% done
40% done
50% done
60% done
70% done
80% done
90% done


SPIN-CASE Beta-Beta-Alpha:
10% done
20% done
30% done
40% done
50% done
60% done
70% done
80% done
90% done


Triples Correction (T)                     ...     -0.037357433
    alpha-alpha-alpha ... -0.004053481 ( 10.9%)
    alpha-alpha-beta  ... -0.021759321 ( 58.2%)
    alpha-beta -beta  ... -0.011201364 ( 30.0%)
    beta -beta -beta  ... -0.000343267 (  0.9%)
Scaling of triples based on CCSD energies (Peterson et al. Molecular Physics 113, 1551 (2015))
E(T*) = f*E(T) where f = E(F12-CCSD)/E(CCSD) 
f = CCSD (with F12)/ CCSD (without F12)    ...      1.000000000
Scaled triples correction (T)              ...     -0.037357433

Final correlation energy                   ...     -0.721108927
E(CCSD)                                    ...  -1118.843146440
E(CCSD(T))                                 ...  -1118.880503873



        !!!!!!!!!!!!!!!!!!!!!!!!!!!!!!!!!!!!!!!!!!!!!!!!!!!!!!!!!!!!!!!!!!!!!!!!!! 
        !  Warning: Densities are linearized densities                           !
        !!!!!!!!!!!!!!!!!!!!!!!!!!!!!!!!!!!!!!!!!!!!!!!!!!!!!!!!!!!!!!!!!!!!!!!!!! 

NORM  =      1.591118618 sqrt=     1.261395504
W(HF) =      0.628488655
------------------------------------------------------------------------------
                           ORCA POPULATION ANALYSIS
------------------------------------------------------------------------------
Input electron density              ... 23_CrO.mdcip
Input spin density                  ... 23_CrO.mdcir
BaseName (.gbw .S,...)              ... 23_CrO

                    ********************************
                    * MULLIKEN POPULATION ANALYSIS *
                    ********************************

------------------------------------------
MULLIKEN ATOMIC CHARGES AND SPIN DENSITIES
------------------------------------------
   0 Cr:    0.508239    4.283304
   1 O :   -0.508239   -0.283304
Sum of atomic charges       :   -0.0000000
Sum of atomic spin densities:    4.0000000

---------------------------------------------------
MULLIKEN REDUCED ORBITAL CHARGES AND SPIN DENSITIES
---------------------------------------------------
CHARGE
  0 Crs       :     6.697924  s :     6.697924
      pz      :     4.057788  p :    12.245109
      px      :     4.033478
      py      :     4.153843
      dz2     :     0.749616  d :     4.497824
      dxz     :     0.632666
      dyz     :     1.118172
      dx2y2   :     0.996706
      dxy     :     1.000665
      f0      :     0.008986  f :     0.047077
      f+1     :     0.009094
      f-1     :     0.012118
      f+2     :     0.004192
      f-2     :     0.004210
      f+3     :     0.004239
      f-3     :     0.004239
      g0      :     0.000725  g :     0.003826
      g+1     :     0.000528
      g-1     :     0.000591
      g+2     :     0.000335
      g-2     :     0.000335
      g+3     :     0.000320
      g-3     :     0.000320
      g+4     :     0.000336
      g-4     :     0.000336
  1 O s       :     3.956057  s :     3.956057
      pz      :     1.492798  p :     4.495120
      px      :     1.311887
      py      :     1.690435
      dz2     :     0.012585  d :     0.052601
      dxz     :     0.014302
      dyz     :     0.012869
      dx2y2   :     0.006426
      dxy     :     0.006419
      f0      :     0.001114  f :     0.004461
      f+1     :     0.000784
      f-1     :     0.000804
      f+2     :     0.000480
      f-2     :     0.000481
      f+3     :     0.000398
      f-3     :     0.000398

SPIN
  0 Crs       :     0.663010  s :     0.663010
      pz      :     0.056345  p :     0.190804
      px      :     0.009545
      py      :     0.124915
      dz2     :     0.351594  d :     3.411226
      dxz     :     0.277080
      dyz     :     0.816769
      dx2y2   :     0.980809
      dxy     :     0.984975
      f0      :     0.001971  f :     0.016925
      f+1     :     0.000337
      f-1     :     0.003202
      f+2     :     0.002438
      f-2     :     0.002445
      f+3     :     0.003266
      f-3     :     0.003266
      g0      :     0.000064  g :     0.001338
      g+1     :     0.000041
      g-1     :     0.000125
      g+2     :     0.000147
      g-2     :     0.000147
      g+3     :     0.000177
      g-3     :     0.000177
      g+4     :     0.000230
      g-4     :     0.000230
  1 O s       :     0.006832  s :     0.006832
      pz      :    -0.073453  p :    -0.290128
      px      :    -0.273847
      py      :     0.057172
      dz2     :    -0.000450  d :     0.000071
      dxz     :     0.000497
      dyz     :    -0.000113
      dx2y2   :     0.000070
      dxy     :     0.000068
      f0      :     0.000010  f :    -0.000079
      f+1     :     0.000002
      f-1     :    -0.000014
      f+2     :    -0.000013
      f-2     :    -0.000013
      f+3     :    -0.000026
      f-3     :    -0.000026


                     *******************************
                     * LOEWDIN POPULATION ANALYSIS *
                     *******************************

-----------------------------------------
LOEWDIN ATOMIC CHARGES AND SPIN DENSITIES
-----------------------------------------
   0 Cr:    0.149832    4.211684
   1 O :   -0.149832   -0.211684

--------------------------------------------------
LOEWDIN REDUCED ORBITAL CHARGES AND SPIN DENSITIES
--------------------------------------------------
CHARGE
  0 Crs       :     6.662570  s :     6.662570
      pz      :     4.172372  p :    12.388668
      px      :     4.040291
      py      :     4.176005
      dz2     :     0.887077  d :     4.699803
      dxz     :     0.662271
      dyz     :     1.154117
      dx2y2   :     0.996190
      dxy     :     1.000147
      f0      :     0.035877  f :     0.093627
      f+1     :     0.016601
      f-1     :     0.024227
      f+2     :     0.004213
      f-2     :     0.004231
      f+3     :     0.004239
      f-3     :     0.004239
      g0      :     0.001801  g :     0.005501
      g+1     :     0.000759
      g-1     :     0.000956
      g+2     :     0.000336
      g-2     :     0.000337
      g+3     :     0.000320
      g-3     :     0.000320
      g+4     :     0.000336
      g-4     :     0.000336
  1 O s       :     3.634936  s :     3.634936
      pz      :     1.542512  p :     4.422400
      px      :     1.266055
      py      :     1.613833
      dz2     :     0.037208  d :     0.084755
      dxz     :     0.015694
      dyz     :     0.018165
      dx2y2   :     0.006847
      dxy     :     0.006843
      f0      :     0.003242  f :     0.007742
      f+1     :     0.001068
      f-1     :     0.001530
      f+2     :     0.000552
      f-2     :     0.000553
      f+3     :     0.000398
      f-3     :     0.000398

SPIN
  0 Crs       :     0.627654  s :     0.627654
      pz      :     0.058854  p :     0.193987
      px      :     0.003196
      py      :     0.131937
      dz2     :     0.348405  d :     3.376915
      dxz     :     0.260873
      dyz     :     0.802934
      dx2y2   :     0.980270
      dxy     :     0.984433
      f0      :    -0.001214  f :     0.012026
      f+1     :    -0.002557
      f-1     :     0.004377
      f+2     :     0.002440
      f-2     :     0.002447
      f+3     :     0.003266
      f-3     :     0.003266
      g0      :    -0.000110  g :     0.001103
      g+1     :    -0.000048
      g-1     :     0.000153
      g+2     :     0.000147
      g-2     :     0.000147
      g+3     :     0.000177
      g-3     :     0.000177
      g+4     :     0.000230
      g-4     :     0.000230
  1 O s       :     0.007845  s :     0.007845
      pz      :    -0.036223  p :    -0.230666
      px      :    -0.250423
      py      :     0.055979
      dz2     :     0.000418  d :     0.009943
      dxz     :     0.002438
      dyz     :     0.006015
      dx2y2   :     0.000535
      dxy     :     0.000536
      f0      :     0.000293  f :     0.001194
      f+1     :     0.000174
      f-1     :     0.000660
      f+2     :     0.000059
      f-2     :     0.000059
      f+3     :    -0.000025
      f-3     :    -0.000025


                      *****************************
                      * MAYER POPULATION ANALYSIS *
                      *****************************

  NA   - Mulliken gross atomic population
  ZA   - Total nuclear charge
  QA   - Mulliken gross atomic charge
  VA   - Mayer's total valence
  BVA  - Mayer's bonded valence
  FA   - Mayer's free valence

  ATOM       NA         ZA         QA         VA         BVA        FA
  0 Cr    23.4918    24.0000     0.5082     6.3698     2.2144     4.1555
  1 O      8.5082     8.0000    -0.5082     2.5915     2.2144     0.3772

  Mayer bond orders larger than 0.100000
B(  0-Cr,  1-O ) :   2.2144 



------------------------------------------------------------------------------- 
                                     TIMINGS                                   
------------------------------------------------------------------------------- 


Total execution time                   ...       22.388 sec

Fock Matrix Formation                  ...        0.259 sec (  1.2%)
Initial Guess                          ...        0.029 sec (  0.1%)
DIIS Solver                            ...        1.586 sec (  7.1%)
State Vector Update                    ...        0.074 sec (  0.3%)
Sigma-vector construction              ...       16.400 sec ( 73.3%)
  <0|H|D>                              ...        0.004 sec (  0.0% of sigma)
  <D|H|D>(0-ext Fock)                  ...        0.029 sec (  0.2% of sigma)
  <D|H|D>(0-ext)                       ...        0.135 sec (  0.8% of sigma)
  <D|H|D>(2-ext Fock)                  ...        0.008 sec (  0.0% of sigma)
  <D|H|D>(2-ext)                       ...        0.382 sec (  2.3% of sigma)
  <D|H|D>(4-ext)                       ...        7.158 sec ( 43.6% of sigma)
  <S|H|0>                              ...        0.752 sec (  4.6% of sigma)
  <S|H|S>                              ...        0.003 sec (  0.0% of sigma)
  <S|H|D>(1-ext)                       ...        0.008 sec (  0.0% of sigma)
  <D|H|S>(1-ext)                       ...        0.122 sec (  0.7% of sigma)
  Fock-dressing                        ...        3.426 sec ( 20.9% of sigma)
  (ik|jl)-dressing                     ...        0.181 sec (  1.1% of sigma)
  (ij|ab),(ia|jb)-dressing             ...        3.279 sec ( 20.0% of sigma)
  Pair energies                        ...        0.006 sec (  0.0% of sigma)
Total Time for computing (T)           ...        1.941 sec (  8.7% of ALL)
  I/O of integral and amplitudes       ...        0.467 sec ( 24.1% of (T))
  External N**7 contributions          ...        0.533 sec ( 27.5% of (T))
  Internal N**7 contributions          ...        0.267 sec ( 13.8% of (T))
  N**6 triples energy contributions    ...        0.642 sec ( 33.1% of (T))

----- Orbital basis set information -----
Your calculation utilizes the basis: def2-QZVPP
   F. Weigend and R. Ahlrichs, Phys. Chem. Chem. Phys. 7, 3297 (2005).

----- AuxJ basis set information -----
Your calculation utilizes the auxiliary basis: def2/J
   F. Weigend, Phys. Chem. Chem. Phys. 8, 1057 (2006).

----- AuxC basis set information -----
Your calculation utilizes the auxiliary basis: def2-QZVPP/C
  H-La, Hf-Rn : A. Hellweg, C. Hattig, S. Hofener and W. Klopper, Theor. Chem. Acc. 117, 587 (2007).
        Ce-Lu : J. Chmela and M. E. Harding, Mol. Phys. (2018).

----- AuxJK basis set information -----
Your calculation utilizes the auxiliary basis: def2/JK
   H-Ba, Hf-Rn: F. Weigend, J. Comput. Chem. 29, 167 (2008).

All done

                     -----------------------------------------
                     Extrapolated Energy 2 Basis=  def2-QZVPP
                     -----------------------------------------

---------------------------------
CARTESIAN COORDINATES (ANGSTROEM)
---------------------------------
  Cr     0.000000    0.000000    0.192649
  O      0.000000    0.000000    1.807351

----------------------------
CARTESIAN COORDINATES (A.U.)
----------------------------
  NO LB      ZA    FRAG     MASS         X           Y           Z
   0 Cr   24.0000    0    52.000    0.000000    0.000000    0.364054
   1 O     8.0000    0    15.999    0.000000    0.000000    3.415398

--------------------------------
INTERNAL COORDINATES (ANGSTROEM)
--------------------------------
 Cr     0   0   0     0.000000000000     0.00000000     0.00000000
 O      1   0   0     1.614701494382     0.00000000     0.00000000

---------------------------
INTERNAL COORDINATES (A.U.)
---------------------------
 Cr     0   0   0     0.000000000000     0.00000000     0.00000000
 O      1   0   0     3.051343612416     0.00000000     0.00000000

---------------------
BASIS SET INFORMATION
---------------------
There are 2 groups of distinct atoms

 Group   1 Type Cr  : 24s18p9d3f2g contracted to 11s6p5d3f2g pattern {114111111111/951111/51111/111/11}
 Group   2 Type O   : 15s8p3d2f1g contracted to 7s4p3d2f1g pattern {8211111/5111/111/11/1}

Atom   0Cr   basis set group =>   1
Atom   1O    basis set group =>   2
---------------------------------
AUXILIARY/J BASIS SET INFORMATION
---------------------------------
There are 2 groups of distinct atoms

 Group   1 Type Cr  : 19s5p5d3f3g contracted to 8s5p5d2f3g pattern {121111111/11111/11111/21/111}
 Group   2 Type O   : 12s5p4d2f1g contracted to 6s4p3d1f1g pattern {711111/2111/211/2/1}

Atom   0Cr   basis set group =>   1
Atom   1O    basis set group =>   2
---------------------------------
AUXILIARY/C BASIS SET INFORMATION
---------------------------------
There are 2 groups of distinct atoms

 Group   1 Type Cr  : 15s13p11d8f7g5h2i contracted to 15s13p11d8f7g5h2i pattern {111111111111111/1111111111111/11111111111/11111111/1111111/11111/11}
 Group   2 Type O   : 9s8p7d5f3g1h contracted to 9s8p7d5f3g1h pattern {111111111/11111111/1111111/11111/111/1}

Atom   0Cr   basis set group =>   1
Atom   1O    basis set group =>   2
----------------------------------
AUXILIARY/JK BASIS SET INFORMATION
----------------------------------
There are 2 groups of distinct atoms

 Group   1 Type Cr  : 19s14p12d10f7g3h1i contracted to 16s13p11d9f5g3h1i pattern {4111111111111111/2111111111111/21111111111/211111111/31111/111/1}
 Group   2 Type O   : 14s10p6d2f1g contracted to 10s8p4d2f1g pattern {5111111111/31111111/3111/11/1}

Atom   0Cr   basis set group =>   1
Atom   1O    basis set group =>   2

Checking for AutoStart:
The File: 23_CrO.gbw exists
Trying to determine its content:
     ... Fine, the file contains calculation information
     ... Fine, the calculation information was read
     ... Fine, the file contains a basis set
     ... Fine, the basis set was read
     ... Fine, the file contains a geometry
     ... Fine, the geometry was read
     ... Fine, the file contains a set of orbitals
     ... Fine, the orbitals can be read
[...]
 12  -1118.914268350     -0.729548810     -0.000091393      0.000085795    3.57      0.429846734
 13  -1118.914258572     -0.729539033      0.000009778      0.000055873    3.46      0.429835588
 14  -1118.914271265     -0.729551726     -0.000012693      0.000025148    3.46      0.429938521
 15  -1118.914282418     -0.729562878     -0.000011152      0.000012248    3.45      0.430041070
 16  -1118.914277021     -0.729557481      0.000005397      0.000006942    3.45      0.430018743
 17  -1118.914276241     -0.729556702      0.000000780      0.000003744    3.43      0.430012979
 18  -1118.914275572     -0.729556033      0.000000669      0.000002002    3.44      0.430012149
 19  -1118.914276512     -0.729556972     -0.000000940      0.000001012    3.44      0.430021022
 20  -1118.914276910     -0.729557370     -0.000000398      0.000000771    3.44      0.430024832
               --- The Coupled-Cluster iterations have converged ---

----------------------
COUPLED CLUSTER ENERGY
----------------------

E(0)                                       ...  -1118.184719540
E(CORR)                                    ...     -0.729557370
E(TOT)                                     ...  -1118.914276910
Singles norm <S|S>**1/2                    ...      0.430024832 ( 0.333638188, 0.096386643)  
T1 diagnostic                              ...      0.096156476                              

------------------
LARGEST AMPLITUDES
------------------
  17a-> 20a  -1a-> -1a       0.234782
  15a-> 27a  -1a-> -1a       0.197137
  17a-> 22a  -1a-> -1a       0.179844
  14a-> 20a  -1a-> -1a       0.143154
  14a-> 22a  -1a-> -1a       0.140441
  14a-> 30a  -1a-> -1a       0.136682
  15a-> 23a  -1a-> -1a       0.131537
  12b-> 27b  -1b-> -1b       0.129031
  17a-> 30a  -1a-> -1a       0.127262
  13b-> 30b  -1b-> -1b       0.109680
  15a-> 18a  -1a-> -1a       0.092686
  11b-> 31b  -1b-> -1b       0.091647
  12a-> 30a  -1a-> -1a       0.087307
  17a-> 21a  -1a-> -1a       0.084934
  12a-> 22a  -1a-> -1a       0.083300
  12a-> 20a  -1a-> -1a       0.082750

----------------------
UHF TRIPLES CORRECTION (Algorithm 1)
----------------------

Multiplier for the singles contribution    ...      1.000000000

SPIN-CASE Alpha-Alpha-Alpha:
10% done
20% done
30% done
40% done
50% done
60% done
70% done
80% done
90% done


SPIN-CASE Beta-Beta-Beta:
10% done
20% done
30% done
40% done
50% done
60% done
70% done
80% done
90% done


SPIN-CASE Alpha-Alpha-Beta:
10% done
20% done
30% done
40% done
50% done
60% done
70% done
80% done
90% done


SPIN-CASE Beta-Beta-Alpha:
10% done
20% done
30% done
40% done
50% done
60% done
70% done
80% done
90% done


Triples Correction (T)                     ...     -0.041668594
    alpha-alpha-alpha ... -0.004631546 ( 11.1%)
    alpha-alpha-beta  ... -0.024023334 ( 57.7%)
    alpha-beta -beta  ... -0.012591700 ( 30.2%)
    beta -beta -beta  ... -0.000422014 (  1.0%)
Scaling of triples based on CCSD energies (Peterson et al. Molecular Physics 113, 1551 (2015))
E(T*) = f*E(T) where f = E(F12-CCSD)/E(CCSD) 
f = CCSD (with F12)/ CCSD (without F12)    ...      1.000000000
Scaled triples correction (T)              ...     -0.041668594

Final correlation energy                   ...     -0.771225965
E(CCSD)                                    ...  -1118.914276910
E(CCSD(T))                                 ...  -1118.955945504



        !!!!!!!!!!!!!!!!!!!!!!!!!!!!!!!!!!!!!!!!!!!!!!!!!!!!!!!!!!!!!!!!!!!!!!!!!! 
        !  Warning: Densities are linearized densities                           !
        !!!!!!!!!!!!!!!!!!!!!!!!!!!!!!!!!!!!!!!!!!!!!!!!!!!!!!!!!!!!!!!!!!!!!!!!!! 

NORM  =      1.592102999 sqrt=     1.261785639
W(HF) =      0.628100067
------------------------------------------------------------------------------
                           ORCA POPULATION ANALYSIS
------------------------------------------------------------------------------
Input electron density              ... 23_CrO.mdcip
Input spin density                  ... 23_CrO.mdcir
BaseName (.gbw .S,...)              ... 23_CrO

                    ********************************
                    * MULLIKEN POPULATION ANALYSIS *
                    ********************************

------------------------------------------
MULLIKEN ATOMIC CHARGES AND SPIN DENSITIES
------------------------------------------
   0 Cr:    0.525906    4.283056
   1 O :   -0.525906   -0.283056
Sum of atomic charges       :    0.0000000
Sum of atomic spin densities:    4.0000000

---------------------------------------------------
MULLIKEN REDUCED ORBITAL CHARGES AND SPIN DENSITIES
---------------------------------------------------
CHARGE
  0 Crs       :     6.713068  s :     6.713068
      pz      :     4.055373  p :    12.219336
      px      :     4.027841
      py      :     4.136121
      dz2     :     0.759651  d :     4.478329
      dxz     :     0.612722
      dyz     :     1.109958
      dx2y2   :     0.996048
      dxy     :     0.999951
      f0      :     0.010997  f :     0.055515
      f+1     :     0.010764
      f-1     :     0.015269
      f+2     :     0.004625
      f-2     :     0.004640
      f+3     :     0.004610
      f-3     :     0.004610
      g0      :     0.001810  g :     0.007845
      g+1     :     0.001494
      g-1     :     0.001686
      g+2     :     0.000518
      g-2     :     0.000519
      g+3     :     0.000453
      g-3     :     0.000453
      g+4     :     0.000456
      g-4     :     0.000456
  1 O s       :     3.937345  s :     3.937345
      pz      :     1.480657  p :     4.518147
      px      :     1.329899
      py      :     1.707591
      dz2     :     0.014392  d :     0.061221
      dxz     :     0.017169
      dyz     :     0.015070
      dx2y2   :     0.007299
      dxy     :     0.007290
      f0      :     0.002117  f :     0.008489
      f+1     :     0.001810
      f-1     :     0.001771
      f+2     :     0.000814
      f-2     :     0.000814
      f+3     :     0.000582
      f-3     :     0.000582
      g0      :     0.000134  g :     0.000705
      g+1     :     0.000108
      g-1     :     0.000111
      g+2     :     0.000067
      g-2     :     0.000067
      g+3     :     0.000056
      g-3     :     0.000056
      g+4     :     0.000053
      g-4     :     0.000053

SPIN
  0 Crs       :     0.681348  s :     0.681348
      pz      :     0.046846  p :     0.173118
      px      :     0.010902
      py      :     0.115370
      dz2     :     0.360194  d :     3.408867
      dxz     :     0.266326
      dyz     :     0.817881
      dx2y2   :     0.980177
      dxy     :     0.984290
      f0      :     0.002234  f :     0.018408
      f+1     :    -0.000174
      f-1     :     0.004016
      f+2     :     0.002640
      f-2     :     0.002644
      f+3     :     0.003524
      f-3     :     0.003524
      g0      :     0.000002  g :     0.001315
      g+1     :    -0.000179
      g-1     :     0.000034
      g+2     :     0.000193
      g-2     :     0.000193
      g+3     :     0.000236
      g-3     :     0.000236
      g+4     :     0.000300
      g-4     :     0.000300
  1 O s       :    -0.004536  s :    -0.004536
      pz      :    -0.081350  p :    -0.280807
      px      :    -0.264286
      py      :     0.064829
      dz2     :     0.000265  d :     0.001785
      dxz     :     0.001052
      dyz     :    -0.000125
      dx2y2   :     0.000298
      dxy     :     0.000295
      f0      :     0.000135  f :     0.000449
      f+1     :     0.000156
      f-1     :     0.000081
      f+2     :     0.000069
      f-2     :     0.000069
      f+3     :    -0.000031
      f-3     :    -0.000031
      g0      :     0.000016  g :     0.000054
      g+1     :     0.000012
      g-1     :     0.000015
      g+2     :     0.000005
      g-2     :     0.000006
      g+3     :     0.000000
      g-3     :     0.000000
      g+4     :    -0.000000
      g-4     :    -0.000000


                     *******************************
                     * LOEWDIN POPULATION ANALYSIS *
                     *******************************

-----------------------------------------
LOEWDIN ATOMIC CHARGES AND SPIN DENSITIES
-----------------------------------------
   0 Cr:    0.089689    4.175489
   1 O :   -0.089689   -0.175489

--------------------------------------------------
LOEWDIN REDUCED ORBITAL CHARGES AND SPIN DENSITIES
--------------------------------------------------
CHARGE
  0 Crs       :     6.663970  s :     6.663970
      pz      :     4.155091  p :    12.352072
      px      :     4.033072
      py      :     4.163908
      dz2     :     0.921495  d :     4.710000
      dxz     :     0.650004
      dyz     :     1.145835
      dx2y2   :     0.994385
      dxy     :     0.998281
      f0      :     0.060929  f :     0.155651
      f+1     :     0.029859
      f-1     :     0.046185
      f+2     :     0.004722
      f-2     :     0.004737
      f+3     :     0.004610
      f-3     :     0.004610
      g0      :     0.011852  g :     0.028619
      g+1     :     0.005678
      g-1     :     0.008164
      g+2     :     0.000552
      g-2     :     0.000553
      g+3     :     0.000454
      g-3     :     0.000453
      g+4     :     0.000456
      g-4     :     0.000456
  1 O s       :     3.508914  s :     3.508914
      pz      :     1.555389  p :     4.403172
      px      :     1.258269
      py      :     1.589514
      dz2     :     0.074476  d :     0.138038
      dxz     :     0.020583
      dyz     :     0.026437
      dx2y2   :     0.008273
      dxy     :     0.008269
      f0      :     0.022517  f :     0.037683
      f+1     :     0.004135
      f-1     :     0.007173
      f+2     :     0.001346
      f-2     :     0.001348
      f+3     :     0.000582
      f-3     :     0.000582
      g0      :     0.000911  g :     0.001882
      g+1     :     0.000205
      g-1     :     0.000360
      g+2     :     0.000093
      g-2     :     0.000093
      g+3     :     0.000056
      g-3     :     0.000056
      g+4     :     0.000053
      g-4     :     0.000053

SPIN
  0 Crs       :     0.628557  s :     0.628557
      pz      :     0.049895  p :     0.180496
      px      :     0.003156
      py      :     0.127445
      dz2     :     0.353560  d :     3.355263
      dxz     :     0.247622
      dyz     :     0.793037
      dx2y2   :     0.978470
      dxy     :     0.982575
      f0      :    -0.001051  f :     0.011967
      f+1     :    -0.006964
      f-1     :     0.007587
      f+2     :     0.002672
      f-2     :     0.002676
      f+3     :     0.003523
      f-3     :     0.003524
      g0      :    -0.001268  g :    -0.000794
      g+1     :    -0.001618
      g-1     :     0.000631
      g+2     :     0.000195
      g-2     :     0.000195
      g+3     :     0.000236
      g-3     :     0.000236
      g+4     :     0.000300
      g-4     :     0.000300
  1 O s       :     0.002628  s :     0.002628
      pz      :    -0.028986  p :    -0.204049
      px      :    -0.233205
      py      :     0.058142
      dz2     :     0.000271  d :     0.018073
      dxz     :     0.003943
      dyz     :     0.011052
      dx2y2   :     0.001402
      dxy     :     0.001405
      f0      :     0.001456  f :     0.007470
      f+1     :     0.000837
      f-1     :     0.004012
      f+2     :     0.000612
      f-2     :     0.000614
      f+3     :    -0.000030
      f-3     :    -0.000030
      g0      :     0.000093  g :     0.000389
      g+1     :     0.000037
      g-1     :     0.000196
      g+2     :     0.000031
      g-2     :     0.000031
      g+3     :     0.000000
      g-3     :     0.000000
      g+4     :    -0.000000
      g-4     :    -0.000000


                      *****************************
                      * MAYER POPULATION ANALYSIS *
                      *****************************

  NA   - Mulliken gross atomic population
  ZA   - Total nuclear charge
  QA   - Mulliken gross atomic charge
  VA   - Mayer's total valence
  BVA  - Mayer's bonded valence
  FA   - Mayer's free valence

  ATOM       NA         ZA         QA         VA         BVA        FA
  0 Cr    23.4741    24.0000     0.5259     6.3906     2.2141     4.1765
  1 O      8.5259     8.0000    -0.5259     2.5946     2.2141     0.3805

  Mayer bond orders larger than 0.100000
B(  0-Cr,  1-O ) :   2.2141 



------------------------------------------------------------------------------- 
                                     TIMINGS                                   
------------------------------------------------------------------------------- 


Total execution time                   ...       93.390 sec

Fock Matrix Formation                  ...        0.900 sec (  1.0%)
Initial Guess                          ...        0.076 sec (  0.1%)
DIIS Solver                            ...        4.922 sec (  5.3%)
State Vector Update                    ...        0.221 sec (  0.2%)
Sigma-vector construction              ...       67.253 sec ( 72.0%)
  <0|H|D>                              ...        0.011 sec (  0.0% of sigma)
  <D|H|D>(0-ext Fock)                  ...        0.102 sec (  0.2% of sigma)
  <D|H|D>(0-ext)                       ...        0.489 sec (  0.7% of sigma)
  <D|H|D>(2-ext Fock)                  ...        0.031 sec (  0.0% of sigma)
  <D|H|D>(2-ext)                       ...        1.533 sec (  2.3% of sigma)
  <D|H|D>(4-ext)                       ...       35.946 sec ( 53.4% of sigma)
  <S|H|0>                              ...        3.442 sec (  5.1% of sigma)
  <S|H|S>                              ...        0.005 sec (  0.0% of sigma)
  <S|H|D>(1-ext)                       ...        0.022 sec (  0.0% of sigma)
  <D|H|S>(1-ext)                       ...        0.369 sec (  0.5% of sigma)
  Fock-dressing                        ...       11.419 sec ( 17.0% of sigma)
  (ik|jl)-dressing                     ...        0.562 sec (  0.8% of sigma)
  (ij|ab),(ia|jb)-dressing             ...       11.030 sec ( 16.4% of sigma)
  Pair energies                        ...        0.014 sec (  0.0% of sigma)
Total Time for computing (T)           ...       11.706 sec ( 12.5% of ALL)
  I/O of integral and amplitudes       ...        1.829 sec ( 15.6% of (T))
  External N**7 contributions          ...        4.102 sec ( 35.0% of (T))
  Internal N**7 contributions          ...        1.398 sec ( 11.9% of (T))
  N**6 triples energy contributions    ...        3.889 sec ( 33.2% of (T))


-------------------
EXTRAPOLATED ENERGY
-------------------


-----------------------------------------------------------------
                      EP1 - MDCI extrapolation:
-----------------------------------------------------------------
NOTE: We use as reference SCF energy, for the extrapolation, the one from the MDCI module and not the one 
from the SCF calculation. In case the first step is a DFT calculation these two might be different.

NOTE: For the SCF part we extrapolate based on the scheme proposed in J. Chem. Phys. 2008, 129, 184116
using the exponents from J. Chem. Theory Comput., 7, 33-43 (2011)

NOTE: For the correlation part we extrapolate based on the scheme proposed in J. Chem. Phys. 1997, 106, 9639
using the exponents from J. Chem. Theory Comput., 7, 33-43 (2011)


Alpha(3/4)     :  7.880 (SCF Extrapolation)
Beta(3/4)      :  2.970 (correlation extrapolation)

SCF energy with basis def2-TZVPP:                     -1118.159394946
SCF energy with basis def2-QZVPP:                     -1118.184719540
Extrapolated CBS SCF energy (3/4) :                   -1118.188207716 (-0.003488176) 

MDCI energy with basis def2-TZVPP:                       -0.721108927
MDCI energy with basis def2-QZVPP:                       -0.771225965
Extrapolated CBS correlation energy (3/4) :              -0.808349668 (-0.037123704)

Estimated CBS total energy (3/4) :                    -1118.996557384



-------------------------   --------------------
FINAL SINGLE POINT ENERGY     -1118.996557384235
-------------------------   --------------------


                            ***************************************
                            *     ORCA property calculations      *
                            ***************************************

                                    ---------------------
                                    Active property flags
                                    ---------------------
   (+) Dipole Moment


------------------------------------------------------------------------------
                       ORCA ELECTRIC PROPERTIES CALCULATION
------------------------------------------------------------------------------

Dipole Moment Calculation                       ... on
Quadrupole Moment Calculation                   ... off
Polarizability Calculation                      ... off
GBWName                                         ... 23_CrO.gbw
Electron density file                           ... 23_CrO.scfp
The origin for moment calculation is the CENTER OF MASS  = ( 0.000000,  0.000000  1.081983)

-------------
DIPOLE MOMENT
-------------
                                X             Y             Z
Electronic contribution:      0.00000       0.00000      -2.27944
Nuclear contribution   :      0.00000       0.00000       1.43702
                        -----------------------------------------
Total Dipole Moment    :      0.00000       0.00000      -0.84242
                        -----------------------------------------
Magnitude (a.u.)       :      0.84242
Magnitude (Debye)      :      2.14126



--------------------
Rotational spectrum 
--------------------
 
Rotational constants in cm-1:     0.000000     0.528468     0.528468 
Rotational constants in MHz :     0.000000 15843.074100 15843.074100 

 Dipole components along the rotational axes: 
x,y,z [a.u.] :    -0.842420     0.000000     0.000000 
x,y,z [Debye]:    -2.141262     0.000000     0.000000 

 

                           *** MDCI DENSITY ***

------------------------------------------------------------------------------
                       ORCA ELECTRIC PROPERTIES CALCULATION
------------------------------------------------------------------------------

Dipole Moment Calculation                       ... on
Quadrupole Moment Calculation                   ... off
Polarizability Calculation                      ... off
GBWName                                         ... 23_CrO.gbw
Electron density file                           ... 23_CrO.mdcip
The origin for moment calculation is the CENTER OF MASS  = ( 0.000000,  0.000000  1.081983)

-------------
DIPOLE MOMENT
-------------
                                X             Y             Z
Electronic contribution:      0.00000      -0.00000      -3.10441
Nuclear contribution   :      0.00000       0.00000       1.43702
                        -----------------------------------------
Total Dipole Moment    :      0.00000      -0.00000      -1.66739
                        -----------------------------------------
Magnitude (a.u.)       :      1.66739
Magnitude (Debye)      :      4.23817



--------------------
Rotational spectrum 
--------------------
 
Rotational constants in cm-1:     0.000000     0.528468     0.528468 
Rotational constants in MHz :     0.000000 15843.074100 15843.074100 

 Dipole components along the rotational axes: 
x,y,z [a.u.] :    -1.667390    -0.000000     0.000000 
x,y,z [Debye]:    -4.238168    -0.000000     0.000000 

 

Timings for individual modules:

Sum of individual times         ...      134.377 sec (=   2.240 min)
GTO integral calculation        ...        1.565 sec (=   0.026 min)   1.2 %
SCF iterations                  ...       15.334 sec (=   0.256 min)  11.4 %
MDCI module                     ...      117.478 sec (=   1.958 min)  87.4 %
                             ****ORCA TERMINATED NORMALLY****
TOTAL RUN TIME: 0 days 0 hours 2 minutes 15 seconds 303 msec
