
                                 *****************
                                 * O   R   C   A *
                                 *****************

           --- An Ab Initio, DFT and Semiempirical electronic structure package ---

                  #######################################################
                  #                        -***-                        #
                  #          Department of theory and spectroscopy      #
                  #               Directorship: Frank Neese             #
                  #        Max Planck Institute fuer Kohlenforschung    #
                  #                Kaiser Wilhelm Platz 1               #
                  #                 D-45470 Muelheim/Ruhr               #
                  #                      Germany                        #
                  #                                                     #
                  #                  All rights reserved                #
                  #                        -***-                        #
                  #######################################################


                         Program Version 4.2.0 -  RELEASE  -


 With contributions from (in alphabetic order):
   Daniel Aravena         : Magnetic Suceptibility
   Michael Atanasov       : Ab Initio Ligand Field Theory (pilot matlab implementation)
   Alexander A. Auer      : GIAO ZORA, VPT2
   Ute Becker             : Parallelization
   Giovanni Bistoni       : ED, misc. LED, open-shell LED, HFLED
   Martin Brehm           : Molecular dynamics
   Dmytro Bykov           : SCF Hessian
   Vijay G. Chilkuri      : MRCI spin determinant printing, contributions to CSF-ICE
   Dipayan Datta          : RHF DLPNO-CCSD density
   Achintya Kumar Dutta   : EOM-CC, STEOM-CC
   Dmitry Ganyushin       : Spin-Orbit,Spin-Spin,Magnetic field MRCI
   Miquel Garcia          : C-PCM Hessian, Gaussian charge scheme
   Yang Guo               : DLPNO-NEVPT2, CIM, IAO-localization
   Andreas Hansen         : Spin unrestricted coupled pair/coupled cluster methods
   Benjamin Helmich-Paris : CASSCF linear response (MC-RPA)
   Lee Huntington         : MR-EOM, pCC
   Robert Izsak           : Overlap fitted RIJCOSX, COSX-SCS-MP3, EOM
   Christian Kollmar      : KDIIS, OOCD, Brueckner-CCSD(T), CCSD density
   Simone Kossmann        : Meta GGA functionals, TD-DFT gradient, OOMP2, MP2 Hessian
   Martin Krupicka        : AUTO-CI
   Lucas Lang             : DCDCAS
   Dagmar Lenk            : GEPOL surface, SMD
   Dimitrios Liakos       : Extrapolation schemes; Compound Job, initial MDCI parallelization
   Dimitrios Manganas     : Further ROCIS development; embedding schemes
   Dimitrios Pantazis     : SARC Basis sets
   Taras Petrenko         : DFT Hessian,TD-DFT gradient, ASA, ECA, R-Raman, ABS, FL, XAS/XES, NRVS
   Peter Pinski           : DLPNO-MP2, DLPNO-MP2 Gradient
   Christoph Reimann      : Effective Core Potentials
   Marius Retegan         : Local ZFS, SOC
   Christoph Riplinger    : Optimizer, TS searches, QM/MM, DLPNO-CCSD(T), (RO)-DLPNO pert. Triples
   Tobias Risthaus        : Range-separated hybrids, TD-DFT gradient, RPA, STAB
   Michael Roemelt        : Original ROCIS implementation
   Masaaki Saitow         : Open-shell DLPNO-CCSD energy and density
   Barbara Sandhoefer     : DKH picture change effects
   Avijit Sen             : IP-ROCIS
   Kantharuban Sivalingam : CASSCF convergence, NEVPT2, FIC-MRCI
   Bernardo de Souza      : ESD, SOC TD-DFT
   Georgi Stoychev        : AutoAux, RI-MP2 NMR
   Willem Van den Heuvel  : Paramagnetic NMR
   Boris Wezisla          : Elementary symmetry handling
   Frank Wennmohs         : Technical directorship


 We gratefully acknowledge several colleagues who have allowed us to
 interface, adapt or use parts of their codes:
   Stefan Grimme, W. Hujo, H. Kruse,             : VdW corrections, initial TS optimization,
                  C. Bannwarth                     DFT functionals, gCP, sTDA/sTD-DF
   Ed Valeev, F. Pavosevic, A. Kumar             : LibInt (2-el integral package), F12 methods
   Garnet Chan, S. Sharma, J. Yang, R. Olivares  : DMRG
   Ulf Ekstrom                                   : XCFun DFT Library
   Mihaly Kallay                                 : mrcc  (arbitrary order and MRCC methods)
   Andreas Klamt, Michael Diedenhofen            : otool_cosmo (COSMO solvation model)
   Jiri Pittner, Ondrej Demel                    : Mk-CCSD
   Frank Weinhold                                : gennbo (NPA and NBO analysis)
   Christopher J. Cramer and Donald G. Truhlar   : smd solvation model
   Lars Goerigk                                  : TD-DFT with DH, B97 family of functionals
   V. Asgeirsson, H. Jonsson                     : NEB implementation
   FAccTs GmbH                                   : IRC, NEB, NEB-TS, Multilevel, MM, QM/MM, CI optimization
   S Lehtola, MJT Oliveira, MAL Marques          : LibXC Library


 Your calculation uses the libint2 library for the computation of 2-el integrals
 For citations please refer to: http://libint.valeyev.net

 Your ORCA version has been built with support for libXC version: 4.2.3
 For citations please refer to: https://tddft.org/programs/libxc/

 This ORCA versions uses:
   CBLAS   interface :  Fast vector & matrix operations
   LAPACKE interface :  Fast linear algebra routines
   SCALAPACK package :  Parallel linear algebra routines


----- Orbital basis set information -----
Your calculation utilizes the basis: def2-TZVPP
   F. Weigend and R. Ahlrichs, Phys. Chem. Chem. Phys. 7, 3297 (2005).

================================================================================
                                        WARNINGS
                       Please study these warnings very carefully!
================================================================================


WARNING: your system is open-shell and RHF/RKS was chosen
  ===> : WILL SWITCH to UHF/UKS


WARNING: MDCI localization with Augmented Hessian Foster-Boys
  ===> : Switching off randomization!

WARNING: Post HF methods need fully converged wavefunctions
  ===> : Setting SCFConvForced true
         You can overwrite this default with %scf ConvForced false 


INFO   : the flag for use of LIBINT has been found!

================================================================================
                                       INPUT FILE
================================================================================
NAME = 27_MnCl.in
|  1> #
|  2> # 27_MnCl ccsd(t)/cbs
|  3> #
|  4> ! ccsd(t) extrapolate(3/4,def2) verytightscf
|  5> 
|  6> *xyz 0 7
|  7>   Mn  0.00000000000000      0.00000000000000     -0.11585879372688
|  8>   Cl  0.00000000000000      0.00000000000000      2.11585879372688
|  9> *
| 10> 
| 11> %maxcore 5000
| 12> %pal
| 13> nprocs 24
| 14> end
| 15> 
| 16> 
| 17>                          ****END OF INPUT****
================================================================================

                   *****************************************
                   * Extrapolated Single Point Calculation *
                   *****************************************

----- Orbital basis set information -----
Your calculation utilizes the basis: def2-TZVPP
   F. Weigend and R. Ahlrichs, Phys. Chem. Chem. Phys. 7, 3297 (2005).

----- AuxJ basis set information -----
Your calculation utilizes the auxiliary basis: def2/J
   F. Weigend, Phys. Chem. Chem. Phys. 8, 1057 (2006).

----- AuxC basis set information -----
Your calculation utilizes the auxiliary basis: def2-TZVPP/C
  H-La, Hf-Rn : A. Hellweg, C. Hattig, S. Hofener and W. Klopper, Theor. Chem. Acc. 117, 587 (2007).
        Ce-Lu : J. Chmela and M. E. Harding, Mol. Phys. (2018).

----- AuxJK basis set information -----
Your calculation utilizes the auxiliary basis: def2/JK
   H-Ba, Hf-Rn: F. Weigend, J. Comput. Chem. 29, 167 (2008).

All done

                     -----------------------------------------
                     Extrapolated Energy 1 Basis=  def2-TZVPP
                     -----------------------------------------

---------------------------------
CARTESIAN COORDINATES (ANGSTROEM)
---------------------------------
  Mn     0.000000    0.000000   -0.115859
  Cl     0.000000    0.000000    2.115859

----------------------------
CARTESIAN COORDINATES (A.U.)
----------------------------
  NO LB      ZA    FRAG     MASS         X           Y           Z
   0 Mn   25.0000    0    54.940    0.000000    0.000000   -0.218941
   1 Cl   17.0000    0    35.453    0.000000    0.000000    3.998394

--------------------------------
INTERNAL COORDINATES (ANGSTROEM)
--------------------------------
 Mn     0   0   0     0.000000000000     0.00000000     0.00000000
 Cl     1   0   0     2.231717587454     0.00000000     0.00000000

---------------------------
INTERNAL COORDINATES (A.U.)
---------------------------
 Mn     0   0   0     0.000000000000     0.00000000     0.00000000
 Cl     1   0   0     4.217335048543     0.00000000     0.00000000

---------------------
BASIS SET INFORMATION
---------------------
There are 2 groups of distinct atoms

 Group   1 Type Mn  : 17s12p7d2f1g contracted to 6s5p4d2f1g pattern {842111/63111/4111/11/1}
 Group   2 Type Cl  : 14s9p3d1f contracted to 5s5p3d1f pattern {73211/51111/111/1}

Atom   0Mn   basis set group =>   1
Atom   1Cl   basis set group =>   2
---------------------------------
AUXILIARY/J BASIS SET INFORMATION
---------------------------------
There are 2 groups of distinct atoms

 Group   1 Type Mn  : 19s5p5d3f3g contracted to 8s5p5d2f3g pattern {121111111/11111/11111/21/111}
 Group   2 Type Cl  : 14s5p5d2f1g contracted to 8s4p3d1f1g pattern {71111111/2111/311/2/1}

Atom   0Mn   basis set group =>   1
Atom   1Cl   basis set group =>   2
---------------------------------
AUXILIARY/C BASIS SET INFORMATION
---------------------------------
There are 2 groups of distinct atoms

 Group   1 Type Mn  : 9s9p8d7f5g3h1i contracted to 9s9p8d7f5g3h1i pattern {111111111/111111111/11111111/1111111/11111/111/1}
 Group   2 Type Cl  : 11s8p7d5f2g contracted to 11s8p7d5f2g pattern {11111111111/11111111/1111111/11111/11}

Atom   0Mn   basis set group =>   1
Atom   1Cl   basis set group =>   2
----------------------------------
AUXILIARY/JK BASIS SET INFORMATION
----------------------------------
There are 2 groups of distinct atoms

 Group   1 Type Mn  : 19s14p12d10f7g3h1i contracted to 16s13p11d9f5g3h1i pattern {4111111111111111/2111111111111/21111111111/211111111/31111/111/1}
 Group   2 Type Cl  : 16s12p10d4f1g contracted to 13s11p9d4f1g pattern {4111111111111/21111111111/211111111/1111/1}

Atom   0Mn   basis set group =>   1
Atom   1Cl   basis set group =>   2


           ************************************************************
           *        Program running with 24 parallel MPI-processes    *
           *              working on a common directory               *
           ************************************************************
------------------------------------------------------------------------------
                           ORCA GTO INTEGRAL CALCULATION
------------------------------------------------------------------------------

                         BASIS SET STATISTICS AND STARTUP INFO

 # of primitive gaussian shells          ...   66
 # of primitive gaussian functions       ...  174
 # of contracted shells                  ...   32
 # of contracted basis functions         ...  106
 Highest angular momentum                ...    4
 Maximum contraction depth               ...    8
 Integral package used                   ... LIBINT
 Integral threshhold            Thresh   ...  1.000e-12
 Primitive cut-off              TCut     ...  1.000e-14


------------------------------ INTEGRAL EVALUATION ----------------------------


 * One electron integrals 
 Pre-screening matrix                    ... done
 Shell pair data                         ... done (   0.000 sec)



           ************************************************************
           *        Program running with 24 parallel MPI-processes    *
           *              working on a common directory               *
           ************************************************************
-------------------------------------------------------------------------------
                                 ORCA SCF
-------------------------------------------------------------------------------

------------
SCF SETTINGS
------------
Hamiltonian:
 Ab initio Hamiltonian  Method          .... Hartree-Fock(GTOs)


General Settings:
 Integral files         IntName         .... 27_MnCl
 Hartree-Fock type      HFTyp           .... UHF
 Total Charge           Charge          ....    0
 Multiplicity           Mult            ....    7
 Number of Electrons    NEL             ....   42
 Basis Dimension        Dim             ....  106
 Nuclear Repulsion      ENuc            ....    100.7745401084 Eh

Convergence Acceleration:
 DIIS                   CNVDIIS         .... on
   Start iteration      DIISMaxIt       ....    12
   Startup error        DIISStart       ....  0.200000
   # of expansion vecs  DIISMaxEq       ....     5
   Bias factor          DIISBfac        ....   1.050
   Max. coefficient     DIISMaxC        ....  10.000
 Newton-Raphson         CNVNR           .... off
 SOSCF                  CNVSOSCF        .... off
 Level Shifting         CNVShift        .... on
   Level shift para.    LevelShift      ....    0.2500
   Turn off err/grad.   ShiftErr        ....    0.0010
 Zerner damping         CNVZerner       .... off
 Static damping         CNVDamp         .... on
   Fraction old density DampFac         ....    0.7000
   Max. Damping (<1)    DampMax         ....    0.9800
   Min. Damping (>=0)   DampMin         ....    0.0000
   Turn off err/grad.   DampErr         ....    0.1000
 Fernandez-Rico         CNVRico         .... off

SCF Procedure:
 Maximum # iterations   MaxIter         ....   125
 SCF integral mode      SCFMode         .... Direct
   Integral package                     .... LIBINT
 Reset frequency        DirectResetFreq ....    20
 Integral Threshold     Thresh          ....  1.000e-12 Eh
 Primitive CutOff       TCut            ....  1.000e-14 Eh

Convergence Tolerance:
 Convergence Check Mode ConvCheckMode   .... Total+1el-Energy
 Convergence forced     ConvForced      .... 1
 Energy Change          TolE            ....  1.000e-09 Eh
 1-El. energy change                    ....  1.000e-06 Eh
 DIIS Error             TolErr          ....  1.000e-08


Diagonalization of the overlap matrix:
Smallest eigenvalue                        ... 1.239e-02
Time for diagonalization                   ...    0.022 sec
Threshold for overlap eigenvalues          ... 1.000e-08
Number of eigenvalues below threshold      ... 0
Time for construction of square roots      ...    0.001 sec
Total time needed                          ...    0.023 sec

-------------------
DFT GRID GENERATION
-------------------

General Integration Accuracy     IntAcc      ...  4.340
Radial Grid Type                 RadialGrid  ... Gauss-Chebyshev
Angular Grid (max. acc.)         AngularGrid ... Lebedev-110
Angular grid pruning method      GridPruning ... 3 (G Style)
Weight generation scheme         WeightScheme... Becke
Basis function cutoff            BFCut       ...    1.0000e-12
Integration weight cutoff        WCut        ...    1.0000e-14
Grids for H and He will be reduced by one unit

# of grid points (after initial pruning)     ...   4756 (   0.0 sec)
# of grid points (after weights+screening)   ...   4731 (   0.0 sec)
nearest neighbour list constructed           ...    0.0 sec
Grid point re-assignment to atoms done       ...    0.0 sec
Grid point division into batches done        ...    0.0 sec
Reduced shell lists constructed in    0.0 sec

Total number of grid points                  ...     4731
Total number of batches                      ...       75
Average number of points per batch           ...       63
Average number of grid points per atom       ...     2366
Average number of shells per batch           ...     8.40 (26.25%)
Average number of basis functions per batch  ...    25.20 (23.77%)
Average number of large shells per batch     ...     6.40 (76.19%)
Average number of large basis fcns per batch ...    17.60 (69.84%)
Maximum spatial batch extension              ...  18.98, 28.73, 16.15 au
Average spatial batch extension              ...   0.95,  1.29,  0.86 au

Time for grid setup =    0.019 sec

------------------------------
INITIAL GUESS: MODEL POTENTIAL
------------------------------
Loading Hartree-Fock densities                     ... done
Calculating cut-offs                               ... done
Setting up the integral package                    ... done
Initializing the effective Hamiltonian             ... done
Starting the Coulomb interaction                   ... done (   0.0 sec)
Reading the grid                                   ... done
Mapping shells                                     ... done
Starting the XC term evaluation                    ... done (   0.0 sec)
Transforming the Hamiltonian                       ... done (   0.0 sec)
Diagonalizing the Hamiltonian                      ... done (   0.0 sec)
Back transforming the eigenvectors                 ... done (   0.0 sec)
Now organizing SCF variables                       ... done
                      ------------------
                      INITIAL GUESS DONE (   0.1 sec)
                      ------------------
--------------
SCF ITERATIONS
--------------
ITER       Energy         Delta-E        Max-DP      RMS-DP      [F,P]     Damp
               ***  Starting incremental Fock matrix formation  ***
  0  -1609.2874943131   0.000000000000 0.02796207  0.00063549  0.1437229 0.7000
  1  -1609.3261756797  -0.038681366575 0.02076111  0.00051462  0.1016625 0.7000
                               ***Turning on DIIS***
  2  -1609.3541169561  -0.027941276340 0.04532639  0.00128195  0.0726753 0.0000
  3  -1609.4518621629  -0.097745206845 0.02648075  0.00051211  0.0353553 0.0000
  4  -1609.4105396850   0.041322477858 0.01330505  0.00026870  0.0126802 0.0000
  5  -1609.4444989118  -0.033959226769 0.01145351  0.00019356  0.0073455 0.0000
  6  -1609.4388656569   0.005633254880 0.00567794  0.00009400  0.0027207 0.0000
  7  -1609.4426806198  -0.003814962847 0.00332220  0.00005580  0.0013854 0.0000
  8  -1609.4417799157   0.000900704058 0.00332706  0.00005217  0.0007839 0.0000
  9  -1609.4393344698   0.002445445905 0.00085446  0.00001439  0.0002499 0.0000
 10  -1609.4390739515   0.000260518332 0.00019835  0.00000412  0.0000694 0.0000
 11  -1609.4389270016   0.000146949910 0.00005436  0.00000155  0.0000295 0.0000
 12  -1609.4388153485   0.000111653114 0.00002249  0.00000061  0.0000120 0.0000
 13  -1609.4388867280  -0.000071379553 0.00000608  0.00000018  0.0000053 0.0000
 14  -1609.4388382293   0.000048498747 0.00000344  0.00000009  0.0000009 0.0000
 15  -1609.4388464538  -0.000008224575 0.00000165  0.00000005  0.0000004 0.0000
 16  -1609.4388434543   0.000002999500 0.00000078  0.00000002  0.0000002 0.0000
 17  -1609.4388439301  -0.000000475738 0.00000036  0.00000001  0.0000001 0.0000
 18  -1609.4388441193  -0.000000189181 0.00000013  0.00000000  0.0000000 0.0000
                            ***DIIS convergence achieved***

               *****************************************************
               *                     SUCCESS                       *
               *           SCF CONVERGED AFTER  19 CYCLES          *
               *****************************************************


----------------
TOTAL SCF ENERGY
----------------

Total Energy       :        -1609.43884392 Eh          -43795.05744 eV

Components:
Nuclear Repulsion  :          100.77454011 Eh            2742.21465 eV
Electronic Energy  :        -1710.21338403 Eh          -46537.27209 eV
One Electron Energy:        -2422.44428444 Eh          -65918.06019 eV
Two Electron Energy:          712.23090041 Eh           19380.78810 eV

Virial components:
Potential Energy   :        -3218.91302930 Eh          -87591.07657 eV
Kinetic Energy     :         1609.47418538 Eh           43796.01913 eV
Virial Ratio       :            1.99997804


---------------
SCF CONVERGENCE
---------------

  Last Energy change         ...    2.0097e-07  Tolerance :   1.0000e-09
  Last MAX-Density change    ...    4.1858e-08  Tolerance :   1.0000e-08
  Last RMS-Density change    ...    1.2549e-09  Tolerance :   1.0000e-09
  Last DIIS Error            ...    1.2202e-08  Tolerance :   1.0000e-08

             **** THE GBW FILE WAS UPDATED (27_MnCl.gbw) ****
             **** DENSITY FILE WAS UPDATED (27_MnCl.scfp) ****
             **** ENERGY FILE WAS UPDATED (27_MnCl.en.tmp) ****
----------------------
UHF SPIN CONTAMINATION
----------------------

Expectation value of <S**2>     :    12.004272
Ideal value S*(S+1) for S=3.0   :    12.000000
Deviation                       :     0.004272

             **** THE GBW FILE WAS UPDATED (27_MnCl.gbw) ****
             **** DENSITY FILE WAS UPDATED (27_MnCl.scfp) ****
----------------
ORBITAL ENERGIES
----------------
                 SPIN UP ORBITALS
  NO   OCC          E(Eh)            E(eV) 
   0   1.0000    -240.567461     -6546.1734 
   1   1.0000    -104.773383     -2851.0287 
   2   1.0000     -29.208717      -794.8096 
   3   1.0000     -24.911466      -677.8755 
   4   1.0000     -24.911466      -677.8755 
   5   1.0000     -24.910983      -677.8623 
   6   1.0000     -10.503196      -285.8065 
   7   1.0000      -7.969855      -216.8708 
   8   1.0000      -7.969146      -216.8515 
   9   1.0000      -7.969146      -216.8515 
  10   1.0000      -4.053995      -110.3148 
  11   1.0000      -2.762004       -75.1579 
  12   1.0000      -2.761413       -75.1419 
  13   1.0000      -2.761413       -75.1419 
  14   1.0000      -1.031551       -28.0699 
  15   1.0000      -0.676170       -18.3995 
  16   1.0000      -0.676170       -18.3995 
  17   1.0000      -0.675933       -18.3931 
  18   1.0000      -0.675933       -18.3931 
  19   1.0000      -0.674843       -18.3634 
  20   1.0000      -0.463526       -12.6132 
  21   1.0000      -0.423194       -11.5157 
  22   1.0000      -0.423194       -11.5157 
  23   1.0000      -0.291558        -7.9337 
  24   0.0000       0.046866         1.2753 
  25   0.0000       0.046866         1.2753 
  26   0.0000       0.123612         3.3636 
  27   0.0000       0.171413         4.6644 
  28   0.0000       0.219015         5.9597 
  29   0.0000       0.219015         5.9597 
  30   0.0000       0.261579         7.1179 
  31   0.0000       0.261579         7.1179 
  32   0.0000       0.292316         7.9543 
  33   0.0000       0.451820        12.2946 
  34   0.0000       0.451820        12.2946 
  35   0.0000       0.455711        12.4005 
  36   0.0000       0.556523        15.1438 
  37   0.0000       0.572238        15.5714 
  38   0.0000       0.572238        15.5714 
  39   0.0000       0.678953        18.4753 
  40   0.0000       0.678953        18.4753 
  41   0.0000       0.726235        19.7619 
  42   0.0000       0.726235        19.7619 
  43   0.0000       0.816758        22.2251 
  44   0.0000       0.930191        25.3118 
  45   0.0000       0.930191        25.3118 
  46   0.0000       1.012890        27.5621 
  47   0.0000       1.012890        27.5621 
  48   0.0000       1.124969        30.6120 
  49   0.0000       1.313182        35.7335 
  50   0.0000       2.021853        55.0174 
  51   0.0000       2.021853        55.0174 
  52   0.0000       2.023331        55.0576 
  53   0.0000       2.074511        56.4503 
  54   0.0000       2.074511        56.4503 
  55   0.0000       2.127110        57.8816 
  56   0.0000       2.127110        57.8816 
  57   0.0000       2.172632        59.1203 
  58   0.0000       2.172632        59.1203 
  59   0.0000       2.243402        61.0461 
  60   0.0000       2.243402        61.0461 
  61   0.0000       2.267302        61.6964 
  62   0.0000       2.292570        62.3840 
  63   0.0000       2.292570        62.3840 
  64   0.0000       2.399269        65.2874 
  65   0.0000       2.452111        66.7253 
  66   0.0000       2.452111        66.7253 
  67   0.0000       2.460794        66.9616 
  68   0.0000       2.460794        66.9616 
  69   0.0000       2.521538        68.6145 
  70   0.0000       2.619161        71.2710 
  71   0.0000       2.619161        71.2710 
  72   0.0000       2.720215        74.0208 
  73   0.0000       2.720215        74.0208 
  74   0.0000       2.741477        74.5994 
  75   0.0000       3.355574        91.3098 
  76   0.0000       3.523735        95.8857 
  77   0.0000       3.523735        95.8857 
  78   0.0000       3.576388        97.3185 
  79   0.0000       3.576388        97.3185 
  80   0.0000       3.671757        99.9136 
  81   0.0000       7.394930       201.2263 
  82   0.0000       7.394930       201.2263 
  83   0.0000       7.400629       201.3813 
  84   0.0000       7.400629       201.3813 
  85   0.0000       7.405272       201.5077 
  86   0.0000       7.405272       201.5077 
  87   0.0000       7.414243       201.7518 
  88   0.0000       7.414243       201.7518 
  89   0.0000       7.437568       202.3865 
  90   0.0000       8.320751       226.4191 
  91   0.0000       8.320751       226.4191 
  92   0.0000       8.324403       226.5185 
  93   0.0000       8.324403       226.5185 
  94   0.0000       8.357513       227.4195 
  95   0.0000       8.357513       227.4195 
  96   0.0000       8.533796       232.2164 
  97   0.0000       8.699225       236.7180 
  98   0.0000       8.699225       236.7180 
  99   0.0000       8.773965       238.7517 
 100   0.0000       8.773965       238.7517 
 101   0.0000       8.888636       241.8721 
 102   0.0000      11.548026       314.2378 
 103   0.0000      11.548026       314.2378 
 104   0.0000      11.743047       319.5446 
 105   0.0000      25.679351       698.7707 

                 SPIN DOWN ORBITALS
  NO   OCC          E(Eh)            E(eV) 
   0   1.0000    -240.562706     -6546.0440 
   1   1.0000    -104.772794     -2851.0127 
   2   1.0000     -29.072937      -791.1148 
   3   1.0000     -24.779188      -674.2760 
   4   1.0000     -24.779188      -674.2760 
   5   1.0000     -24.777508      -674.2303 
   6   1.0000     -10.502532      -285.7884 
   7   1.0000      -7.968786      -216.8417 
   8   1.0000      -7.968403      -216.8313 
   9   1.0000      -7.968403      -216.8313 
  10   1.0000      -3.641007       -99.0768 
  11   1.0000      -2.267782       -61.7095 
  12   1.0000      -2.267782       -61.7095 
  13   1.0000      -2.262019       -61.5527 
  14   1.0000      -1.023954       -27.8632 
  15   1.0000      -0.467688       -12.7264 
  16   1.0000      -0.427047       -11.6205 
  17   1.0000      -0.427047       -11.6205 
  18   0.0000       0.011614         0.3160 
  19   0.0000       0.109820         2.9883 
  20   0.0000       0.109820         2.9883 
  21   0.0000       0.148926         4.0525 
  22   0.0000       0.172444         4.6924 
  23   0.0000       0.172444         4.6924 
  24   0.0000       0.205495         5.5918 
  25   0.0000       0.205495         5.5918 
  26   0.0000       0.215630         5.8676 
  27   0.0000       0.296112         8.0576 
  28   0.0000       0.341121         9.2824 
  29   0.0000       0.341121         9.2824 
  30   0.0000       0.349026         9.4975 
  31   0.0000       0.358010         9.7419 
  32   0.0000       0.358010         9.7419 
  33   0.0000       0.495300        13.4778 
  34   0.0000       0.505706        13.7610 
  35   0.0000       0.505706        13.7610 
  36   0.0000       0.596746        16.2383 
  37   0.0000       0.596746        16.2383 
  38   0.0000       0.603444        16.4206 
  39   0.0000       0.681099        18.5337 
  40   0.0000       0.681099        18.5337 
  41   0.0000       0.756316        20.5804 
  42   0.0000       0.756316        20.5804 
  43   0.0000       0.881064        23.9750 
  44   0.0000       1.094294        29.7772 
  45   0.0000       1.094294        29.7772 
  46   0.0000       1.159066        31.5398 
  47   0.0000       1.159066        31.5398 
  48   0.0000       1.209599        32.9149 
  49   0.0000       1.364457        37.1288 
  50   0.0000       2.100595        57.1601 
  51   0.0000       2.100595        57.1601 
  52   0.0000       2.107877        57.3583 
  53   0.0000       2.107877        57.3583 
  54   0.0000       2.114262        57.5320 
  55   0.0000       2.276193        61.9384 
  56   0.0000       2.276193        61.9384 
  57   0.0000       2.279462        62.0273 
  58   0.0000       2.291051        62.3427 
  59   0.0000       2.291051        62.3427 
  60   0.0000       2.293945        62.4214 
  61   0.0000       2.293945        62.4214 
  62   0.0000       2.414285        65.6960 
  63   0.0000       2.414285        65.6960 
  64   0.0000       2.453487        66.7628 
  65   0.0000       2.453487        66.7628 
  66   0.0000       2.477155        67.4068 
  67   0.0000       2.477155        67.4068 
  68   0.0000       2.512442        68.3670 
  69   0.0000       2.574744        70.0624 
  70   0.0000       2.624180        71.4076 
  71   0.0000       2.624180        71.4076 
  72   0.0000       2.776554        75.5539 
  73   0.0000       2.776554        75.5539 
  74   0.0000       2.848856        77.5213 
  75   0.0000       3.425740        93.2191 
  76   0.0000       3.726834       101.4123 
  77   0.0000       3.726834       101.4123 
  78   0.0000       3.776677       102.7686 
  79   0.0000       3.776677       102.7686 
  80   0.0000       3.861946       105.0889 
  81   0.0000       7.544946       205.3084 
  82   0.0000       7.544946       205.3084 
  83   0.0000       7.550335       205.4551 
  84   0.0000       7.550335       205.4551 
  85   0.0000       7.553954       205.5535 
  86   0.0000       7.553954       205.5535 
  87   0.0000       7.561787       205.7667 
  88   0.0000       7.561787       205.7667 
  89   0.0000       7.585484       206.4115 
  90   0.0000       8.607384       234.2188 
  91   0.0000       8.607384       234.2188 
  92   0.0000       8.609541       234.2775 
  93   0.0000       8.609541       234.2775 
  94   0.0000       8.615518       234.4402 
  95   0.0000       8.615518       234.4402 
  96   0.0000       8.704075       236.8499 
  97   0.0000       8.704075       236.8499 
  98   0.0000       8.766541       238.5497 
  99   0.0000       8.803173       239.5465 
 100   0.0000       8.803173       239.5465 
 101   0.0000       8.929446       242.9826 
 102   0.0000      11.548812       314.2591 
 103   0.0000      11.548812       314.2591 
 104   0.0000      11.745743       319.6179 
 105   0.0000      25.680398       698.7992 

                    ********************************
                    * MULLIKEN POPULATION ANALYSIS *
                    ********************************

--------------------------------------------
MULLIKEN ATOMIC CHARGES AND SPIN POPULATIONS
--------------------------------------------
   0 Mn:    0.585195    5.984142
   1 Cl:   -0.585195    0.015858
Sum of atomic charges         :   -0.0000000
Sum of atomic spin populations:    6.0000000

-----------------------------------------------------
MULLIKEN REDUCED ORBITAL CHARGES AND SPIN POPULATIONS
-----------------------------------------------------
CHARGE
  0 Mns       :     6.891677  s :     6.891677
      pz      :     4.336601  p :    12.426018
      px      :     4.044708
      py      :     4.044708
      dz2     :     1.032890  d :     5.093922
      dxz     :     1.030578
      dyz     :     1.030578
      dx2y2   :     0.999938
      dxy     :     0.999938
      f0      :     0.001632  f :     0.003166
      f+1     :     0.000766
      f-1     :     0.000766
      f+2     :     0.000001
      f-2     :     0.000001
      f+3     :     0.000000
      f-3     :     0.000000
      g0      :     0.000010  g :     0.000022
      g+1     :     0.000006
      g-1     :     0.000006
      g+2     :     0.000000
      g-2     :     0.000000
      g+3     :     0.000000
      g-3     :     0.000000
      g+4     :     0.000000
      g-4     :     0.000000
  1 Cls       :     5.948145  s :     5.948145
      pz      :     3.779713  p :    11.617632
      px      :     3.918959
      py      :     3.918959
      dz2     :     0.008765  d :     0.018302
      dxz     :     0.004715
      dyz     :     0.004715
      dx2y2   :     0.000053
      dxy     :     0.000053
      f0      :     0.000566  f :     0.001116
      f+1     :     0.000267
      f-1     :     0.000267
      f+2     :     0.000008
      f-2     :     0.000008
      f+3     :     0.000000
      f-3     :     0.000000

SPIN
  0 Mns       :     0.779472  s :     0.779472
      pz      :     0.256992  p :     0.278548
      px      :     0.010778
      py      :     0.010778
      dz2     :     0.958680  d :     4.926258
      dxz     :     0.983851
      dyz     :     0.983851
      dx2y2   :     0.999938
      dxy     :     0.999938
      f0      :    -0.000087  f :    -0.000138
      f+1     :    -0.000026
      f-1     :    -0.000026
      f+2     :     0.000001
      f-2     :     0.000001
      f+3     :     0.000000
      f-3     :     0.000000
      g0      :     0.000001  g :     0.000002
      g+1     :     0.000001
      g-1     :     0.000001
      g+2     :     0.000000
      g-2     :     0.000000
      g+3     :     0.000000
      g-3     :     0.000000
      g+4     :     0.000000
      g-4     :     0.000000
  1 Cls       :     0.000245  s :     0.000245
      pz      :     0.004625  p :     0.015686
      px      :     0.005531
      py      :     0.005531
      dz2     :    -0.000118  d :    -0.000387
      dxz     :    -0.000187
      dyz     :    -0.000187
      dx2y2   :     0.000053
      dxy     :     0.000053
      f0      :     0.000189  f :     0.000313
      f+1     :     0.000054
      f-1     :     0.000054
      f+2     :     0.000008
      f-2     :     0.000008
      f+3     :    -0.000000
      f-3     :    -0.000000


                     *******************************
                     * LOEWDIN POPULATION ANALYSIS *
                     *******************************

-------------------------------------------
LOEWDIN ATOMIC CHARGES AND SPIN POPULATIONS
-------------------------------------------
   0 Mn:    0.104589    5.948920
   1 Cl:   -0.104589    0.051080

----------------------------------------------------
LOEWDIN REDUCED ORBITAL CHARGES AND SPIN POPULATIONS
----------------------------------------------------
CHARGE
  0 Mns       :     6.895942  s :     6.895942
      pz      :     4.509449  p :    12.642858
      px      :     4.066705
      py      :     4.066705
      dz2     :     1.167485  d :     5.348577
      dxz     :     1.090653
      dyz     :     1.090653
      dx2y2   :     0.999893
      dxy     :     0.999893
      f0      :     0.004870  f :     0.007965
      f+1     :     0.001547
      f-1     :     0.001547
      f+2     :     0.000001
      f-2     :     0.000001
      f+3     :     0.000000
      f-3     :     0.000000
      g0      :     0.000039  g :     0.000067
      g+1     :     0.000014
      g-1     :     0.000014
      g+2     :     0.000000
      g-2     :     0.000000
      g+3     :     0.000000
      g-3     :     0.000000
      g+4     :     0.000000
      g-4     :     0.000000
  1 Cls       :     5.661392  s :     5.661392
      pz      :     3.744813  p :    11.417694
      px      :     3.836441
      py      :     3.836441
      dz2     :     0.014902  d :     0.023485
      dxz     :     0.004208
      dyz     :     0.004208
      dx2y2   :     0.000083
      dxy     :     0.000083
      f0      :     0.001108  f :     0.002019
      f+1     :     0.000433
      f-1     :     0.000433
      f+2     :     0.000022
      f-2     :     0.000022
      f+3     :     0.000000
      f-3     :     0.000000

SPIN
  0 Mns       :     0.730133  s :     0.730133
      pz      :     0.287818  p :     0.309887
      px      :     0.011034
      py      :     0.011034
      dz2     :     0.951337  d :     4.908922
      dxz     :     0.978899
      dyz     :     0.978899
      dx2y2   :     0.999893
      dxy     :     0.999893
      f0      :     0.000016  f :    -0.000026
      f+1     :    -0.000022
      f-1     :    -0.000022
      f+2     :     0.000001
      f-2     :     0.000001
      f+3     :     0.000000
      f-3     :     0.000000
      g0      :     0.000002  g :     0.000004
      g+1     :     0.000001
      g-1     :     0.000001
      g+2     :     0.000000
      g-2     :     0.000000
      g+3     :     0.000000
      g-3     :     0.000000
      g+4     :     0.000000
      g-4     :     0.000000
  1 Cls       :     0.004376  s :     0.004376
      pz      :     0.020728  p :     0.037054
      px      :     0.008163
      py      :     0.008163
      dz2     :     0.004861  d :     0.008225
      dxz     :     0.001599
      dyz     :     0.001599
      dx2y2   :     0.000083
      dxy     :     0.000083
      f0      :     0.000728  f :     0.001425
      f+1     :     0.000326
      f-1     :     0.000326
      f+2     :     0.000022
      f-2     :     0.000022
      f+3     :    -0.000000
      f-3     :    -0.000000


                      *****************************
                      * MAYER POPULATION ANALYSIS *
                      *****************************

  NA   - Mulliken gross atomic population
  ZA   - Total nuclear charge
  QA   - Mulliken gross atomic charge
  VA   - Mayer's total valence
  BVA  - Mayer's bonded valence
  FA   - Mayer's free valence

  ATOM       NA         ZA         QA         VA         BVA        FA
  0 Mn    24.4148    25.0000     0.5852     6.6752     0.7650     5.9102
  1 Cl    17.5852    17.0000    -0.5852     0.7663     0.7650     0.0013

  Mayer bond orders larger than 0.100000
B(  0-Mn,  1-Cl) :   0.7650 

-------
TIMINGS
-------

Total SCF time: 0 days 0 hours 0 min 2 sec 

Total time                  ....       2.915 sec
Sum of individual times     ....       2.693 sec  ( 92.4%)

Fock matrix formation       ....       2.477 sec  ( 85.0%)
Diagonalization             ....       0.051 sec  (  1.7%)
Density matrix formation    ....       0.009 sec  (  0.3%)
Population analysis         ....       0.005 sec  (  0.2%)
Initial guess               ....       0.108 sec  (  3.7%)
Orbital Transformation      ....       0.000 sec  (  0.0%)
Orbital Orthonormalization  ....       0.000 sec  (  0.0%)
DIIS solution               ....       0.025 sec  (  0.8%)


           ************************************************************
           *        Program running with 24 parallel MPI-processes    *
           *              working on a common directory               *
           ************************************************************


------------------------------------------------------------------------------- 
                              ORCA-MATRIX DRIVEN CI                            
------------------------------------------------------------------------------- 

--------------------------------
AUTOMATIC CHOICE OF INCORE LEVEL
--------------------------------

Memory available                           ...   2500.00 MB
Memory needed for S+T                      ...     16.16 MB
Memory needed for J+K                      ...     32.45 MB
Memory needed for DIIS                     ...    226.23 MB
Memory needed for 3-ext                    ...     58.89 MB
Memory needed for 4-ext                    ...    174.57 MB
Memory needed for triples                  ...     21.03 MB
 -> Final InCoreLevel    ... 5
 -> check shows that triples correction can be computed


Wavefunction type
-----------------
Correlation treatment                      ...      CCSD     
Single excitations                         ... ON
Orbital optimization                       ... OFF
Calculation of Z vector                    ... OFF
Calculation of Brueckner orbitals          ... OFF
Perturbative triple excitations            ... ON
Calculation of F12 correction              ... OFF
Frozen core treatment                      ... chemical core (20 el)
Reference Wavefunction                     ... UHF
  Alpha-MOs occ    :    10 ...   23 ( 14 MO's/ 14 electrons)
  Beta-MOs occ     :    10 ...   17 (  8 MO's/  8 electrons)
  Alpha-MOs virt   :    24 ...  105 ( 82 MO's              )
  Beta-MOs virt    :    18 ...  105 ( 88 MO's              )
Number of AO's                             ...    106
Number of electrons                        ...     42
Number of correlated electrons             ...     22

Algorithmic settings
--------------------
Integral transformation                    ... AO direct full transformation
K(C) Formation                             ... FULL-MO TRAFO
Maximum number of iterations               ...        50
Convergence tolerance (max. residuum)      ... 1.000e-06
Level shift for amplitude update           ... 2.000e-01
Maximum number of DIIS vectors             ...         7
DIIS turned on at iteration                ...         0
Damping before turning on DIIS             ...     0.500
Damping after turning on DIIS              ...     0.000
Pair specific amplitude update             ... OFF
Natural orbital iterations                 ... OFF
Perturbative natural orbital generation    ... OFF
Printlevel                                 ... 2

Memory handling:
----------------
Maximum memory for working arrays          ...   2500 MB
Data storage in matrix containers          ... UNCOMPRESSED
Data type for integral storage             ... DOUBLE
In-Core Storage of quantities:
   Amplitudes+Sigma Vector      ... YES
   J+K operators                ... YES
   DIIS vectors                 ... YES
   3-external integrals         ... YES
   4-external integrals         ... YES


Initializing the integral package          ... done
Warning: reference  - re-canonicalizations have been set to INT 1 VIRT 1

--------------------------
UNRESTRICTED FOCK OPERATOR
--------------------------

<ss|ss>:         1891 b          128 skpd (  6.8%)    0.001 s ( 0.000 ms/b)
<ss|sp>:         6344 b          356 skpd (  5.6%)    0.002 s ( 0.000 ms/b)
<ss|sd>:         4514 b          254 skpd (  5.6%)    0.001 s ( 0.000 ms/b)
<ss|sf>:         1891 b           90 skpd (  4.8%)    0.000 s ( 0.000 ms/b)
<ss|sg>:          671 b           69 skpd ( 10.3%)    0.000 s ( 0.001 ms/b)
<ss|pp>:         3233 b          141 skpd (  4.4%)    0.001 s ( 0.000 ms/b)
<ss|pd>:         4209 b          253 skpd (  6.0%)    0.001 s ( 0.000 ms/b)
<ss|pf>:         1769 b          101 skpd (  5.7%)    0.001 s ( 0.000 ms/b)
<ss|pg>:          610 b           42 skpd (  6.9%)    0.001 s ( 0.001 ms/b)
<ss|dd>:         1708 b           92 skpd (  5.4%)    0.002 s ( 0.001 ms/b)
<ss|df>:         1281 b           96 skpd (  7.5%)    0.000 s ( 0.000 ms/b)
<ss|dg>:          427 b           27 skpd (  6.3%)    0.001 s ( 0.002 ms/b)
<ss|ff>:          366 b           18 skpd (  4.9%)    0.000 s ( 0.001 ms/b)
<ss|fg>:          183 b            9 skpd (  4.9%)    0.000 s ( 0.002 ms/b)
<ss|gg>:           61 b            3 skpd (  4.9%)    0.001 s ( 0.010 ms/b)
<sp|sp>:         5460 b          224 skpd (  4.1%)    0.002 s ( 0.000 ms/b)
<sp|sd>:         7696 b          346 skpd (  4.5%)    0.002 s ( 0.000 ms/b)
<sp|sf>:         3224 b          114 skpd (  3.5%)    0.001 s ( 0.000 ms/b)
<sp|sg>:         1144 b          142 skpd ( 12.4%)    0.001 s ( 0.001 ms/b)
<sp|pp>:         5512 b          105 skpd (  1.9%)    0.003 s ( 0.001 ms/b)
<sp|pd>:         7176 b          264 skpd (  3.7%)    0.003 s ( 0.000 ms/b)
<sp|pf>:         3016 b          103 skpd (  3.4%)    0.002 s ( 0.001 ms/b)
<sp|pg>:         1040 b           48 skpd (  4.6%)    0.002 s ( 0.002 ms/b)
<sp|dd>:         2912 b           95 skpd (  3.3%)    0.004 s ( 0.001 ms/b)
<sp|df>:         2184 b          160 skpd (  7.3%)    0.001 s ( 0.001 ms/b)
<sp|dg>:          728 b           31 skpd (  4.3%)    0.002 s ( 0.003 ms/b)
<sp|ff>:          624 b           16 skpd (  2.6%)    0.001 s ( 0.002 ms/b)
<sp|fg>:          312 b            8 skpd (  2.6%)    0.001 s ( 0.005 ms/b)
<sp|gg>:          104 b            2 skpd (  1.9%)    0.002 s ( 0.019 ms/b)
<sd|sd>:         2775 b          110 skpd (  4.0%)    0.001 s ( 0.000 ms/b)
<sd|sf>:         2294 b           67 skpd (  2.9%)    0.001 s ( 0.000 ms/b)
<sd|sg>:          814 b          113 skpd ( 13.9%)    0.001 s ( 0.002 ms/b)
<sd|pp>:         3922 b           82 skpd (  2.1%)    0.003 s ( 0.001 ms/b)
<sd|pd>:         5106 b          182 skpd (  3.6%)    0.004 s ( 0.001 ms/b)
<sd|pf>:         2146 b           77 skpd (  3.6%)    0.002 s ( 0.001 ms/b)
<sd|pg>:          740 b           38 skpd (  5.1%)    0.002 s ( 0.003 ms/b)
<sd|dd>:         2072 b           53 skpd (  2.6%)    0.005 s ( 0.002 ms/b)
<sd|df>:         1554 b          103 skpd (  6.6%)    0.002 s ( 0.001 ms/b)
<sd|dg>:          518 b           26 skpd (  5.0%)    0.003 s ( 0.006 ms/b)
<sd|ff>:          444 b            8 skpd (  1.8%)    0.001 s ( 0.003 ms/b)
<sd|fg>:          222 b            5 skpd (  2.3%)    0.002 s ( 0.009 ms/b)
<sd|gg>:           74 b            1 skpd (  1.4%)    0.003 s ( 0.039 ms/b)
<sf|sf>:          496 b            7 skpd (  1.4%)    0.000 s ( 0.001 ms/b)
<sf|sg>:          341 b           52 skpd ( 15.2%)    0.001 s ( 0.003 ms/b)
<sf|pp>:         1643 b           20 skpd (  1.2%)    0.002 s ( 0.001 ms/b)
<sf|pd>:         2139 b           59 skpd (  2.8%)    0.003 s ( 0.001 ms/b)
<sf|pf>:          899 b           22 skpd (  2.4%)    0.001 s ( 0.002 ms/b)
<sf|pg>:          310 b           18 skpd (  5.8%)    0.002 s ( 0.006 ms/b)
<sf|dd>:          868 b           19 skpd (  2.2%)    0.004 s ( 0.004 ms/b)
<sf|df>:          651 b           34 skpd (  5.2%)    0.002 s ( 0.003 ms/b)
<sf|dg>:          217 b           10 skpd (  4.6%)    0.002 s ( 0.012 ms/b)
<sf|ff>:          186 b            1 skpd (  0.5%)    0.001 s ( 0.007 ms/b)
<sf|fg>:           93 b            0 skpd (  0.0%)    0.002 s ( 0.017 ms/b)
<sf|gg>:           31 b            0 skpd (  0.0%)    0.002 s ( 0.068 ms/b)
<sg|sg>:           66 b           17 skpd ( 25.8%)    0.000 s ( 0.004 ms/b)
<sg|pp>:          583 b           45 skpd (  7.7%)    0.001 s ( 0.003 ms/b)
<sg|pd>:          759 b          102 skpd ( 13.4%)    0.002 s ( 0.003 ms/b)
<sg|pf>:          319 b           49 skpd ( 15.4%)    0.001 s ( 0.002 ms/b)
<sg|pg>:          110 b           20 skpd ( 18.2%)    0.001 s ( 0.011 ms/b)
<sg|dd>:          308 b           36 skpd ( 11.7%)    0.002 s ( 0.008 ms/b)
<sg|df>:          231 b           43 skpd ( 18.6%)    0.001 s ( 0.005 ms/b)
<sg|dg>:           77 b           14 skpd ( 18.2%)    0.001 s ( 0.024 ms/b)
<sg|ff>:           66 b           10 skpd ( 15.2%)    0.001 s ( 0.009 ms/b)
<sg|fg>:           33 b            6 skpd ( 18.2%)    0.001 s ( 0.031 ms/b)
<sg|gg>:           11 b            2 skpd ( 18.2%)    0.001 s ( 0.119 ms/b)
<pp|pp>:         1431 b            5 skpd (  0.3%)    0.002 s ( 0.002 ms/b)
<pp|pd>:         3657 b           45 skpd (  1.2%)    0.004 s ( 0.001 ms/b)
<pp|pf>:         1537 b            8 skpd (  0.5%)    0.002 s ( 0.001 ms/b)
<pp|pg>:          530 b            8 skpd (  1.5%)    0.002 s ( 0.004 ms/b)
<pp|dd>:         1484 b           10 skpd (  0.7%)    0.005 s ( 0.003 ms/b)
<pp|df>:         1113 b           31 skpd (  2.8%)    0.002 s ( 0.002 ms/b)
<pp|dg>:          371 b            3 skpd (  0.8%)    0.003 s ( 0.008 ms/b)
<pp|ff>:          318 b            0 skpd (  0.0%)    0.002 s ( 0.005 ms/b)
<pp|fg>:          159 b            0 skpd (  0.0%)    0.002 s ( 0.013 ms/b)
<pp|gg>:           53 b            0 skpd (  0.0%)    0.003 s ( 0.055 ms/b)
<pd|pd>:         2415 b           69 skpd (  2.9%)    0.006 s ( 0.002 ms/b)
<pd|pf>:         2001 b           48 skpd (  2.4%)    0.004 s ( 0.002 ms/b)
<pd|pg>:          690 b           20 skpd (  2.9%)    0.005 s ( 0.007 ms/b)
<pd|dd>:         1932 b           35 skpd (  1.8%)    0.010 s ( 0.005 ms/b)
<pd|df>:         1449 b           89 skpd (  6.1%)    0.004 s ( 0.003 ms/b)
<pd|dg>:          483 b           14 skpd (  2.9%)    0.007 s ( 0.014 ms/b)
<pd|ff>:          414 b            6 skpd (  1.4%)    0.003 s ( 0.008 ms/b)
<pd|fg>:          207 b            3 skpd (  1.4%)    0.005 s ( 0.023 ms/b)
<pd|gg>:           69 b            1 skpd (  1.4%)    0.007 s ( 0.098 ms/b)
<pf|pf>:          435 b            8 skpd (  1.8%)    0.001 s ( 0.003 ms/b)
<pf|pg>:          290 b            6 skpd (  2.1%)    0.003 s ( 0.011 ms/b)
<pf|dd>:          812 b           19 skpd (  2.3%)    0.006 s ( 0.007 ms/b)
<pf|df>:          609 b           38 skpd (  6.2%)    0.003 s ( 0.005 ms/b)
<pf|dg>:          203 b            7 skpd (  3.4%)    0.004 s ( 0.022 ms/b)
<pf|ff>:          174 b            4 skpd (  2.3%)    0.003 s ( 0.015 ms/b)
<pf|fg>:           87 b            3 skpd (  3.4%)    0.003 s ( 0.039 ms/b)
<pf|gg>:           29 b            1 skpd (  3.4%)    0.004 s ( 0.151 ms/b)
<pg|pg>:           55 b            2 skpd (  3.6%)    0.001 s ( 0.024 ms/b)
<pg|dd>:          280 b            6 skpd (  2.1%)    0.004 s ( 0.014 ms/b)
<pg|df>:          210 b           12 skpd (  5.7%)    0.002 s ( 0.009 ms/b)
<pg|dg>:           70 b            3 skpd (  4.3%)    0.003 s ( 0.044 ms/b)
<pg|ff>:           60 b            1 skpd (  1.7%)    0.001 s ( 0.020 ms/b)
<pg|fg>:           30 b            1 skpd (  3.3%)    0.002 s ( 0.071 ms/b)
<pg|gg>:           10 b            0 skpd (  0.0%)    0.003 s ( 0.254 ms/b)
<dd|dd>:          406 b            3 skpd (  0.7%)    0.005 s ( 0.011 ms/b)
<dd|df>:          588 b           28 skpd (  4.8%)    0.003 s ( 0.005 ms/b)
<dd|dg>:          196 b            5 skpd (  2.6%)    0.005 s ( 0.024 ms/b)
<dd|ff>:          168 b            1 skpd (  0.6%)    0.003 s ( 0.015 ms/b)
<dd|fg>:           84 b            2 skpd (  2.4%)    0.003 s ( 0.043 ms/b)
<dd|gg>:           28 b            0 skpd (  0.0%)    0.005 s ( 0.172 ms/b)
<df|df>:          231 b           21 skpd (  9.1%)    0.003 s ( 0.015 ms/b)
<df|dg>:          147 b           10 skpd (  6.8%)    0.005 s ( 0.034 ms/b)
<df|ff>:          126 b            6 skpd (  4.8%)    0.003 s ( 0.027 ms/b)
<df|fg>:           63 b            3 skpd (  4.8%)    0.004 s ( 0.067 ms/b)
<df|gg>:           21 b            1 skpd (  4.8%)    0.005 s ( 0.265 ms/b)
<dg|dg>:           28 b            2 skpd (  7.1%)    0.002 s ( 0.094 ms/b)
<dg|ff>:           42 b            1 skpd (  2.4%)    0.001 s ( 0.034 ms/b)
<dg|fg>:           21 b            2 skpd (  9.5%)    0.002 s ( 0.119 ms/b)
<dg|gg>:            7 b            0 skpd (  0.0%)    0.003 s ( 0.407 ms/b)
<ff|ff>:           21 b            0 skpd (  0.0%)    0.001 s ( 0.051 ms/b)
<ff|fg>:           18 b            0 skpd (  0.0%)    0.002 s ( 0.105 ms/b)
<ff|gg>:            6 b            0 skpd (  0.0%)    0.003 s ( 0.487 ms/b)
<fg|fg>:            6 b            0 skpd (  0.0%)    0.001 s ( 0.236 ms/b)
<fg|gg>:            3 b            0 skpd (  0.0%)    0.002 s ( 0.669 ms/b)
<gg|gg>:            1 b            0 skpd (  0.0%)    0.001 s ( 1.183 ms/b)
Recanonicalizing the internal orbitals
Recanonicalizing the virtual orbitals
Time needed for Fock operator              ...            0.321 sec
Reference energy                           ...  -1609.438843959
Warning: for UHF the TrafoType has to be JK
Warning: for UHF the K(C)-option cannot be MO but must be AOX

-------------------------------
PARTIAL EXCHANGE TRANSFORMATION
-------------------------------

Transformation type                        ... two-operators
Generation of integrals (i,mue|j,nue)      ... ON
Generation of integrals (mue,kappa|nue,tau)... ON
Generation of integrals (i,mue|a,nue)      ... ON
Dimension of the basis                     ...  106
Number of internal alpha-MOs               ...   14 (  10-  23)
Number of internal beta-MOs                ...    8 (  10-  17)
Number of external alpha-MOs               ...   82 (  24- 105)
Number of external beta-MOs                ...   88 (  18- 105)
Pair cutoff                                ... 0.000e+00 Eh
Number of AO pairs in the trafo            ... 5671
Total Number of distinct AO pairs          ... 5671
Memory devoted for trafo                   ... 2500.0 MB 
Max. Number of MO pairs treated together   ... 29163      
Number Format for Storage                  ... Double (8 Byte)
Integral package used                      ... LIBINT

Starting integral evaluation:
    ... done with AO integral generation
Closing buffer AOK[aa] ( 0.00 GB; CompressionRatio= 0.99)
Closing buffer AOK[bb] ( 0.00 GB; CompressionRatio= 0.98)
Closing buffer AOK[ab] ( 0.00 GB; CompressionRatio= 0.99)
Closing buffer AOK[ba] ( 0.00 GB; CompressionRatio= 0.99)
Collecting buffer AOK 
Closing buffer IAAO1[aa] ( 0.00 GB; CompressionRatio= 1.00)
Closing buffer IAAO1[bb] ( 0.00 GB; CompressionRatio= 1.00)
Closing buffer IAAO1[ab] ( 0.00 GB; CompressionRatio= 1.00)
Closing buffer IAAO1[ba] ( 0.00 GB; CompressionRatio= 1.00)
Closing buffer IAAO2[aa] ( 0.00 GB; CompressionRatio= 1.00)
Closing buffer IAAO2[bb] ( 0.00 GB; CompressionRatio= 1.00)
Closing buffer IAAO2[ab] ( 0.00 GB; CompressionRatio= 1.00)
Closing buffer IAAO2[ba] ( 0.00 GB; CompressionRatio= 1.00)
Collecting buffer IAAO 
Closing buffer PRQS    ( 0.01 GB; CompressionRatio= 1.00)
Collecting buffer PRQS 
Number of alpha/alpha MO pairs in trafo    ...  105
Number of beta /beta  MO pairs in trafo    ...   36
Number of alpha/ beta MO pairs in trafo    ...  112
------------------------
SORTING OF (i,mue|j,nue)
------------------------

SORTING OF ALPHA/ALPHA PAIRS
IBATCH = 1 of  1
Closing buffer KAO[aa] ( 0.00 GB; CompressionRatio= 1.00)
Collecting buffer KAO 
SORTING OF BETA /BETA  PAIRS
IBATCH = 1 of  1
Closing buffer KAO[bb] ( 0.00 GB; CompressionRatio= 1.00)
Collecting buffer KAO 
SORTING OF ALPHA/BETA  PAIRS
IBATCH = 1 of  1
Closing buffer KAO[ab] ( 0.00 GB; CompressionRatio= 0.999866518354)
Collecting buffer KAO[ab] 
------------------------
SORTING OF (i,mue|a,nue)
------------------------

Number of alpha/alpha (i,a) pairs in trafo  ... 1148
Number of beta /beta  (i,a) pairs in trafo  ...  704
Number of alpha/ beta (i,a) pairs in trafo  ... 1232
Number of beta /alpha (i,a) pairs in trafo  ...  656
Setting up the alpha/alpha list             ... done
Setting up the beta /beta  list             ... done
Setting up the alpha/beta  list             ... done
Setting up the beta /alpha list             ... done
    ... Now sorting (i,mue|a,nue)integrals
    ... Integrals (i,b|a,c) will be made on the fly
SORTING OF ALPHA/ALPHA PAIRS
IBATCH = 1 of  1
Closing buffer IPAQ[aa]  0.00 GB; CompressionRatio= 1.00)
SORTING OF BETA /BETA  PAIRS
IBATCH = 1 of  1
Closing buffer IPAQ[bb]( 0.00 GB; CompressionRatio= 1.00)
SORTING OF ALPHA/BETA  PAIRS (NMatSort_ab=52)
IBATCH = 1 of  1
Closing buffer IPAQ[ab]( 0.00 GB; CompressionRatio= 1.00)
SORTING OF BETA/ALPHA  PAIRS
IBATCH = 1 of  1
Closing buffer IPAQ[ba]( 0.00 GB; CompressionRatio= 1.00)
N(AO-Batches) Done                         ...      8423 
N(AO-Batches) Skipped                      ...         0 
N(IJ)-pairs Skipped                        ...         0 
TOTAL TIME for half transformation         ...     1.464 sec
AO-integral generation                     ...     0.050 sec
Half transformation                        ...     0.016 sec
K-integral sorting                         ...     0.882 sec
<ss|**>: 
------------------------------
PARTIAL COULOMB TRANSFORMATION
------------------------------

Transformation type                        ... two-operators
Dimension of the basis                     ...  106
Number of internal alpha-MOs               ...   14 (10-23)
Number of internal beta-MOs                ...    8 (10-17)
Pair cutoff                                ... 0.000e+00 Eh
Number of AO pairs included in the trafo   ... 5671
Total Number of distinct AO pairs          ... 5671
Memory devoted for trafo                   ... 2500.0 MB 
Max. Number of MO pairs treated together   ... 57781      
Max. Number of MOs treated per batch       ...  545      
Number Format for Storage                  ... Double (8 Byte)
AO-integral source                         ... DIRECT
Integral package used                      ... LIBINT

Starting integral evaluation:
<sp|**>:        30988 b        0 skpd     0.009 s (  0.000 ms/b)
<sd|**>:        52832 b        0 skpd     0.022 s (  0.000 ms/b)
<sf|**>:        37592 b        0 skpd     0.024 s (  0.001 ms/b)
<sg|**>:        15748 b        0 skpd     0.012 s (  0.001 ms/b)
<pp|**>:         5588 b        0 skpd     0.019 s (  0.003 ms/b)
       26924 b        0 skpd     0.029 s (  0.001 ms/b)
<pd|**>:        35052 b        0 skpd     0.043 s (  0.001 ms/b)
<pf|**>:        14732 b        0 skpd     0.020 s (  0.001 ms/b)
<pg|**>:         5080 b        0 skpd     0.029 s (  0.006 ms/b)
<dd|**>:        14224 b        0 skpd     0.056 s (  0.004 ms/b)
<df|**>:        10668 b        0 skpd     0.024 s (  0.002 ms/b)
<dg|**>:         3556 b        0 skpd     0.037 s (  0.010 ms/b)
<ff|**>:         3048 b        0 skpd     0.016 s (  0.005 ms/b)
<fg|**>:         1524 b        0 skpd     0.024 s (  0.016 ms/b)
<gg|**>:          508 b        0 skpd     0.036 s (  0.071 ms/b)
Closing buffer AOJ[aa] ( 0.00 GB; CompressionRatio= 0.99)
Closing buffer AOJ[bb] ( 0.00 GB; CompressionRatio= 0.00)
Collecting buffer AOJ 
    ... done with AO integral generation
Number of Alpha-MO pairs included          ...  105
Number of Beta-MO pairs included           ...   36
    ... Now sorting integrals
SORTING ALPHA/ALPHA PAIRS
IBATCH = 1 of  1
Closing buffer JAO[aa] ( 0.00 GB; CompressionRatio= 1.00)
SORTING BETA/BETA PAIRS
IBATCH = 1 of  1
Closing buffer JAO[bb] ( 0.00 GB; CompressionRatio= 1.00)
Collecting buffer JAO 
TOTAL TIME for half transformation         ...     0.429 sec
AO-integral generation                     ...     0.392 sec
Half transformation                        ...     0.012 sec
J-integral sorting                         ...     0.018 sec

-------------------------- SECOND HALF TRANSFORMATION -------------------------
Formation of (ij|kl),(ij|ka), (ij|ab)      ... ok (     0.058 sec)
Formation of (ik|jl),(ik|ja), (ia|jb)      ... ok (     0.093 sec)


-----------------------
SPIN UNRESTRICTED GUESS
-----------------------

Entering MDCI_UHF_Guess, Tailored=0
Spin-components of the MP2 energy:
EMP2(aa)=     -0.158839436
EMP2(bb)=     -0.057024467
EMP2(ab)=     -0.405831089

Initial guess performed in     0.040 sec
E(0)                                       ...  -1609.438843959
E(MP2)                                     ...     -0.621694992
Initial E(tot)                             ...  -1610.060538951
<T|T>                                      ...      0.137291366
Number of pairs included                   ... 231

------------------------------------------------
                  UHF COUPLED CLUSTER ITERATIONS
------------------------------------------------

Number of amplitudes to be optimized       ...      1223476

Iter       E(tot)           E(Corr)          Delta-E          Residual     Time      <S|S>**1/2
  0  -1610.060538951     -0.621694992      0.000000000      0.016799603    1.36      0.000000025
                           *** Turning on DIIS ***
  1  -1610.064869013     -0.626025055     -0.004330063      0.005966003    1.42      0.037945408
  2  -1610.075062932     -0.636218973     -0.010193919      0.003950218    1.43      0.047422709
  3  -1610.077135100     -0.638291141     -0.002072168      0.002167332    1.43      0.059398245
  4  -1610.078073088     -0.639229129     -0.000937988      0.001348068    1.43      0.067384696
  5  -1610.078518007     -0.639674048     -0.000444919      0.000403071    1.48      0.074046509
  6  -1610.078593291     -0.639749332     -0.000075284      0.000194843    1.49      0.075890462
  7  -1610.078618454     -0.639774495     -0.000025163      0.000103881    1.47      0.076184115
  8  -1610.078617369     -0.639773410      0.000001085      0.000052826    1.49      0.076097326
  9  -1610.078616042     -0.639772084      0.000001327      0.000025839    1.48      0.076052828
 10  -1610.078616215     -0.639772257     -0.000000173      0.000009820    1.45      0.076034614
 11  -1610.078615618     -0.639771659      0.000000598      0.000002603    1.44      0.076027640
 12  -1610.078615821     -0.639771863     -0.000000203      0.000001287    1.44      0.076027790
 13  -1610.078615888     -0.639771929     -0.000000066      0.000000465    1.47      0.076028577
               --- The Coupled-Cluster iterations have converged ---

----------------------
COUPLED CLUSTER ENERGY
----------------------

E(0)                                       ...  -1609.438843959
E(CORR)                                    ...     -0.639771929
E(TOT)                                     ...  -1610.078615888
Singles norm <S|S>**1/2                    ...      0.076028577 ( 0.048457785, 0.027570793)  
T1 diagnostic                              ...      0.016209347                              

------------------
LARGEST AMPLITUDES
------------------
  23a-> 27a  -1a-> -1a       0.039864
  22a-> 39a  21a-> 40a       0.035189
  22a-> 40a  21a-> 39a       0.035189
  17b-> 39b  16b-> 40b       0.034984
  17b-> 40b  16b-> 39b       0.034984
  22a-> 40a  16b-> 39b       0.030130
  21a-> 40a  17b-> 39b       0.030130
  22a-> 39a  16b-> 40b       0.030130
  21a-> 39a  17b-> 40b       0.030130
  15b-> 27b  -1b-> -1b       0.029533
  15b-> 30b  -1b-> -1b       0.026648
  16b-> 24b  -1b-> -1b       0.024558
  17b-> 25b  -1b-> -1b       0.024558
  20a-> 42a  15b-> 42b       0.021764
  20a-> 41a  15b-> 41b       0.021764
  20a-> 36a  15b-> 38b       0.021461

----------------------
UHF TRIPLES CORRECTION (Algorithm 1)
----------------------

Multiplier for the singles contribution    ...      1.000000000

SPIN-CASE Alpha-Alpha-Alpha:
10% done
20% done
30% done
40% done
50% done
60% done
70% done
80% done
90% done


SPIN-CASE Beta-Beta-Beta:
10% done
20% done
30% done
40% done
50% done
60% done
70% done
80% done
90% done


SPIN-CASE Alpha-Alpha-Beta:
10% done
20% done
30% done
40% done
50% done
60% done
70% done
80% done
90% done


SPIN-CASE Beta-Beta-Alpha:
10% done
20% done
30% done
40% done
50% done
60% done
70% done
80% done
90% done


Triples Correction (T)                     ...     -0.019041955
    alpha-alpha-alpha ... -0.001868997 (  9.8%)
    alpha-alpha-beta  ... -0.010046478 ( 52.8%)
    alpha-beta -beta  ... -0.006727035 ( 35.3%)
    beta -beta -beta  ... -0.000399445 (  2.1%)
Scaling of triples based on CCSD energies (Peterson et al. Molecular Physics 113, 1551 (2015))
E(T*) = f*E(T) where f = E(F12-CCSD)/E(CCSD) 
f = CCSD (with F12)/ CCSD (without F12)    ...      1.000000000
Scaled triples correction (T)              ...     -0.019041955

Final correlation energy                   ...     -0.658813884
E(CCSD)                                    ...  -1610.078615888
E(CCSD(T))                                 ...  -1610.097657843



        !!!!!!!!!!!!!!!!!!!!!!!!!!!!!!!!!!!!!!!!!!!!!!!!!!!!!!!!!!!!!!!!!!!!!!!!!! 
        !  Warning: Densities are linearized densities                           !
        !!!!!!!!!!!!!!!!!!!!!!!!!!!!!!!!!!!!!!!!!!!!!!!!!!!!!!!!!!!!!!!!!!!!!!!!!! 

NORM  =      1.164950684 sqrt=     1.079328812
W(HF) =      0.858405436
------------------------------------------------------------------------------
                           ORCA POPULATION ANALYSIS
------------------------------------------------------------------------------
Input electron density              ... 27_MnCl.mdcip
Input spin density                  ... 27_MnCl.mdcir
BaseName (.gbw .S,...)              ... 27_MnCl

                    ********************************
                    * MULLIKEN POPULATION ANALYSIS *
                    ********************************

------------------------------------------
MULLIKEN ATOMIC CHARGES AND SPIN DENSITIES
------------------------------------------
   0 Mn:    0.484118    5.939493
   1 Cl:   -0.484118    0.060507
Sum of atomic charges       :   -0.0000000
Sum of atomic spin densities:    6.0000000

---------------------------------------------------
MULLIKEN REDUCED ORBITAL CHARGES AND SPIN DENSITIES
---------------------------------------------------
CHARGE
  0 Mns       :     6.940034  s :     6.940034
      pz      :     4.305867  p :    12.405669
      px      :     4.049901
      py      :     4.049901
      dz2     :     1.046649  d :     5.137465
      dxz     :     1.043791
      dyz     :     1.043791
      dx2y2   :     1.001617
      dxy     :     1.001617
      f0      :     0.005420  f :     0.029879
      f+1     :     0.004666
      f-1     :     0.004666
      f+2     :     0.003814
      f-2     :     0.003814
      f+3     :     0.003749
      f-3     :     0.003749
      g0      :     0.000327  g :     0.002836
      g+1     :     0.000322
      g-1     :     0.000322
      g+2     :     0.000314
      g-2     :     0.000314
      g+3     :     0.000311
      g-3     :     0.000311
      g+4     :     0.000309
      g-4     :     0.000309
  1 Cls       :     5.927496  s :     5.927496
      pz      :     3.701851  p :    11.419340
      px      :     3.858745
      py      :     3.858745
      dz2     :     0.029904  d :     0.125715
      dxz     :     0.026669
      dyz     :     0.026669
      dx2y2   :     0.021236
      dxy     :     0.021236
      f0      :     0.002188  f :     0.011568
      f+1     :     0.001851
      f-1     :     0.001851
      f+2     :     0.001465
      f-2     :     0.001465
      f+3     :     0.001374
      f-3     :     0.001374

SPIN
  0 Mns       :     0.796592  s :     0.796592
      pz      :     0.241388  p :     0.291142
      px      :     0.024877
      py      :     0.024877
      dz2     :     0.928042  d :     4.829821
      dxz     :     0.961287
      dyz     :     0.961287
      dx2y2   :     0.989603
      dxy     :     0.989603
      f0      :     0.002769  f :     0.020179
      f+1     :     0.002814
      f-1     :     0.002814
      f+2     :     0.002925
      f-2     :     0.002925
      f+3     :     0.002965
      f-3     :     0.002965
      g0      :     0.000194  g :     0.001759
      g+1     :     0.000194
      g-1     :     0.000194
      g+2     :     0.000195
      g-2     :     0.000195
      g+3     :     0.000196
      g-3     :     0.000196
      g+4     :     0.000196
      g-4     :     0.000196
  1 Cls       :     0.000751  s :     0.000751
      pz      :     0.028024  p :     0.057863
      px      :     0.014919
      py      :     0.014919
      dz2     :     0.000489  d :     0.001462
      dxz     :     0.000259
      dyz     :     0.000259
      dx2y2   :     0.000227
      dxy     :     0.000227
      f0      :     0.000206  f :     0.000431
      f+1     :     0.000078
      f-1     :     0.000078
      f+2     :     0.000025
      f-2     :     0.000025
      f+3     :     0.000010
      f-3     :     0.000010


                     *******************************
                     * LOEWDIN POPULATION ANALYSIS *
                     *******************************

-----------------------------------------
LOEWDIN ATOMIC CHARGES AND SPIN DENSITIES
-----------------------------------------
   0 Mn:    0.050337    5.903728
   1 Cl:   -0.050337    0.096272

--------------------------------------------------
LOEWDIN REDUCED ORBITAL CHARGES AND SPIN DENSITIES
--------------------------------------------------
CHARGE
  0 Mns       :     6.921606  s :     6.921606
      pz      :     4.471754  p :    12.612016
      px      :     4.070131
      py      :     4.070131
      dz2     :     1.176302  d :     5.378724
      dxz     :     1.099593
      dyz     :     1.099593
      dx2y2   :     1.001617
      dxy     :     1.001617
      f0      :     0.008496  f :     0.034437
      f+1     :     0.005406
      f-1     :     0.005406
      f+2     :     0.003816
      f-2     :     0.003816
      f+3     :     0.003749
      f-3     :     0.003749
      g0      :     0.000355  g :     0.002880
      g+1     :     0.000330
      g-1     :     0.000330
      g+2     :     0.000314
      g-2     :     0.000314
      g+3     :     0.000311
      g-3     :     0.000311
      g+4     :     0.000309
      g-4     :     0.000309
  1 Cls       :     5.653086  s :     5.653086
      pz      :     3.686965  p :    11.251453
      px      :     3.782244
      py      :     3.782244
      dz2     :     0.038312  d :     0.133097
      dxz     :     0.026175
      dyz     :     0.026175
      dx2y2   :     0.021217
      dxy     :     0.021217
      f0      :     0.002861  f :     0.012701
      f+1     :     0.002065
      f-1     :     0.002065
      f+2     :     0.001481
      f-2     :     0.001481
      f+3     :     0.001374
      f-3     :     0.001374

SPIN
  0 Mns       :     0.738031  s :     0.738031
      pz      :     0.279369  p :     0.330058
      px      :     0.025344
      py      :     0.025344
      dz2     :     0.923042  d :     4.813419
      dxz     :     0.955647
      dyz     :     0.955647
      dx2y2   :     0.989541
      dxy     :     0.989541
      f0      :     0.003020  f :     0.020459
      f+1     :     0.002829
      f-1     :     0.002829
      f+2     :     0.002925
      f-2     :     0.002925
      f+3     :     0.002965
      f-3     :     0.002965
      g0      :     0.000197  g :     0.001762
      g+1     :     0.000195
      g-1     :     0.000195
      g+2     :     0.000195
      g-2     :     0.000195
      g+3     :     0.000196
      g-3     :     0.000196
      g+4     :     0.000196
      g-4     :     0.000196
  1 Cls       :     0.005784  s :     0.005784
      pz      :     0.041981  p :     0.077398
      px      :     0.017709
      py      :     0.017709
      dz2     :     0.006248  d :     0.011418
      dxz     :     0.002314
      dyz     :     0.002314
      dx2y2   :     0.000271
      dxy     :     0.000271
      f0      :     0.000783  f :     0.001671
      f+1     :     0.000391
      f-1     :     0.000391
      f+2     :     0.000043
      f-2     :     0.000043
      f+3     :     0.000010
      f-3     :     0.000010


                      *****************************
                      * MAYER POPULATION ANALYSIS *
                      *****************************

  NA   - Mulliken gross atomic population
  ZA   - Total nuclear charge
  QA   - Mulliken gross atomic charge
  VA   - Mayer's total valence
  BVA  - Mayer's bonded valence
  FA   - Mayer's free valence

  ATOM       NA         ZA         QA         VA         BVA        FA
  0 Mn    24.5159    25.0000     0.4841     7.0573     0.8567     6.2006
  1 Cl    17.4841    17.0000    -0.4841     1.5222     0.8567     0.6655

  Mayer bond orders larger than 0.100000
B(  0-Mn,  1-Cl) :   0.8567 



------------------------------------------------------------------------------- 
                                     TIMINGS                                   
------------------------------------------------------------------------------- 


Total execution time                   ...       26.241 sec

Fock Matrix Formation                  ...        0.321 sec (  1.2%)
Initial Guess                          ...        0.040 sec (  0.2%)
DIIS Solver                            ...        1.434 sec (  5.5%)
State Vector Update                    ...        0.066 sec (  0.3%)
Sigma-vector construction              ...       18.768 sec ( 71.5%)
  <0|H|D>                              ...        0.004 sec (  0.0% of sigma)
  <D|H|D>(0-ext Fock)                  ...        0.033 sec (  0.2% of sigma)
  <D|H|D>(0-ext)                       ...        0.196 sec (  1.0% of sigma)
  <D|H|D>(2-ext Fock)                  ...        0.008 sec (  0.0% of sigma)
  <D|H|D>(2-ext)                       ...        0.445 sec (  2.4% of sigma)
  <D|H|D>(4-ext)                       ...       10.582 sec ( 56.4% of sigma)
  <S|H|0>                              ...        0.730 sec (  3.9% of sigma)
  <S|H|S>                              ...        0.002 sec (  0.0% of sigma)
  <S|H|D>(1-ext)                       ...        0.008 sec (  0.0% of sigma)
  <D|H|S>(1-ext)                       ...        0.117 sec (  0.6% of sigma)
  Fock-dressing                        ...        2.396 sec ( 12.8% of sigma)
  (ik|jl)-dressing                     ...        0.265 sec (  1.4% of sigma)
  (ij|ab),(ia|jb)-dressing             ...        3.140 sec ( 16.7% of sigma)
  Pair energies                        ...        0.005 sec (  0.0% of sigma)
Total Time for computing (T)           ...        3.051 sec ( 11.6% of ALL)
  I/O of integral and amplitudes       ...        0.493 sec ( 16.2% of (T))
  External N**7 contributions          ...        0.859 sec ( 28.2% of (T))
  Internal N**7 contributions          ...        0.456 sec ( 15.0% of (T))
  N**6 triples energy contributions    ...        1.193 sec ( 39.1% of (T))

----- Orbital basis set information -----
Your calculation utilizes the basis: def2-QZVPP
   F. Weigend and R. Ahlrichs, Phys. Chem. Chem. Phys. 7, 3297 (2005).

----- AuxJ basis set information -----
Your calculation utilizes the auxiliary basis: def2/J
   F. Weigend, Phys. Chem. Chem. Phys. 8, 1057 (2006).

----- AuxC basis set information -----
Your calculation utilizes the auxiliary basis: def2-QZVPP/C
  H-La, Hf-Rn : A. Hellweg, C. Hattig, S. Hofener and W. Klopper, Theor. Chem. Acc. 117, 587 (2007).
        Ce-Lu : J. Chmela and M. E. Harding, Mol. Phys. (2018).

----- AuxJK basis set information -----
Your calculation utilizes the auxiliary basis: def2/JK
   H-Ba, Hf-Rn: F. Weigend, J. Comput. Chem. 29, 167 (2008).

All done

                     -----------------------------------------
                     Extrapolated Energy 2 Basis=  def2-QZVPP
                     -----------------------------------------

---------------------------------
CARTESIAN COORDINATES (ANGSTROEM)
---------------------------------
  Mn     0.000000    0.000000   -0.115859
  Cl     0.000000    0.000000    2.115859

----------------------------
CARTESIAN COORDINATES (A.U.)
----------------------------
  NO LB      ZA    FRAG     MASS         X           Y           Z
   0 Mn   25.0000    0    54.940    0.000000    0.000000   -0.218941
   1 Cl   17.0000    0    35.453    0.000000    0.000000    3.998394

--------------------------------
INTERNAL COORDINATES (ANGSTROEM)
--------------------------------
 Mn     0   0   0     0.000000000000     0.00000000     0.00000000
 Cl     1   0   0     2.231717587454     0.00000000     0.00000000

---------------------------
INTERNAL COORDINATES (A.U.)
---------------------------
 Mn     0   0   0     0.000000000000     0.00000000     0.00000000
 Cl     1   0   0     4.217335048543     0.00000000     0.00000000

---------------------
BASIS SET INFORMATION
---------------------
There are 2 groups of distinct atoms

 Group   1 Type Mn  : 24s18p10d4f2g contracted to 11s6p5d4f2g pattern {114111111111/951111/61111/1111/11}
 Group   2 Type Cl  : 20s14p4d2f1g contracted to 9s6p4d2f1g pattern {1031111111/821111/1111/11/1}

Atom   0Mn   basis set group =>   1
Atom   1Cl   basis set group =>   2
---------------------------------
AUXILIARY/J BASIS SET INFORMATION
---------------------------------
There are 2 groups of distinct atoms

 Group   1 Type Mn  : 19s5p5d3f3g contracted to 8s5p5d2f3g pattern {121111111/11111/11111/21/111}
 Group   2 Type Cl  : 14s5p5d2f1g contracted to 8s4p3d1f1g pattern {71111111/2111/311/2/1}

Atom   0Mn   basis set group =>   1
Atom   1Cl   basis set group =>   2
---------------------------------
AUXILIARY/C BASIS SET INFORMATION
---------------------------------
There are 2 groups of distinct atoms

 Group   1 Type Mn  : 15s13p11d8f7g5h2i contracted to 15s13p11d8f7g5h2i pattern {111111111111111/1111111111111/11111111111/11111111/1111111/11111/11}
 Group   2 Type Cl  : 12s10p9d6f3g1h contracted to 12s10p9d6f3g1h pattern {111111111111/1111111111/111111111/111111/111/1}

Atom   0Mn   basis set group =>   1
Atom   1Cl   basis set group =>   2
----------------------------------
AUXILIARY/JK BASIS SET INFORMATION
----------------------------------
There are 2 groups of distinct atoms

 Group   1 Type Mn  : 19s14p12d10f7g3h1i contracted to 16s13p11d9f5g3h1i pattern {4111111111111111/2111111111111/21111111111/211111111/31111/111/1}
 Group   2 Type Cl  : 16s12p10d4f1g contracted to 13s11p9d4f1g pattern {4111111111111/21111111111/211111111/1111/1}

Atom   0Mn   basis set group =>   1
Atom   1Cl   basis set group =>   2

Checking for AutoStart:
The File: 27_MnCl.gbw exists
Trying to determine its content:
     ... Fine, the file contains calculation information
     ... Fine, the calculation information was read
     ... Fine, the file contains a basis set
     ... Fine, the basis set was read
     ... Fine, the file contains a geometry
     ... Fine, the geometry was read
     ... Fine, the file contains a set of orbitals
     ... Fine, the orbitals can be read
     => possible old guess file was deleted
     => GBW file was renamed to GES file
     => GES file is set as startup file
     => Guess is set to MORead
     ... now leaving AutoStart



           ************************************************************
           *        Program running with 24 parallel MPI-processes    *
           *              working on a common directory               *
           ************************************************************
------------------------------------------------------------------------------
                           ORCA GTO INTEGRAL CALCULATION
------------------------------------------------------------------------------

                         BASIS SET STATISTICS AND STARTUP INFO

 # of primitive gaussian shells          ...   99
 # of primitive gaussian functions       ...  279
 # of contracted shells                  ...   50
 # of contracted basis functions         ...  170
 Highest angular momentum                ...    4
 Maximum contraction depth               ...   11
 Integral package used                   ... LIBINT
 Integral threshhold            Thresh   ...  1.000e-12
 Primitive cut-off              TCut     ...  1.000e-14


------------------------------ INTEGRAL EVALUATION ----------------------------


 * One electron integrals 
 Pre-screening matrix                    ... done
 Shell pair data                         ... done (   0.000 sec)



           ************************************************************
           *        Program running with 24 parallel MPI-processes    *
           *              working on a common directory               *
           ************************************************************
-------------------------------------------------------------------------------
                                 ORCA SCF
-------------------------------------------------------------------------------

------------
SCF SETTINGS
------------
Hamiltonian:
 Ab initio Hamiltonian  Method          .... Hartree-Fock(GTOs)


General Settings:
 Integral files         IntName         .... 27_MnCl
 Hartree-Fock type      HFTyp           .... UHF
 Total Charge           Charge          ....    0
 Multiplicity           Mult            ....    7
 Number of Electrons    NEL             ....   42
 Basis Dimension        Dim             ....  170
 Nuclear Repulsion      ENuc            ....    100.7745401084 Eh

Convergence Acceleration:
 DIIS                   CNVDIIS         .... on
   Start iteration      DIISMaxIt       ....    12
[...]
  5  -1610.151051123     -0.676245505     -0.000485001      0.000468990    5.58      0.075616595
  6  -1610.151131384     -0.676325765     -0.000080261      0.000234610    5.71      0.077680910
  7  -1610.151158967     -0.676353348     -0.000027583      0.000081629    5.78      0.078093814
  8  -1610.151159227     -0.676353609     -0.000000261      0.000048669    5.62      0.078038698
  9  -1610.151157731     -0.676352112      0.000001496      0.000023175    5.66      0.077980980
 10  -1610.151158048     -0.676352430     -0.000000317      0.000008939    5.67      0.077956926
 11  -1610.151157180     -0.676351561      0.000000869      0.000002612    5.62      0.077944396
 12  -1610.151157327     -0.676351709     -0.000000148      0.000001255    5.51      0.077943550
 13  -1610.151157388     -0.676351770     -0.000000061      0.000000424    5.45      0.077943807
               --- The Coupled-Cluster iterations have converged ---

----------------------
COUPLED CLUSTER ENERGY
----------------------

E(0)                                       ...  -1609.474805619
E(CORR)                                    ...     -0.676351770
E(TOT)                                     ...  -1610.151157388
Singles norm <S|S>**1/2                    ...      0.077943807 ( 0.050630946, 0.027312861)  
T1 diagnostic                              ...      0.016617676                              

------------------
LARGEST AMPLITUDES
------------------
  15b-> 35b  -1b-> -1b       0.027704
  16b-> 32b  -1b-> -1b       0.027468
  17b-> 31b  -1b-> -1b       0.027468
  23a-> 26a  -1a-> -1a       0.026906
  23a-> 39a  -1a-> -1a       0.024409
  15b-> 36b  -1b-> -1b       0.023156
  23a-> 32a  -1a-> -1a       0.022327
  17b-> 29b  -1b-> -1b       0.020294
  16b-> 28b  -1b-> -1b       0.020294
  23a-> 35a  -1a-> -1a       0.020139
  15b-> 27b  -1b-> -1b       0.018764
  22a-> 55a  21a-> 54a       0.018317
  22a-> 54a  21a-> 55a       0.018317
  12b-> 33b  11b-> 34b       0.017083
  12b-> 34b  11b-> 33b       0.017083
  23a-> 27a  -1a-> -1a       0.015957

----------------------
UHF TRIPLES CORRECTION (Algorithm 1)
----------------------

Multiplier for the singles contribution    ...      1.000000000

SPIN-CASE Alpha-Alpha-Alpha:
10% done
20% done
30% done
40% done
50% done
60% done
70% done
80% done
90% done


SPIN-CASE Beta-Beta-Beta:
10% done
20% done
30% done
40% done
50% done
60% done
70% done
80% done
90% done


SPIN-CASE Alpha-Alpha-Beta:
10% done
20% done
30% done
40% done
50% done
60% done
70% done
80% done
90% done


SPIN-CASE Beta-Beta-Alpha:
10% done
20% done
30% done
40% done
50% done
60% done
70% done
80% done
90% done


Triples Correction (T)                     ...     -0.022852302
    alpha-alpha-alpha ... -0.002349545 ( 10.3%)
    alpha-alpha-beta  ... -0.012074159 ( 52.8%)
    alpha-beta -beta  ... -0.007973824 ( 34.9%)
    beta -beta -beta  ... -0.000454774 (  2.0%)
Scaling of triples based on CCSD energies (Peterson et al. Molecular Physics 113, 1551 (2015))
E(T*) = f*E(T) where f = E(F12-CCSD)/E(CCSD) 
f = CCSD (with F12)/ CCSD (without F12)    ...      1.000000000
Scaled triples correction (T)              ...     -0.022852302

Final correlation energy                   ...     -0.699204072
E(CCSD)                                    ...  -1610.151157388
E(CCSD(T))                                 ...  -1610.174009691



        !!!!!!!!!!!!!!!!!!!!!!!!!!!!!!!!!!!!!!!!!!!!!!!!!!!!!!!!!!!!!!!!!!!!!!!!!! 
        !  Warning: Densities are linearized densities                           !
        !!!!!!!!!!!!!!!!!!!!!!!!!!!!!!!!!!!!!!!!!!!!!!!!!!!!!!!!!!!!!!!!!!!!!!!!!! 

NORM  =      1.171195040 sqrt=     1.082217649
W(HF) =      0.853828752
------------------------------------------------------------------------------
                           ORCA POPULATION ANALYSIS
------------------------------------------------------------------------------
Input electron density              ... 27_MnCl.mdcip
Input spin density                  ... 27_MnCl.mdcir
BaseName (.gbw .S,...)              ... 27_MnCl

                    ********************************
                    * MULLIKEN POPULATION ANALYSIS *
                    ********************************

------------------------------------------
MULLIKEN ATOMIC CHARGES AND SPIN DENSITIES
------------------------------------------
   0 Mn:    0.489663    5.939255
   1 Cl:   -0.489663    0.060745
Sum of atomic charges       :   -0.0000000
Sum of atomic spin densities:    6.0000000

---------------------------------------------------
MULLIKEN REDUCED ORBITAL CHARGES AND SPIN DENSITIES
---------------------------------------------------
CHARGE
  0 Mns       :     6.943511  s :     6.943511
      pz      :     4.285307  p :    12.374707
      px      :     4.044700
      py      :     4.044700
      dz2     :     1.042296  d :     5.132863
      dxz     :     1.044157
      dyz     :     1.044157
      dx2y2   :     1.001126
      dxy     :     1.001126
      f0      :     0.009069  f :     0.055205
      f+1     :     0.014418
      f-1     :     0.014418
      f+2     :     0.004518
      f-2     :     0.004518
      f+3     :     0.004133
      f-3     :     0.004133
      g0      :     0.000560  g :     0.004050
      g+1     :     0.000509
      g-1     :     0.000509
      g+2     :     0.000428
      g-2     :     0.000428
      g+3     :     0.000410
      g-3     :     0.000410
      g+4     :     0.000399
      g-4     :     0.000399
  1 Cls       :     5.940818  s :     5.940818
      pz      :     3.700152  p :    11.397872
      px      :     3.848860
      py      :     3.848860
      dz2     :     0.030864  d :     0.132082
      dxz     :     0.028563
      dyz     :     0.028563
      dx2y2   :     0.022046
      dxy     :     0.022046
      f0      :     0.002898  f :     0.016223
      f+1     :     0.002918
      f-1     :     0.002918
      f+2     :     0.001979
      f-2     :     0.001979
      f+3     :     0.001765
      f-3     :     0.001765
      g0      :     0.000370  g :     0.002668
      g+1     :     0.000346
      g-1     :     0.000346
      g+2     :     0.000286
      g-2     :     0.000286
      g+3     :     0.000263
      g-3     :     0.000263
      g+4     :     0.000254
      g-4     :     0.000254

SPIN
  0 Mns       :     0.814014  s :     0.814014
      pz      :     0.228309  p :     0.276227
      px      :     0.023959
      py      :     0.023959
      dz2     :     0.928719  d :     4.825693
      dxz     :     0.959458
      dyz     :     0.959458
      dx2y2   :     0.989029
      dxy     :     0.989029
      f0      :     0.002975  f :     0.021032
      f+1     :     0.002632
      f-1     :     0.002632
      f+2     :     0.003156
      f-2     :     0.003156
      f+3     :     0.003241
      f-3     :     0.003241
      g0      :     0.000253  g :     0.002288
      g+1     :     0.000254
      g-1     :     0.000254
      g+2     :     0.000258
      g-2     :     0.000258
      g+3     :     0.000255
      g-3     :     0.000255
      g+4     :     0.000250
      g-4     :     0.000250
  1 Cls       :    -0.002198  s :    -0.002198
      pz      :     0.024811  p :     0.059967
      px      :     0.017578
      py      :     0.017578
      dz2     :     0.000594  d :     0.002042
      dxz     :     0.000452
      dyz     :     0.000452
      dx2y2   :     0.000272
      dxy     :     0.000272
      f0      :     0.000285  f :     0.000832
      f+1     :     0.000204
      f-1     :     0.000204
      f+2     :     0.000057
      f-2     :     0.000057
      f+3     :     0.000011
      f-3     :     0.000011
      g0      :     0.000039  g :     0.000102
      g+1     :     0.000025
      g-1     :     0.000025
      g+2     :     0.000006
      g-2     :     0.000006
      g+3     :     0.000000
      g-3     :     0.000000
      g+4     :    -0.000000
      g-4     :    -0.000000


                     *******************************
                     * LOEWDIN POPULATION ANALYSIS *
                     *******************************

-----------------------------------------
LOEWDIN ATOMIC CHARGES AND SPIN DENSITIES
-----------------------------------------
   0 Mn:   -0.244243    5.881845
   1 Cl:    0.244243    0.118155

--------------------------------------------------
LOEWDIN REDUCED ORBITAL CHARGES AND SPIN DENSITIES
--------------------------------------------------
CHARGE
  0 Mns       :     6.897361  s :     6.897361
      pz      :     4.493978  p :    12.647659
      px      :     4.076841
      py      :     4.076841
      dz2     :     1.198081  d :     5.416195
      dxz     :     1.108119
      dyz     :     1.108119
      dx2y2   :     1.000938
      dxy     :     1.000938
      f0      :     0.096921  f :     0.277740
      f+1     :     0.081492
      f-1     :     0.081492
      f+2     :     0.004783
      f-2     :     0.004783
      f+3     :     0.004135
      f-3     :     0.004135
      g0      :     0.001252  g :     0.005288
      g+1     :     0.000779
      g-1     :     0.000779
      g+2     :     0.000431
      g-2     :     0.000431
      g+3     :     0.000410
      g-3     :     0.000410
      g+4     :     0.000399
      g-4     :     0.000399
  1 Cls       :     5.529972  s :     5.529972
      pz      :     3.678874  p :    11.048304
      px      :     3.684715
      py      :     3.684715
      dz2     :     0.048716  d :     0.147633
      dxz     :     0.027622
      dyz     :     0.027622
      dx2y2   :     0.021836
      dxy     :     0.021836
      f0      :     0.009865  f :     0.026385
      f+1     :     0.004403
      f-1     :     0.004403
      f+2     :     0.002093
      f-2     :     0.002093
      f+3     :     0.001764
      f-3     :     0.001764
      g0      :     0.000825  g :     0.003464
      g+1     :     0.000501
      g-1     :     0.000501
      g+2     :     0.000301
      g-2     :     0.000301
      g+3     :     0.000263
      g-3     :     0.000263
      g+4     :     0.000254
      g-4     :     0.000254

SPIN
  0 Mns       :     0.722861  s :     0.722861
      pz      :     0.281006  p :     0.332648
      px      :     0.025821
      py      :     0.025821
      dz2     :     0.920832  d :     4.798967
      dxz     :     0.950323
      dyz     :     0.950323
      dx2y2   :     0.988744
      dxy     :     0.988744
      f0      :     0.004316  f :     0.025005
      f+1     :     0.003948
      f-1     :     0.003948
      f+2     :     0.003156
      f-2     :     0.003156
      f+3     :     0.003241
      f-3     :     0.003241
      g0      :     0.000299  g :     0.002364
      g+1     :     0.000268
      g-1     :     0.000268
      g+2     :     0.000258
      g-2     :     0.000258
      g+3     :     0.000255
      g-3     :     0.000255
      g+4     :     0.000250
      g-4     :     0.000250
  1 Cls       :     0.008087  s :     0.008087
      pz      :     0.049842  p :     0.085362
      px      :     0.017760
      py      :     0.017760
      dz2     :     0.007937  d :     0.017091
      dxz     :     0.004185
      dyz     :     0.004185
      dx2y2   :     0.000392
      dxy     :     0.000392
      f0      :     0.002331  f :     0.006902
      f+1     :     0.002069
      f-1     :     0.002069
      f+2     :     0.000206
      f-2     :     0.000206
      f+3     :     0.000011
      f-3     :     0.000011
      g0      :     0.000290  g :     0.000712
      g+1     :     0.000189
      g-1     :     0.000189
      g+2     :     0.000022
      g-2     :     0.000022
      g+3     :     0.000000
      g-3     :     0.000000
      g+4     :    -0.000000
      g-4     :    -0.000000


                      *****************************
                      * MAYER POPULATION ANALYSIS *
                      *****************************

  NA   - Mulliken gross atomic population
  ZA   - Total nuclear charge
  QA   - Mulliken gross atomic charge
  VA   - Mayer's total valence
  BVA  - Mayer's bonded valence
  FA   - Mayer's free valence

  ATOM       NA         ZA         QA         VA         BVA        FA
  0 Mn    24.5103    25.0000     0.4897     7.0571     0.8370     6.2202
  1 Cl    17.4897    17.0000    -0.4897     1.5350     0.8370     0.6980

  Mayer bond orders larger than 0.100000
B(  0-Mn,  1-Cl) :   0.8370 



------------------------------------------------------------------------------- 
                                     TIMINGS                                   
------------------------------------------------------------------------------- 


Total execution time                   ...      113.161 sec

Fock Matrix Formation                  ...        1.222 sec (  1.1%)
Initial Guess                          ...        0.114 sec (  0.1%)
DIIS Solver                            ...        4.523 sec (  4.0%)
State Vector Update                    ...        0.209 sec (  0.2%)
Sigma-vector construction              ...       73.190 sec ( 64.7%)
  <0|H|D>                              ...        0.011 sec (  0.0% of sigma)
  <D|H|D>(0-ext Fock)                  ...        0.118 sec (  0.2% of sigma)
  <D|H|D>(0-ext)                       ...        0.681 sec (  0.9% of sigma)
  <D|H|D>(2-ext Fock)                  ...        0.034 sec (  0.0% of sigma)
  <D|H|D>(2-ext)                       ...        1.860 sec (  2.5% of sigma)
  <D|H|D>(4-ext)                       ...       41.437 sec ( 56.6% of sigma)
  <S|H|0>                              ...        3.845 sec (  5.3% of sigma)
  <S|H|S>                              ...        0.004 sec (  0.0% of sigma)
  <S|H|D>(1-ext)                       ...        0.024 sec (  0.0% of sigma)
  <D|H|S>(1-ext)                       ...        0.362 sec (  0.5% of sigma)
  Fock-dressing                        ...       10.426 sec ( 14.2% of sigma)
  (ik|jl)-dressing                     ...        0.778 sec (  1.1% of sigma)
  (ij|ab),(ia|jb)-dressing             ...       11.367 sec ( 15.5% of sigma)
  Pair energies                        ...        0.014 sec (  0.0% of sigma)
Total Time for computing (T)           ...       22.155 sec ( 19.6% of ALL)
  I/O of integral and amplitudes       ...        3.066 sec ( 13.8% of (T))
  External N**7 contributions          ...        8.000 sec ( 36.1% of (T))
  Internal N**7 contributions          ...        2.525 sec ( 11.4% of (T))
  N**6 triples energy contributions    ...        8.079 sec ( 36.5% of (T))


-------------------
EXTRAPOLATED ENERGY
-------------------


-----------------------------------------------------------------
                      EP1 - MDCI extrapolation:
-----------------------------------------------------------------
NOTE: We use as reference SCF energy, for the extrapolation, the one from the MDCI module and not the one 
from the SCF calculation. In case the first step is a DFT calculation these two might be different.

NOTE: For the SCF part we extrapolate based on the scheme proposed in J. Chem. Phys. 2008, 129, 184116
using the exponents from J. Chem. Theory Comput., 7, 33-43 (2011)

NOTE: For the correlation part we extrapolate based on the scheme proposed in J. Chem. Phys. 1997, 106, 9639
using the exponents from J. Chem. Theory Comput., 7, 33-43 (2011)


Alpha(3/4)     :  7.880 (SCF Extrapolation)
Beta(3/4)      :  2.970 (correlation extrapolation)

SCF energy with basis def2-TZVPP:                     -1609.438843959
SCF energy with basis def2-QZVPP:                     -1609.474805619
Extrapolated CBS SCF energy (3/4) :                   -1609.479758930 (-0.004953312) 

MDCI energy with basis def2-TZVPP:                       -0.658813884
MDCI energy with basis def2-QZVPP:                       -0.699204072
Extrapolated CBS correlation energy (3/4) :              -0.729122707 (-0.029918635)

Estimated CBS total energy (3/4) :                    -1610.208881638



-------------------------   --------------------
FINAL SINGLE POINT ENERGY     -1610.208881637901
-------------------------   --------------------


                            ***************************************
                            *     ORCA property calculations      *
                            ***************************************

                                    ---------------------
                                    Active property flags
                                    ---------------------
   (+) Dipole Moment


------------------------------------------------------------------------------
                       ORCA ELECTRIC PROPERTIES CALCULATION
------------------------------------------------------------------------------

Dipole Moment Calculation                       ... on
Quadrupole Moment Calculation                   ... off
Polarizability Calculation                      ... off
GBWName                                         ... 27_MnCl.gbw
Electron density file                           ... 27_MnCl.scfp
The origin for moment calculation is the CENTER OF MASS  = ( 0.000000,  0.000000  1.435138)

-------------
DIPOLE MOMENT
-------------
                                X             Y             Z
Electronic contribution:      0.00000      -0.00000      -3.46998
Nuclear contribution   :      0.00000       0.00000       2.22337
                        -----------------------------------------
Total Dipole Moment    :      0.00000      -0.00000      -1.24661
                        -----------------------------------------
Magnitude (a.u.)       :      1.24661
Magnitude (Debye)      :      3.16864



--------------------
Rotational spectrum 
--------------------
 
Rotational constants in cm-1:     0.000000     0.157077     0.157077 
Rotational constants in MHz :     0.000000  4709.038991  4709.038991 

 Dipole components along the rotational axes: 
x,y,z [a.u.] :    -1.246612    -0.000000     0.000000 
x,y,z [Debye]:    -3.168636    -0.000000     0.000000 

 

                           *** MDCI DENSITY ***

------------------------------------------------------------------------------
                       ORCA ELECTRIC PROPERTIES CALCULATION
------------------------------------------------------------------------------

Dipole Moment Calculation                       ... on
Quadrupole Moment Calculation                   ... off
Polarizability Calculation                      ... off
GBWName                                         ... 27_MnCl.gbw
Electron density file                           ... 27_MnCl.mdcip
The origin for moment calculation is the CENTER OF MASS  = ( 0.000000,  0.000000  1.435138)

-------------
DIPOLE MOMENT
-------------
                                X             Y             Z
Electronic contribution:      0.00000       0.00000      -3.35377
Nuclear contribution   :      0.00000       0.00000       2.22337
                        -----------------------------------------
Total Dipole Moment    :      0.00000       0.00000      -1.13040
                        -----------------------------------------
Magnitude (a.u.)       :      1.13040
Magnitude (Debye)      :      2.87325



--------------------
Rotational spectrum 
--------------------
 
Rotational constants in cm-1:     0.000000     0.157077     0.157077 
Rotational constants in MHz :     0.000000  4709.038991  4709.038991 

 Dipole components along the rotational axes: 
x,y,z [a.u.] :    -1.130399     0.000000     0.000000 
x,y,z [Debye]:    -2.873246     0.000000     0.000000 

 

Timings for individual modules:

Sum of individual times         ...      154.910 sec (=   2.582 min)
GTO integral calculation        ...        2.107 sec (=   0.035 min)   1.4 %
SCF iterations                  ...       11.014 sec (=   0.184 min)   7.1 %
MDCI module                     ...      141.789 sec (=   2.363 min)  91.5 %
                             ****ORCA TERMINATED NORMALLY****
TOTAL RUN TIME: 0 days 0 hours 2 minutes 35 seconds 894 msec
