
                                 *****************
                                 * O   R   C   A *
                                 *****************

           --- An Ab Initio, DFT and Semiempirical electronic structure package ---

                  #######################################################
                  #                        -***-                        #
                  #          Department of theory and spectroscopy      #
                  #               Directorship: Frank Neese             #
                  #        Max Planck Institute fuer Kohlenforschung    #
                  #                Kaiser Wilhelm Platz 1               #
                  #                 D-45470 Muelheim/Ruhr               #
                  #                      Germany                        #
                  #                                                     #
                  #                  All rights reserved                #
                  #                        -***-                        #
                  #######################################################


                         Program Version 4.2.0 -  RELEASE  -


 With contributions from (in alphabetic order):
   Daniel Aravena         : Magnetic Suceptibility
   Michael Atanasov       : Ab Initio Ligand Field Theory (pilot matlab implementation)
   Alexander A. Auer      : GIAO ZORA, VPT2
   Ute Becker             : Parallelization
   Giovanni Bistoni       : ED, misc. LED, open-shell LED, HFLED
   Martin Brehm           : Molecular dynamics
   Dmytro Bykov           : SCF Hessian
   Vijay G. Chilkuri      : MRCI spin determinant printing, contributions to CSF-ICE
   Dipayan Datta          : RHF DLPNO-CCSD density
   Achintya Kumar Dutta   : EOM-CC, STEOM-CC
   Dmitry Ganyushin       : Spin-Orbit,Spin-Spin,Magnetic field MRCI
   Miquel Garcia          : C-PCM Hessian, Gaussian charge scheme
   Yang Guo               : DLPNO-NEVPT2, CIM, IAO-localization
   Andreas Hansen         : Spin unrestricted coupled pair/coupled cluster methods
   Benjamin Helmich-Paris : CASSCF linear response (MC-RPA)
   Lee Huntington         : MR-EOM, pCC
   Robert Izsak           : Overlap fitted RIJCOSX, COSX-SCS-MP3, EOM
   Christian Kollmar      : KDIIS, OOCD, Brueckner-CCSD(T), CCSD density
   Simone Kossmann        : Meta GGA functionals, TD-DFT gradient, OOMP2, MP2 Hessian
   Martin Krupicka        : AUTO-CI
   Lucas Lang             : DCDCAS
   Dagmar Lenk            : GEPOL surface, SMD
   Dimitrios Liakos       : Extrapolation schemes; Compound Job, initial MDCI parallelization
   Dimitrios Manganas     : Further ROCIS development; embedding schemes
   Dimitrios Pantazis     : SARC Basis sets
   Taras Petrenko         : DFT Hessian,TD-DFT gradient, ASA, ECA, R-Raman, ABS, FL, XAS/XES, NRVS
   Peter Pinski           : DLPNO-MP2, DLPNO-MP2 Gradient
   Christoph Reimann      : Effective Core Potentials
   Marius Retegan         : Local ZFS, SOC
   Christoph Riplinger    : Optimizer, TS searches, QM/MM, DLPNO-CCSD(T), (RO)-DLPNO pert. Triples
   Tobias Risthaus        : Range-separated hybrids, TD-DFT gradient, RPA, STAB
   Michael Roemelt        : Original ROCIS implementation
   Masaaki Saitow         : Open-shell DLPNO-CCSD energy and density
   Barbara Sandhoefer     : DKH picture change effects
   Avijit Sen             : IP-ROCIS
   Kantharuban Sivalingam : CASSCF convergence, NEVPT2, FIC-MRCI
   Bernardo de Souza      : ESD, SOC TD-DFT
   Georgi Stoychev        : AutoAux, RI-MP2 NMR
   Willem Van den Heuvel  : Paramagnetic NMR
   Boris Wezisla          : Elementary symmetry handling
   Frank Wennmohs         : Technical directorship


 We gratefully acknowledge several colleagues who have allowed us to
 interface, adapt or use parts of their codes:
   Stefan Grimme, W. Hujo, H. Kruse,             : VdW corrections, initial TS optimization,
                  C. Bannwarth                     DFT functionals, gCP, sTDA/sTD-DF
   Ed Valeev, F. Pavosevic, A. Kumar             : LibInt (2-el integral package), F12 methods
   Garnet Chan, S. Sharma, J. Yang, R. Olivares  : DMRG
   Ulf Ekstrom                                   : XCFun DFT Library
   Mihaly Kallay                                 : mrcc  (arbitrary order and MRCC methods)
   Andreas Klamt, Michael Diedenhofen            : otool_cosmo (COSMO solvation model)
   Jiri Pittner, Ondrej Demel                    : Mk-CCSD
   Frank Weinhold                                : gennbo (NPA and NBO analysis)
   Christopher J. Cramer and Donald G. Truhlar   : smd solvation model
   Lars Goerigk                                  : TD-DFT with DH, B97 family of functionals
   V. Asgeirsson, H. Jonsson                     : NEB implementation
   FAccTs GmbH                                   : IRC, NEB, NEB-TS, Multilevel, MM, QM/MM, CI optimization
   S Lehtola, MJT Oliveira, MAL Marques          : LibXC Library


 Your calculation uses the libint2 library for the computation of 2-el integrals
 For citations please refer to: http://libint.valeyev.net

 Your ORCA version has been built with support for libXC version: 4.2.3
 For citations please refer to: https://tddft.org/programs/libxc/

 This ORCA versions uses:
   CBLAS   interface :  Fast vector & matrix operations
   LAPACKE interface :  Fast linear algebra routines
   SCALAPACK package :  Parallel linear algebra routines


----- Orbital basis set information -----
Your calculation utilizes the basis: def2-TZVPP
   F. Weigend and R. Ahlrichs, Phys. Chem. Chem. Phys. 7, 3297 (2005).

================================================================================
                                        WARNINGS
                       Please study these warnings very carefully!
================================================================================


WARNING: your system is open-shell and RHF/RKS was chosen
  ===> : WILL SWITCH to UHF/UKS


WARNING: MDCI localization with Augmented Hessian Foster-Boys
  ===> : Switching off randomization!

WARNING: Post HF methods need fully converged wavefunctions
  ===> : Setting SCFConvForced true
         You can overwrite this default with %scf ConvForced false 


INFO   : the flag for use of LIBINT has been found!

================================================================================
                                       INPUT FILE
================================================================================
NAME = 28_MnBr.in
|  1> #
|  2> # 28_MnBr ccsd(t)/cbs
|  3> #
|  4> ! ccsd(t) extrapolate(3/4,def2) verytightscf
|  5> 
|  6> *xyz 0 7
|  7>   Mn  0.00000000000000      0.00000000000000     -0.18897622296313
|  8>   Br  0.00000000000000      0.00000000000000      2.18897622296313
|  9> *
| 10> 
| 11> %maxcore 5000
| 12> %pal
| 13> nprocs 24
| 14> end
| 15> 
| 16> 
| 17>                          ****END OF INPUT****
================================================================================

                   *****************************************
                   * Extrapolated Single Point Calculation *
                   *****************************************

----- Orbital basis set information -----
Your calculation utilizes the basis: def2-TZVPP
   F. Weigend and R. Ahlrichs, Phys. Chem. Chem. Phys. 7, 3297 (2005).

----- AuxJ basis set information -----
Your calculation utilizes the auxiliary basis: def2/J
   F. Weigend, Phys. Chem. Chem. Phys. 8, 1057 (2006).

----- AuxC basis set information -----
Your calculation utilizes the auxiliary basis: def2-TZVPP/C
  H-La, Hf-Rn : A. Hellweg, C. Hattig, S. Hofener and W. Klopper, Theor. Chem. Acc. 117, 587 (2007).
        Ce-Lu : J. Chmela and M. E. Harding, Mol. Phys. (2018).

----- AuxJK basis set information -----
Your calculation utilizes the auxiliary basis: def2/JK
   H-Ba, Hf-Rn: F. Weigend, J. Comput. Chem. 29, 167 (2008).

All done

                     -----------------------------------------
                     Extrapolated Energy 1 Basis=  def2-TZVPP
                     -----------------------------------------

---------------------------------
CARTESIAN COORDINATES (ANGSTROEM)
---------------------------------
  Mn     0.000000    0.000000   -0.188976
  Br     0.000000    0.000000    2.188976

----------------------------
CARTESIAN COORDINATES (A.U.)
----------------------------
  NO LB      ZA    FRAG     MASS         X           Y           Z
   0 Mn   25.0000    0    54.940    0.000000    0.000000   -0.357113
   1 Br   35.0000    0    79.900    0.000000    0.000000    4.136566

--------------------------------
INTERNAL COORDINATES (ANGSTROEM)
--------------------------------
 Mn     0   0   0     0.000000000000     0.00000000     0.00000000
 Br     1   0   0     2.377952445926     0.00000000     0.00000000

---------------------------
INTERNAL COORDINATES (A.U.)
---------------------------
 Mn     0   0   0     0.000000000000     0.00000000     0.00000000
 Br     1   0   0     4.493678882289     0.00000000     0.00000000

---------------------
BASIS SET INFORMATION
---------------------
There are 2 groups of distinct atoms

 Group   1 Type Mn  : 17s12p7d2f1g contracted to 6s5p4d2f1g pattern {842111/63111/4111/11/1}
 Group   2 Type Br  : 17s13p8d1f contracted to 6s5p4d1f pattern {842111/64111/5111/1}

Atom   0Mn   basis set group =>   1
Atom   1Br   basis set group =>   2
---------------------------------
AUXILIARY/J BASIS SET INFORMATION
---------------------------------
There are 2 groups of distinct atoms

 Group   1 Type Mn  : 19s5p5d3f3g contracted to 8s5p5d2f3g pattern {121111111/11111/11111/21/111}
 Group   2 Type Br  : 19s5p5d3f1g contracted to 8s4p3d2f1g pattern {121111111/2111/311/21/1}

Atom   0Mn   basis set group =>   1
Atom   1Br   basis set group =>   2
---------------------------------
AUXILIARY/C BASIS SET INFORMATION
---------------------------------
There are 2 groups of distinct atoms

 Group   1 Type Mn  : 9s9p8d7f5g3h1i contracted to 9s9p8d7f5g3h1i pattern {111111111/111111111/11111111/1111111/11111/111/1}
 Group   2 Type Br  : 10s9p8d6f4g1h contracted to 10s9p8d5f4g1h pattern {1111111111/111111111/11111111/21111/1111/1}

Atom   0Mn   basis set group =>   1
Atom   1Br   basis set group =>   2
----------------------------------
AUXILIARY/JK BASIS SET INFORMATION
----------------------------------
There are 2 groups of distinct atoms

 Group   1 Type Mn  : 19s14p12d10f7g3h1i contracted to 16s13p11d9f5g3h1i pattern {4111111111111111/2111111111111/21111111111/211111111/31111/111/1}
 Group   2 Type Br  : 20s14p13d10f7g3h contracted to 17s13p12d9f6g3h pattern {41111111111111111/2111111111111/211111111111/211111111/211111/111}

Atom   0Mn   basis set group =>   1
Atom   1Br   basis set group =>   2


           ************************************************************
           *        Program running with 24 parallel MPI-processes    *
           *              working on a common directory               *
           ************************************************************
------------------------------------------------------------------------------
                           ORCA GTO INTEGRAL CALCULATION
------------------------------------------------------------------------------

                         BASIS SET STATISTICS AND STARTUP INFO

 # of primitive gaussian shells          ...   78
 # of primitive gaussian functions       ...  214
 # of contracted shells                  ...   34
 # of contracted basis functions         ...  112
 Highest angular momentum                ...    4
 Maximum contraction depth               ...    8
 Integral package used                   ... LIBINT
 Integral threshhold            Thresh   ...  1.000e-12
 Primitive cut-off              TCut     ...  1.000e-14


------------------------------ INTEGRAL EVALUATION ----------------------------


 * One electron integrals 
 Pre-screening matrix                    ... done
 Shell pair data                         ... done (   0.000 sec)



           ************************************************************
           *        Program running with 24 parallel MPI-processes    *
           *              working on a common directory               *
           ************************************************************
-------------------------------------------------------------------------------
                                 ORCA SCF
-------------------------------------------------------------------------------

------------
SCF SETTINGS
------------
Hamiltonian:
 Ab initio Hamiltonian  Method          .... Hartree-Fock(GTOs)


General Settings:
 Integral files         IntName         .... 28_MnBr
 Hartree-Fock type      HFTyp           .... UHF
 Total Charge           Charge          ....    0
 Multiplicity           Mult            ....    7
 Number of Electrons    NEL             ....   60
 Basis Dimension        Dim             ....  112
 Nuclear Repulsion      ENuc            ....    194.7179633704 Eh

Convergence Acceleration:
 DIIS                   CNVDIIS         .... on
   Start iteration      DIISMaxIt       ....    12
   Startup error        DIISStart       ....  0.200000
   # of expansion vecs  DIISMaxEq       ....     5
   Bias factor          DIISBfac        ....   1.050
   Max. coefficient     DIISMaxC        ....  10.000
 Newton-Raphson         CNVNR           .... off
 SOSCF                  CNVSOSCF        .... off
 Level Shifting         CNVShift        .... on
   Level shift para.    LevelShift      ....    0.2500
   Turn off err/grad.   ShiftErr        ....    0.0010
 Zerner damping         CNVZerner       .... off
 Static damping         CNVDamp         .... on
   Fraction old density DampFac         ....    0.7000
   Max. Damping (<1)    DampMax         ....    0.9800
   Min. Damping (>=0)   DampMin         ....    0.0000
   Turn off err/grad.   DampErr         ....    0.1000
 Fernandez-Rico         CNVRico         .... off

SCF Procedure:
 Maximum # iterations   MaxIter         ....   125
 SCF integral mode      SCFMode         .... Direct
   Integral package                     .... LIBINT
 Reset frequency        DirectResetFreq ....    20
 Integral Threshold     Thresh          ....  1.000e-12 Eh
 Primitive CutOff       TCut            ....  1.000e-14 Eh

Convergence Tolerance:
 Convergence Check Mode ConvCheckMode   .... Total+1el-Energy
 Convergence forced     ConvForced      .... 1
 Energy Change          TolE            ....  1.000e-09 Eh
 1-El. energy change                    ....  1.000e-06 Eh
 DIIS Error             TolErr          ....  1.000e-08


Diagonalization of the overlap matrix:
Smallest eigenvalue                        ... 9.923e-03
Time for diagonalization                   ...    0.004 sec
Threshold for overlap eigenvalues          ... 1.000e-08
Number of eigenvalues below threshold      ... 0
Time for construction of square roots      ...    0.002 sec
Total time needed                          ...    0.006 sec

-------------------
DFT GRID GENERATION
-------------------

General Integration Accuracy     IntAcc      ...  4.340
Radial Grid Type                 RadialGrid  ... Gauss-Chebyshev
Angular Grid (max. acc.)         AngularGrid ... Lebedev-110
Angular grid pruning method      GridPruning ... 3 (G Style)
Weight generation scheme         WeightScheme... Becke
Basis function cutoff            BFCut       ...    1.0000e-12
Integration weight cutoff        WCut        ...    1.0000e-14
Grids for H and He will be reduced by one unit

# of grid points (after initial pruning)     ...   5802 (   0.0 sec)
# of grid points (after weights+screening)   ...   5778 (   0.0 sec)
nearest neighbour list constructed           ...    0.0 sec
Grid point re-assignment to atoms done       ...    0.0 sec
Grid point division into batches done        ...    0.0 sec
Reduced shell lists constructed in    0.0 sec

Total number of grid points                  ...     5778
Total number of batches                      ...       92
Average number of points per batch           ...       62
Average number of grid points per atom       ...     2889
Average number of shells per batch           ...     8.40 (24.71%)
Average number of basis functions per batch  ...    25.20 (22.50%)
Average number of large shells per batch     ...     7.20 (85.71%)
Average number of large basis fcns per batch ...    21.60 (85.71%)
Maximum spatial batch extension              ...  18.98, 28.73, 16.39 au
Average spatial batch extension              ...   0.76,  1.05,  0.71 au

Time for grid setup =    0.028 sec

------------------------------
INITIAL GUESS: MODEL POTENTIAL
------------------------------
Loading Hartree-Fock densities                     ... done
Calculating cut-offs                               ... done
Setting up the integral package                    ... done
Initializing the effective Hamiltonian             ... done
Starting the Coulomb interaction                   ... done (   0.0 sec)
Reading the grid                                   ... done
Mapping shells                                     ... done
Starting the XC term evaluation                    ... done (   0.0 sec)
Transforming the Hamiltonian                       ... done (   0.0 sec)
Diagonalizing the Hamiltonian                      ... done (   0.0 sec)
Back transforming the eigenvectors                 ... done (   0.0 sec)
Now organizing SCF variables                       ... done
                      ------------------
                      INITIAL GUESS DONE (   0.1 sec)
                      ------------------
--------------
SCF ITERATIONS
--------------
ITER       Energy         Delta-E        Max-DP      RMS-DP      [F,P]     Damp
               ***  Starting incremental Fock matrix formation  ***
  0  -3722.1813723787   0.000000000000 0.02875698  0.00062294  0.1528630 0.7000
  1  -3722.2211709185  -0.039798539784 0.02429336  0.00052823  0.0986891 0.7000
                               ***Turning on DIIS***
  2  -3722.2514986141  -0.030327695626 0.06042343  0.00138274  0.0634772 0.0000
  3  -3722.3514434037  -0.099944789546 0.02069868  0.00049463  0.0339561 0.0000
  4  -3722.3510184966   0.000424907049 0.01238231  0.00029895  0.0137190 0.0000
  5  -3722.4157521197  -0.064733623087 0.00942891  0.00018933  0.0072544 0.0000
  6  -3722.3561206238   0.059631495914 0.00546530  0.00009326  0.0026051 0.0000
  7  -3722.3586773859  -0.002556762147 0.00344032  0.00005759  0.0012732 0.0000
  8  -3722.3519084797   0.006768906182 0.00351485  0.00005518  0.0007534 0.0000
  9  -3722.3480218536   0.003886626101 0.00073104  0.00001290  0.0002392 0.0000
 10  -3722.3486031766  -0.000581322993 0.00029091  0.00000583  0.0000863 0.0000
 11  -3722.3477049944   0.000898182193 0.00009649  0.00000282  0.0000321 0.0000
 12  -3722.3478515862  -0.000146591772 0.00002568  0.00000069  0.0000089 0.0000
 13  -3722.3477755954   0.000075990833 0.00000863  0.00000025  0.0000027 0.0000
 14  -3722.3477797903  -0.000004194911 0.00000348  0.00000011  0.0000013 0.0000
 15  -3722.3477999981  -0.000020207810 0.00000229  0.00000007  0.0000005 0.0000
 16  -3722.3477935579   0.000006440207 0.00000131  0.00000004  0.0000002 0.0000
 17  -3722.3477949661  -0.000001408200 0.00000031  0.00000001  0.0000001 0.0000
 18  -3722.3477945224   0.000000443735 0.00000005  0.00000000  0.0000000 0.0000
                            ***DIIS convergence achieved***

               *****************************************************
               *                     SUCCESS                       *
               *           SCF CONVERGED AFTER  19 CYCLES          *
               *****************************************************


----------------
TOTAL SCF ENERGY
----------------

Total Energy       :        -3722.34779454 Eh         -101290.23299 eV

Components:
Nuclear Repulsion  :          194.71796337 Eh            5298.54516 eV
Electronic Energy  :        -3917.06575791 Eh         -106588.77814 eV
One Electron Energy:        -5558.40610012 Eh         -151251.91948 eV
Two Electron Energy:         1641.34034221 Eh           44663.14134 eV

Virial components:
Potential Energy   :        -7444.66843983 Eh         -202579.72720 eV
Kinetic Energy     :         3722.32064530 Eh          101289.49422 eV
Virial Ratio       :            2.00000729


---------------
SCF CONVERGENCE
---------------

  Last Energy change         ...   -1.3562e-08  Tolerance :   1.0000e-09
  Last MAX-Density change    ...    3.1998e-08  Tolerance :   1.0000e-08
  Last RMS-Density change    ...    6.6319e-10  Tolerance :   1.0000e-09
  Last DIIS Error            ...    9.5759e-09  Tolerance :   1.0000e-08

             **** THE GBW FILE WAS UPDATED (28_MnBr.gbw) ****
             **** DENSITY FILE WAS UPDATED (28_MnBr.scfp) ****
             **** ENERGY FILE WAS UPDATED (28_MnBr.en.tmp) ****
----------------------
UHF SPIN CONTAMINATION
----------------------

Expectation value of <S**2>     :    12.004734
Ideal value S*(S+1) for S=3.0   :    12.000000
Deviation                       :     0.004734

             **** THE GBW FILE WAS UPDATED (28_MnBr.gbw) ****
             **** DENSITY FILE WAS UPDATED (28_MnBr.scfp) ****
----------------
ORBITAL ENERGIES
----------------
                 SPIN UP ORBITALS
  NO   OCC          E(Eh)            E(eV) 
   0   1.0000    -489.971473    -13332.8016 
   1   1.0000    -240.573512     -6546.3381 
   2   1.0000     -65.114663     -1771.8601 
   3   1.0000     -58.469142     -1591.0262 
   4   1.0000     -58.468918     -1591.0201 
   5   1.0000     -58.468918     -1591.0201 
   6   1.0000     -29.214619      -794.9702 
   7   1.0000     -24.917298      -678.0341 
   8   1.0000     -24.917298      -678.0341 
   9   1.0000     -24.916965      -678.0251 
  10   1.0000      -9.788437      -266.3569 
  11   1.0000      -7.397357      -201.2923 
  12   1.0000      -7.395735      -201.2482 
  13   1.0000      -7.395735      -201.2482 
  14   1.0000      -4.059682      -110.4696 
  15   1.0000      -3.138156       -85.3936 
  16   1.0000      -3.137386       -85.3726 
  17   1.0000      -3.137386       -85.3726 
  18   1.0000      -3.135845       -85.3307 
  19   1.0000      -3.135845       -85.3307 
  20   1.0000      -2.767647       -75.3115 
  21   1.0000      -2.766930       -75.2920 
  22   1.0000      -2.766930       -75.2920 
  23   1.0000      -0.961939       -26.1757 
  24   1.0000      -0.681161       -18.5353 
  25   1.0000      -0.681161       -18.5353 
  26   1.0000      -0.680371       -18.5138 
  27   1.0000      -0.680371       -18.5138 
  28   1.0000      -0.677376       -18.4323 
  29   1.0000      -0.441805       -12.0221 
  30   1.0000      -0.391522       -10.6539 
  31   1.0000      -0.391522       -10.6539 
  32   1.0000      -0.290398        -7.9021 
  33   0.0000       0.043937         1.1956 
  34   0.0000       0.043937         1.1956 
  35   0.0000       0.120858         3.2887 
  36   0.0000       0.163542         4.4502 
  37   0.0000       0.216346         5.8871 
  38   0.0000       0.216346         5.8871 
  39   0.0000       0.256768         6.9870 
  40   0.0000       0.256768         6.9870 
  41   0.0000       0.271587         7.3902 
  42   0.0000       0.390769        10.6334 
  43   0.0000       0.395504        10.7622 
  44   0.0000       0.395504        10.7622 
  45   0.0000       0.474180        12.9031 
  46   0.0000       0.483193        13.1483 
  47   0.0000       0.483193        13.1483 
  48   0.0000       0.501773        13.6539 
  49   0.0000       0.501773        13.6539 
  50   0.0000       0.595920        16.2158 
  51   0.0000       0.595920        16.2158 
  52   0.0000       0.709742        19.3131 
  53   0.0000       0.926496        25.2112 
  54   0.0000       0.926496        25.2112 
  55   0.0000       0.966454        26.2985 
  56   0.0000       0.966454        26.2985 
  57   0.0000       1.052698        28.6454 
  58   0.0000       1.219690        33.1895 
  59   0.0000       1.615851        43.9695 
  60   0.0000       1.638143        44.5762 
  61   0.0000       1.638143        44.5762 
  62   0.0000       1.695687        46.1420 
  63   0.0000       1.695687        46.1420 
  64   0.0000       1.826713        49.7074 
  65   0.0000       1.826713        49.7074 
  66   0.0000       1.834673        49.9240 
  67   0.0000       1.834673        49.9240 
  68   0.0000       1.850448        50.3533 
  69   0.0000       1.850448        50.3533 
  70   0.0000       1.933156        52.6038 
  71   0.0000       1.951668        53.1076 
  72   0.0000       1.951668        53.1076 
  73   0.0000       1.991020        54.1784 
  74   0.0000       2.123475        57.7827 
  75   0.0000       2.123475        57.7827 
  76   0.0000       2.152699        58.5779 
  77   0.0000       2.152699        58.5779 
  78   0.0000       2.278766        62.0084 
  79   0.0000       2.278766        62.0084 
  80   0.0000       2.370675        64.5093 
  81   0.0000       2.370675        64.5093 
  82   0.0000       2.380751        64.7835 
  83   0.0000       2.600032        70.7505 
  84   0.0000       2.936549        79.9076 
  85   0.0000       3.518068        95.7315 
  86   0.0000       3.518068        95.7315 
  87   0.0000       3.570629        97.1618 
  88   0.0000       3.570629        97.1618 
  89   0.0000       3.680102       100.1407 
  90   0.0000       4.482772       121.9824 
  91   0.0000       4.482772       121.9824 
  92   0.0000       4.553955       123.9194 
  93   0.0000       4.553955       123.9194 
  94   0.0000       4.596269       125.0708 
  95   0.0000       7.390267       201.0994 
  96   0.0000       7.390267       201.0994 
  97   0.0000       7.395468       201.2409 
  98   0.0000       7.395468       201.2409 
  99   0.0000       7.399665       201.3551 
 100   0.0000       7.399665       201.3551 
 101   0.0000       7.405465       201.5129 
 102   0.0000       7.405465       201.5129 
 103   0.0000       7.423308       201.9985 
 104   0.0000       8.073568       219.6930 
 105   0.0000       8.315464       226.2753 
 106   0.0000       8.315464       226.2753 
 107   0.0000       8.320641       226.4162 
 108   0.0000       8.320641       226.4162 
 109   0.0000       8.357317       227.4142 
 110   0.0000       8.357317       227.4142 
 111   0.0000       8.519904       231.8384 

                 SPIN DOWN ORBITALS
  NO   OCC          E(Eh)            E(eV) 
   0   1.0000    -489.971278    -13332.7963 
   1   1.0000    -240.568770     -6546.2090 
   2   1.0000     -65.114506     -1771.8558 
   3   1.0000     -58.468823     -1591.0176 
   4   1.0000     -58.468792     -1591.0167 
   5   1.0000     -58.468792     -1591.0167 
   6   1.0000     -29.078762      -791.2733 
   7   1.0000     -24.784947      -674.4327 
   8   1.0000     -24.784947      -674.4327 
   9   1.0000     -24.783467      -674.3924 
  10   1.0000      -9.787993      -266.3448 
  11   1.0000      -7.396723      -201.2751 
  12   1.0000      -7.395405      -201.2392 
  13   1.0000      -7.395405      -201.2392 
  14   1.0000      -3.646328       -99.2216 
  15   1.0000      -3.137845       -85.3851 
  16   1.0000      -3.137119       -85.3654 
  17   1.0000      -3.137119       -85.3654 
  18   1.0000      -3.135658       -85.3256 
  19   1.0000      -3.135658       -85.3256 
  20   1.0000      -2.272715       -61.8437 
  21   1.0000      -2.272715       -61.8437 
  22   1.0000      -2.267264       -61.6954 
  23   1.0000      -0.954932       -25.9850 
  24   1.0000      -0.436793       -11.8857 
  25   1.0000      -0.394577       -10.7370 
  26   1.0000      -0.394577       -10.7370 
  27   0.0000       0.010614         0.2888 
  28   0.0000       0.106942         2.9100 
  29   0.0000       0.106942         2.9100 
  30   0.0000       0.147105         4.0029 
  31   0.0000       0.169037         4.5997 
  32   0.0000       0.169037         4.5997 
  33   0.0000       0.195364         5.3161 
  34   0.0000       0.195364         5.3161 
  35   0.0000       0.207687         5.6514 
  36   0.0000       0.263667         7.1747 
  37   0.0000       0.336934         9.1684 
  38   0.0000       0.336934         9.1684 
  39   0.0000       0.340874         9.2756 
  40   0.0000       0.355841         9.6829 
  41   0.0000       0.355841         9.6829 
  42   0.0000       0.411679        11.2023 
  43   0.0000       0.411679        11.2023 
  44   0.0000       0.424106        11.5405 
  45   0.0000       0.504028        13.7153 
  46   0.0000       0.504028        13.7153 
  47   0.0000       0.517102        14.0711 
  48   0.0000       0.537348        14.6220 
  49   0.0000       0.537348        14.6220 
  50   0.0000       0.620562        16.8864 
  51   0.0000       0.620562        16.8864 
  52   0.0000       0.773223        21.0405 
  53   0.0000       1.089957        29.6592 
  54   0.0000       1.089957        29.6592 
  55   0.0000       1.121800        30.5257 
  56   0.0000       1.121800        30.5257 
  57   0.0000       1.137122        30.9427 
  58   0.0000       1.280209        34.8363 
  59   0.0000       1.640161        44.6310 
  60   0.0000       1.640161        44.6310 
  61   0.0000       1.641429        44.6655 
  62   0.0000       1.699009        46.2324 
  63   0.0000       1.699009        46.2324 
  64   0.0000       1.840257        50.0759 
  65   0.0000       1.840257        50.0759 
  66   0.0000       1.851359        50.3780 
  67   0.0000       1.851359        50.3780 
  68   0.0000       1.867823        50.8261 
  69   0.0000       1.867823        50.8261 
  70   0.0000       1.936131        52.6848 
  71   0.0000       1.953589        53.1599 
  72   0.0000       1.953589        53.1599 
  73   0.0000       2.057738        55.9939 
  74   0.0000       2.290333        62.3231 
  75   0.0000       2.290333        62.3231 
  76   0.0000       2.313198        62.9453 
  77   0.0000       2.313198        62.9453 
  78   0.0000       2.406541        65.4853 
  79   0.0000       2.406541        65.4853 
  80   0.0000       2.494559        67.8804 
  81   0.0000       2.494559        67.8804 
  82   0.0000       2.510638        68.3179 
  83   0.0000       2.720158        74.0193 
  84   0.0000       3.041203        82.7553 
  85   0.0000       3.721469       101.2663 
  86   0.0000       3.721469       101.2663 
  87   0.0000       3.771551       102.6291 
  88   0.0000       3.771551       102.6291 
  89   0.0000       3.874092       105.4194 
  90   0.0000       4.483344       121.9980 
  91   0.0000       4.483344       121.9980 
  92   0.0000       4.554995       123.9477 
  93   0.0000       4.554995       123.9477 
  94   0.0000       4.602975       125.2533 
  95   0.0000       7.540348       205.1833 
  96   0.0000       7.540348       205.1833 
  97   0.0000       7.545229       205.3161 
  98   0.0000       7.545229       205.3161 
  99   0.0000       7.548559       205.4067 
 100   0.0000       7.548559       205.4067 
 101   0.0000       7.553552       205.5426 
 102   0.0000       7.553552       205.5426 
 103   0.0000       7.571456       206.0298 
 104   0.0000       8.078185       219.8186 
 105   0.0000       8.602537       234.0869 
 106   0.0000       8.602537       234.0869 
 107   0.0000       8.610224       234.2961 
 108   0.0000       8.610224       234.2961 
 109   0.0000       8.644872       235.2389 
 110   0.0000       8.644872       235.2389 
 111   0.0000       8.793275       239.2772 

                    ********************************
                    * MULLIKEN POPULATION ANALYSIS *
                    ********************************

--------------------------------------------
MULLIKEN ATOMIC CHARGES AND SPIN POPULATIONS
--------------------------------------------
   0 Mn:    0.564762    5.991530
   1 Br:   -0.564762    0.008470
Sum of atomic charges         :   -0.0000000
Sum of atomic spin populations:    6.0000000

-----------------------------------------------------
MULLIKEN REDUCED ORBITAL CHARGES AND SPIN POPULATIONS
-----------------------------------------------------
CHARGE
  0 Mns       :     6.907848  s :     6.907848
      pz      :     4.355858  p :    12.443017
      px      :     4.043579
      py      :     4.043579
      dz2     :     1.031576  d :     5.082136
      dxz     :     1.025354
      dyz     :     1.025354
      dx2y2   :     0.999925
      dxy     :     0.999925
      f0      :     0.001175  f :     0.002223
      f+1     :     0.000524
      f-1     :     0.000524
      f+2     :     0.000000
      f-2     :     0.000000
      f+3     :     0.000000
      f-3     :     0.000000
      g0      :     0.000007  g :     0.000014
      g+1     :     0.000003
      g-1     :     0.000003
      g+2     :     0.000000
      g-2     :     0.000000
      g+3     :     0.000000
      g-3     :     0.000000
      g+4     :     0.000000
      g-4     :     0.000000
  1 Brs       :     7.940537  s :     7.940537
      pz      :     5.752559  p :    17.601357
      px      :     5.924399
      py      :     5.924399
      dz2     :     2.009640  d :    10.021285
      dxz     :     2.005760
      dyz     :     2.005760
      dx2y2   :     2.000062
      dxy     :     2.000062
      f0      :     0.000799  f :     0.001584
      f+1     :     0.000380
      f-1     :     0.000380
      f+2     :     0.000012
      f-2     :     0.000012
      f+3     :     0.000000
      f-3     :     0.000000

SPIN
  0 Mns       :     0.770073  s :     0.770073
      pz      :     0.263607  p :     0.287030
      px      :     0.011711
      py      :     0.011711
      dz2     :     0.964037  d :     4.934539
      dxz     :     0.985317
      dyz     :     0.985317
      dx2y2   :     0.999934
      dxy     :     0.999934
      f0      :    -0.000073  f :    -0.000114
      f+1     :    -0.000021
      f-1     :    -0.000021
      f+2     :     0.000000
      f-2     :     0.000000
      f+3     :     0.000000
      f-3     :     0.000000
      g0      :     0.000000  g :     0.000002
      g+1     :     0.000001
      g-1     :     0.000001
      g+2     :     0.000000
      g-2     :     0.000000
      g+3     :     0.000000
      g-3     :     0.000000
      g+4     :     0.000000
      g-4     :     0.000000
  1 Brs       :     0.000071  s :     0.000071
      pz      :     0.002333  p :     0.009102
      px      :     0.003384
      py      :     0.003384
      dz2     :    -0.000251  d :    -0.001056
      dxz     :    -0.000457
      dyz     :    -0.000457
      dx2y2   :     0.000054
      dxy     :     0.000054
      f0      :     0.000202  f :     0.000353
      f+1     :     0.000064
      f-1     :     0.000064
      f+2     :     0.000011
      f-2     :     0.000011
      f+3     :     0.000000
      f-3     :     0.000000


                     *******************************
                     * LOEWDIN POPULATION ANALYSIS *
                     *******************************

-------------------------------------------
LOEWDIN ATOMIC CHARGES AND SPIN POPULATIONS
-------------------------------------------
   0 Mn:    0.077398    5.947942
   1 Br:   -0.077398    0.052058

----------------------------------------------------
LOEWDIN REDUCED ORBITAL CHARGES AND SPIN POPULATIONS
----------------------------------------------------
CHARGE
  0 Mns       :     6.902889  s :     6.902889
      pz      :     4.533208  p :    12.668990
      px      :     4.067891
      py      :     4.067891
      dz2     :     1.165703  d :     5.345094
      dxz     :     1.089832
      dyz     :     1.089832
      dx2y2   :     0.999863
      dxy     :     0.999863
      f0      :     0.003386  f :     0.005590
      f+1     :     0.001101
      f-1     :     0.001101
      f+2     :     0.000000
      f-2     :     0.000000
      f+3     :     0.000000
      f-3     :     0.000000
      g0      :     0.000022  g :     0.000039
      g+1     :     0.000008
      g-1     :     0.000008
      g+2     :     0.000000
      g-2     :     0.000000
      g+3     :     0.000000
      g-3     :     0.000000
      g+4     :     0.000000
      g-4     :     0.000000
  1 Brs       :     7.644029  s :     7.644029
      pz      :     5.726031  p :    17.397724
      px      :     5.835847
      py      :     5.835847
      dz2     :     2.023271  d :    10.033064
      dxz     :     2.004784
      dyz     :     2.004784
      dx2y2   :     2.000112
      dxy     :     2.000112
      f0      :     0.001461  f :     0.002581
      f+1     :     0.000536
      f-1     :     0.000536
      f+2     :     0.000024
      f-2     :     0.000024
      f+3     :     0.000000
      f-3     :     0.000000

SPIN
  0 Mns       :     0.712396  s :     0.712396
      pz      :     0.295375  p :     0.318899
      px      :     0.011762
      py      :     0.011762
      dz2     :     0.957266  d :     4.916697
      dxz     :     0.979856
      dyz     :     0.979856
      dx2y2   :     0.999860
      dxy     :     0.999860
      f0      :    -0.000008  f :    -0.000052
      f+1     :    -0.000023
      f-1     :    -0.000023
      f+2     :     0.000000
      f-2     :     0.000000
      f+3     :     0.000000
      f-3     :     0.000000
      g0      :     0.000001  g :     0.000003
      g+1     :     0.000001
      g-1     :     0.000001
      g+2     :     0.000000
      g-2     :     0.000000
      g+3     :     0.000000
      g-3     :     0.000000
      g+4     :     0.000000
      g-4     :     0.000000
  1 Brs       :     0.003710  s :     0.003710
      pz      :     0.023294  p :     0.035293
      px      :     0.005999
      py      :     0.005999
      dz2     :     0.007043  d :     0.011324
      dxz     :     0.002025
      dyz     :     0.002025
      dx2y2   :     0.000116
      dxy     :     0.000116
      f0      :     0.000924  f :     0.001731
      f+1     :     0.000380
      f-1     :     0.000380
      f+2     :     0.000024
      f-2     :     0.000024
      f+3     :     0.000000
      f-3     :     0.000000


                      *****************************
                      * MAYER POPULATION ANALYSIS *
                      *****************************

  NA   - Mulliken gross atomic population
  ZA   - Total nuclear charge
  QA   - Mulliken gross atomic charge
  VA   - Mayer's total valence
  BVA  - Mayer's bonded valence
  FA   - Mayer's free valence

  ATOM       NA         ZA         QA         VA         BVA        FA
  0 Mn    24.4352    25.0000     0.5648     6.7018     0.7903     5.9115
  1 Br    35.5648    35.0000    -0.5648     0.7917     0.7903     0.0014

  Mayer bond orders larger than 0.100000
B(  0-Mn,  1-Br) :   0.7903 

-------
TIMINGS
-------

Total SCF time: 0 days 0 hours 0 min 3 sec 

Total time                  ....       3.619 sec
Sum of individual times     ....       3.402 sec  ( 94.0%)

Fock matrix formation       ....       3.157 sec  ( 87.2%)
Diagonalization             ....       0.061 sec  (  1.7%)
Density matrix formation    ....       0.011 sec  (  0.3%)
Population analysis         ....       0.007 sec  (  0.2%)
Initial guess               ....       0.107 sec  (  3.0%)
Orbital Transformation      ....       0.000 sec  (  0.0%)
Orbital Orthonormalization  ....       0.000 sec  (  0.0%)
DIIS solution               ....       0.032 sec  (  0.9%)


           ************************************************************
           *        Program running with 24 parallel MPI-processes    *
           *              working on a common directory               *
           ************************************************************


------------------------------------------------------------------------------- 
                              ORCA-MATRIX DRIVEN CI                            
------------------------------------------------------------------------------- 

--------------------------------
AUTOMATIC CHOICE OF INCORE LEVEL
--------------------------------

Memory available                           ...   2500.00 MB
Memory needed for S+T                      ...     27.14 MB
Memory needed for J+K                      ...     54.51 MB
Memory needed for DIIS                     ...    379.97 MB
Memory needed for 3-ext                    ...     71.47 MB
Memory needed for 4-ext                    ...    150.46 MB
Memory needed for triples                  ...     18.81 MB
 -> Final InCoreLevel    ... 5
 -> check shows that triples correction can be computed


Wavefunction type
-----------------
Correlation treatment                      ...      CCSD     
Single excitations                         ... ON
Orbital optimization                       ... OFF
Calculation of Z vector                    ... OFF
Calculation of Brueckner orbitals          ... OFF
Perturbative triple excitations            ... ON
Calculation of F12 correction              ... OFF
Frozen core treatment                      ... chemical core (28 el)
Reference Wavefunction                     ... UHF
  Alpha-MOs occ    :    14 ...   32 ( 19 MO's/ 19 electrons)
  Beta-MOs occ     :    14 ...   26 ( 13 MO's/ 13 electrons)
  Alpha-MOs virt   :    33 ...  111 ( 79 MO's              )
  Beta-MOs virt    :    27 ...  111 ( 85 MO's              )
Number of AO's                             ...    112
Number of electrons                        ...     60
Number of correlated electrons             ...     32

Algorithmic settings
--------------------
Integral transformation                    ... AO direct full transformation
K(C) Formation                             ... FULL-MO TRAFO
Maximum number of iterations               ...        50
Convergence tolerance (max. residuum)      ... 1.000e-06
Level shift for amplitude update           ... 2.000e-01
Maximum number of DIIS vectors             ...         7
DIIS turned on at iteration                ...         0
Damping before turning on DIIS             ...     0.500
Damping after turning on DIIS              ...     0.000
Pair specific amplitude update             ... OFF
Natural orbital iterations                 ... OFF
Perturbative natural orbital generation    ... OFF
Printlevel                                 ... 2

Memory handling:
----------------
Maximum memory for working arrays          ...   2500 MB
Data storage in matrix containers          ... UNCOMPRESSED
Data type for integral storage             ... DOUBLE
In-Core Storage of quantities:
   Amplitudes+Sigma Vector      ... YES
   J+K operators                ... YES
   DIIS vectors                 ... YES
   3-external integrals         ... YES
   4-external integrals         ... YES


Initializing the integral package          ... done
Warning: reference  - re-canonicalizations have been set to INT 1 VIRT 1

--------------------------
UNRESTRICTED FOCK OPERATOR
--------------------------

<ss|ss>:         2346 b           24 skpd (  1.0%)    0.001 s ( 0.000 ms/b)
<ss|sp>:         7548 b          161 skpd (  2.1%)    0.002 s ( 0.000 ms/b)
<ss|sd>:         6256 b          105 skpd (  1.7%)    0.002 s ( 0.000 ms/b)
<ss|sf>:         2244 b           27 skpd (  1.2%)    0.000 s ( 0.000 ms/b)
<ss|sg>:          748 b           56 skpd (  7.5%)    0.001 s ( 0.001 ms/b)
<ss|pp>:         3672 b          131 skpd (  3.6%)    0.002 s ( 0.000 ms/b)
<ss|pd>:         5304 b           81 skpd (  1.5%)    0.002 s ( 0.000 ms/b)
<ss|pf>:         1972 b           38 skpd (  1.9%)    0.001 s ( 0.000 ms/b)
<ss|pg>:          680 b           52 skpd (  7.6%)    0.001 s ( 0.001 ms/b)
<ss|dd>:         2448 b           43 skpd (  1.8%)    0.002 s ( 0.001 ms/b)
<ss|df>:         1632 b           57 skpd (  3.5%)    0.001 s ( 0.000 ms/b)
<ss|dg>:          544 b           17 skpd (  3.1%)    0.001 s ( 0.002 ms/b)
<ss|ff>:          408 b            3 skpd (  0.7%)    0.000 s ( 0.001 ms/b)
<ss|fg>:          204 b            3 skpd (  1.5%)    0.000 s ( 0.002 ms/b)
<ss|gg>:           68 b            0 skpd (  0.0%)    0.001 s ( 0.009 ms/b)
<sp|sp>:         6216 b          227 skpd (  3.7%)    0.002 s ( 0.000 ms/b)
<sp|sd>:        10212 b          368 skpd (  3.6%)    0.004 s ( 0.000 ms/b)
<sp|sf>:         3663 b          107 skpd (  2.9%)    0.001 s ( 0.000 ms/b)
<sp|sg>:         1221 b          149 skpd ( 12.2%)    0.001 s ( 0.001 ms/b)
<sp|pp>:         5994 b          280 skpd (  4.7%)    0.004 s ( 0.001 ms/b)
<sp|pd>:         8658 b          185 skpd (  2.1%)    0.006 s ( 0.001 ms/b)
<sp|pf>:         3219 b           73 skpd (  2.3%)    0.002 s ( 0.001 ms/b)
<sp|pg>:         1110 b          120 skpd ( 10.8%)    0.002 s ( 0.002 ms/b)
<sp|dd>:         3996 b          100 skpd (  2.5%)    0.006 s ( 0.002 ms/b)
<sp|df>:         2664 b          131 skpd (  4.9%)    0.002 s ( 0.001 ms/b)
<sp|dg>:          888 b           28 skpd (  3.2%)    0.002 s ( 0.003 ms/b)
<sp|ff>:          666 b           13 skpd (  2.0%)    0.001 s ( 0.002 ms/b)
<sp|fg>:          333 b            6 skpd (  1.8%)    0.002 s ( 0.005 ms/b)
<sp|gg>:          111 b            2 skpd (  1.8%)    0.002 s ( 0.020 ms/b)
<sd|sd>:         4278 b          148 skpd (  3.5%)    0.003 s ( 0.001 ms/b)
<sd|sf>:         3036 b          106 skpd (  3.5%)    0.001 s ( 0.000 ms/b)
<sd|sg>:         1012 b          138 skpd ( 13.6%)    0.002 s ( 0.002 ms/b)
<sd|pp>:         4968 b          242 skpd (  4.9%)    0.005 s ( 0.001 ms/b)
<sd|pd>:         7176 b          148 skpd (  2.1%)    0.008 s ( 0.001 ms/b)
<sd|pf>:         2668 b           77 skpd (  2.9%)    0.003 s ( 0.001 ms/b)
<sd|pg>:          920 b          112 skpd ( 12.2%)    0.003 s ( 0.004 ms/b)
<sd|dd>:         3312 b           55 skpd (  1.7%)    0.010 s ( 0.003 ms/b)
<sd|df>:         2208 b          112 skpd (  5.1%)    0.004 s ( 0.002 ms/b)
<sd|dg>:          736 b           26 skpd (  3.5%)    0.005 s ( 0.006 ms/b)
<sd|ff>:          552 b           13 skpd (  2.4%)    0.002 s ( 0.004 ms/b)
<sd|fg>:          276 b            7 skpd (  2.5%)    0.003 s ( 0.010 ms/b)
<sd|gg>:           92 b            2 skpd (  2.2%)    0.004 s ( 0.043 ms/b)
<sf|sf>:          561 b           16 skpd (  2.9%)    0.000 s ( 0.001 ms/b)
<sf|sg>:          363 b           51 skpd ( 14.0%)    0.001 s ( 0.002 ms/b)
<sf|pp>:         1782 b           74 skpd (  4.2%)    0.003 s ( 0.001 ms/b)
<sf|pd>:         2574 b           44 skpd (  1.7%)    0.004 s ( 0.002 ms/b)
<sf|pf>:          957 b           20 skpd (  2.1%)    0.002 s ( 0.002 ms/b)
<sf|pg>:          330 b           40 skpd ( 12.1%)    0.002 s ( 0.007 ms/b)
<sf|dd>:         1188 b           21 skpd (  1.8%)    0.005 s ( 0.004 ms/b)
<sf|df>:          792 b           44 skpd (  5.6%)    0.002 s ( 0.003 ms/b)
<sf|dg>:          264 b           13 skpd (  4.9%)    0.003 s ( 0.010 ms/b)
<sf|ff>:          198 b            2 skpd (  1.0%)    0.001 s ( 0.007 ms/b)
<sf|fg>:           99 b            2 skpd (  2.0%)    0.002 s ( 0.017 ms/b)
<sf|gg>:           33 b            0 skpd (  0.0%)    0.002 s ( 0.067 ms/b)
<sg|sg>:           66 b           16 skpd ( 24.2%)    0.000 s ( 0.004 ms/b)
<sg|pp>:          594 b           71 skpd ( 12.0%)    0.001 s ( 0.003 ms/b)
<sg|pd>:          858 b          102 skpd ( 11.9%)    0.002 s ( 0.003 ms/b)
<sg|pf>:          319 b           39 skpd ( 12.2%)    0.001 s ( 0.003 ms/b)
<sg|pg>:          110 b           24 skpd ( 21.8%)    0.001 s ( 0.012 ms/b)
<sg|dd>:          396 b           40 skpd ( 10.1%)    0.003 s ( 0.008 ms/b)
<sg|df>:          264 b           43 skpd ( 16.3%)    0.001 s ( 0.004 ms/b)
<sg|dg>:           88 b           14 skpd ( 15.9%)    0.001 s ( 0.019 ms/b)
<sg|ff>:           66 b            7 skpd ( 10.6%)    0.001 s ( 0.009 ms/b)
<sg|fg>:           33 b            5 skpd ( 15.2%)    0.001 s ( 0.030 ms/b)
<sg|gg>:           11 b            1 skpd (  9.1%)    0.001 s ( 0.114 ms/b)
<pp|pp>:         1485 b           69 skpd (  4.6%)    0.003 s ( 0.002 ms/b)
<pp|pd>:         4212 b          144 skpd (  3.4%)    0.007 s ( 0.002 ms/b)
<pp|pf>:         1566 b           56 skpd (  3.6%)    0.003 s ( 0.002 ms/b)
<pp|pg>:          540 b           53 skpd (  9.8%)    0.003 s ( 0.006 ms/b)
<pp|dd>:         1944 b           70 skpd (  3.6%)    0.008 s ( 0.004 ms/b)
<pp|df>:         1296 b           68 skpd (  5.2%)    0.003 s ( 0.002 ms/b)
<pp|dg>:          432 b           19 skpd (  4.4%)    0.004 s ( 0.009 ms/b)
<pp|ff>:          324 b           12 skpd (  3.7%)    0.002 s ( 0.005 ms/b)
<pp|fg>:          162 b            6 skpd (  3.7%)    0.002 s ( 0.015 ms/b)
<pp|gg>:           54 b            2 skpd (  3.7%)    0.003 s ( 0.064 ms/b)
<pd|pd>:         3081 b           10 skpd (  0.3%)    0.011 s ( 0.004 ms/b)
<pd|pf>:         2262 b           12 skpd (  0.5%)    0.007 s ( 0.003 ms/b)
<pd|pg>:          780 b           77 skpd (  9.9%)    0.007 s ( 0.010 ms/b)
<pd|dd>:         2808 b           11 skpd (  0.4%)    0.019 s ( 0.007 ms/b)
<pd|df>:         1872 b           56 skpd (  3.0%)    0.008 s ( 0.004 ms/b)
<pd|dg>:          624 b            4 skpd (  0.6%)    0.010 s ( 0.016 ms/b)
<pd|ff>:          468 b            1 skpd (  0.2%)    0.005 s ( 0.010 ms/b)
<pd|fg>:          234 b            0 skpd (  0.0%)    0.006 s ( 0.028 ms/b)
<pd|gg>:           78 b            0 skpd (  0.0%)    0.009 s ( 0.117 ms/b)
<pf|pf>:          435 b            4 skpd (  0.9%)    0.002 s ( 0.004 ms/b)
<pf|pg>:          290 b           30 skpd ( 10.3%)    0.003 s ( 0.013 ms/b)
<pf|dd>:         1044 b            9 skpd (  0.9%)    0.008 s ( 0.008 ms/b)
<pf|df>:          696 b           32 skpd (  4.6%)    0.004 s ( 0.006 ms/b)
<pf|dg>:          232 b            4 skpd (  1.7%)    0.005 s ( 0.021 ms/b)
<pf|ff>:          174 b            1 skpd (  0.6%)    0.003 s ( 0.016 ms/b)
<pf|fg>:           87 b            0 skpd (  0.0%)    0.004 s ( 0.041 ms/b)
<pf|gg>:           29 b            0 skpd (  0.0%)    0.005 s ( 0.159 ms/b)
<pg|pg>:           55 b           10 skpd ( 18.2%)    0.001 s ( 0.024 ms/b)
<pg|dd>:          360 b           34 skpd (  9.4%)    0.006 s ( 0.018 ms/b)
<pg|df>:          240 b           34 skpd ( 14.2%)    0.002 s ( 0.009 ms/b)
<pg|dg>:           80 b            9 skpd ( 11.2%)    0.003 s ( 0.037 ms/b)
<pg|ff>:           60 b            6 skpd ( 10.0%)    0.001 s ( 0.021 ms/b)
<pg|fg>:           30 b            3 skpd ( 10.0%)    0.002 s ( 0.071 ms/b)
<pg|gg>:           10 b            1 skpd ( 10.0%)    0.002 s ( 0.257 ms/b)
<dd|dd>:          666 b            2 skpd (  0.3%)    0.014 s ( 0.021 ms/b)
<dd|df>:          864 b           19 skpd (  2.2%)    0.006 s ( 0.008 ms/b)
<dd|dg>:          288 b            2 skpd (  0.7%)    0.008 s ( 0.029 ms/b)
<dd|ff>:          216 b            1 skpd (  0.5%)    0.004 s ( 0.018 ms/b)
<dd|fg>:          108 b            1 skpd (  0.9%)    0.005 s ( 0.051 ms/b)
<dd|gg>:           36 b            0 skpd (  0.0%)    0.008 s ( 0.215 ms/b)
<df|df>:          300 b           19 skpd (  6.3%)    0.004 s ( 0.015 ms/b)
<df|dg>:          192 b            8 skpd (  4.2%)    0.006 s ( 0.032 ms/b)
<df|ff>:          144 b            6 skpd (  4.2%)    0.004 s ( 0.028 ms/b)
<df|fg>:           72 b            3 skpd (  4.2%)    0.005 s ( 0.071 ms/b)
<df|gg>:           24 b            1 skpd (  4.2%)    0.006 s ( 0.282 ms/b)
<dg|dg>:           36 b            1 skpd (  2.8%)    0.004 s ( 0.102 ms/b)
<dg|ff>:           48 b            0 skpd (  0.0%)    0.002 s ( 0.037 ms/b)
<dg|fg>:           24 b            0 skpd (  0.0%)    0.003 s ( 0.119 ms/b)
<dg|gg>:            8 b            0 skpd (  0.0%)    0.004 s ( 0.452 ms/b)
<ff|ff>:           21 b            0 skpd (  0.0%)    0.001 s ( 0.051 ms/b)
<ff|fg>:           18 b            0 skpd (  0.0%)    0.002 s ( 0.106 ms/b)
<ff|gg>:            6 b            0 skpd (  0.0%)    0.003 s ( 0.487 ms/b)
<fg|fg>:            6 b            0 skpd (  0.0%)    0.001 s ( 0.237 ms/b)
<fg|gg>:            3 b            0 skpd (  0.0%)    0.002 s ( 0.667 ms/b)
<gg|gg>:            1 b            0 skpd (  0.0%)    0.001 s ( 1.128 ms/b)
Recanonicalizing the internal orbitals
Recanonicalizing the virtual orbitals
Time needed for Fock operator              ...            0.418 sec
Reference energy                           ...  -3722.347794619
Warning: for UHF the TrafoType has to be JK
Warning: for UHF the K(C)-option cannot be MO but must be AOX

-------------------------------
PARTIAL EXCHANGE TRANSFORMATION
-------------------------------

Transformation type                        ... two-operators
Generation of integrals (i,mue|j,nue)      ... ON
Generation of integrals (mue,kappa|nue,tau)... ON
Generation of integrals (i,mue|a,nue)      ... ON
Dimension of the basis                     ...  112
Number of internal alpha-MOs               ...   19 (  14-  32)
Number of internal beta-MOs                ...   13 (  14-  26)
Number of external alpha-MOs               ...   79 (  33- 111)
Number of external beta-MOs                ...   85 (  27- 111)
Pair cutoff                                ... 0.000e+00 Eh
Number of AO pairs in the trafo            ... 6328
Total Number of distinct AO pairs          ... 6328
Memory devoted for trafo                   ... 2500.0 MB 
Max. Number of MO pairs treated together   ... 26122      
Number Format for Storage                  ... Double (8 Byte)
Integral package used                      ... LIBINT

Starting integral evaluation:
    ... done with AO integral generation
Closing buffer AOK[aa] ( 0.00 GB; CompressionRatio= 1.00)
Closing buffer AOK[bb] ( 0.00 GB; CompressionRatio= 0.99)
Closing buffer AOK[ab] ( 0.00 GB; CompressionRatio= 0.99)
Closing buffer AOK[ba] ( 0.00 GB; CompressionRatio= 0.99)
Collecting buffer AOK 
Closing buffer IAAO1[aa] ( 0.00 GB; CompressionRatio= 1.00)
Closing buffer IAAO1[bb] ( 0.00 GB; CompressionRatio= 1.00)
Closing buffer IAAO1[ab] ( 0.00 GB; CompressionRatio= 1.00)
Closing buffer IAAO1[ba] ( 0.00 GB; CompressionRatio= 1.00)
Closing buffer IAAO2[aa] ( 0.00 GB; CompressionRatio= 1.00)
Closing buffer IAAO2[bb] ( 0.00 GB; CompressionRatio= 1.00)
Closing buffer IAAO2[ab] ( 0.00 GB; CompressionRatio= 1.00)
Closing buffer IAAO2[ba] ( 0.00 GB; CompressionRatio= 1.00)
Collecting buffer IAAO 
Closing buffer PRQS    ( 0.01 GB; CompressionRatio= 1.00)
Collecting buffer PRQS 
Number of alpha/alpha MO pairs in trafo    ...  190
Number of beta /beta  MO pairs in trafo    ...   91
Number of alpha/ beta MO pairs in trafo    ...  247
------------------------
SORTING OF (i,mue|j,nue)
------------------------

SORTING OF ALPHA/ALPHA PAIRS
IBATCH = 1 of  1
Closing buffer KAO[aa] ( 0.00 GB; CompressionRatio= 1.00)
Collecting buffer KAO 
SORTING OF BETA /BETA  PAIRS
IBATCH = 1 of  1
Closing buffer KAO[bb] ( 0.00 GB; CompressionRatio= 1.00)
Collecting buffer KAO 
SORTING OF ALPHA/BETA  PAIRS
IBATCH = 1 of  1
Closing buffer KAO[ab] ( 0.00 GB; CompressionRatio= 0.999880435216)
Collecting buffer KAO[ab] 
------------------------
SORTING OF (i,mue|a,nue)
------------------------

Number of alpha/alpha (i,a) pairs in trafo  ... 1501
Number of beta /beta  (i,a) pairs in trafo  ... 1105
Number of alpha/ beta (i,a) pairs in trafo  ... 1615
Number of beta /alpha (i,a) pairs in trafo  ... 1027
Setting up the alpha/alpha list             ... done
Setting up the beta /beta  list             ... done
Setting up the alpha/beta  list             ... done
Setting up the beta /alpha list             ... done
    ... Now sorting (i,mue|a,nue)integrals
    ... Integrals (i,b|a,c) will be made on the fly
SORTING OF ALPHA/ALPHA PAIRS
IBATCH = 1 of  1
Closing buffer IPAQ[aa]  0.00 GB; CompressionRatio= 1.00)
SORTING OF BETA /BETA  PAIRS
IBATCH = 1 of  1
Closing buffer IPAQ[bb]( 0.00 GB; CompressionRatio= 1.00)
SORTING OF ALPHA/BETA  PAIRS (NMatSort_ab=68)
IBATCH = 1 of  1
Closing buffer IPAQ[ab]( 0.00 GB; CompressionRatio= 1.00)
SORTING OF BETA/ALPHA  PAIRS
IBATCH = 1 of  1
Closing buffer IPAQ[ba]( 0.00 GB; CompressionRatio= 1.00)
N(AO-Batches) Done                         ...     11524 
N(AO-Batches) Skipped                      ...         0 
N(IJ)-pairs Skipped                        ...         0 
TOTAL TIME for half transformation         ...     2.117 sec
AO-integral generation                     ...     0.144 sec
Half transformation                        ...     0.032 sec
K-integral sorting                         ...     1.181 sec
<ss|**>: 
------------------------------
PARTIAL COULOMB TRANSFORMATION
------------------------------

Transformation type                        ... two-operators
Dimension of the basis                     ...  112
Number of internal alpha-MOs               ...   19 (14-32)
Number of internal beta-MOs                ...   13 (14-26)
Pair cutoff                                ... 0.000e+00 Eh
Number of AO pairs included in the trafo   ... 6327
Total Number of distinct AO pairs          ... 6328
Memory devoted for trafo                   ... 2500.0 MB 
Max. Number of MO pairs treated together   ... 51782      
Max. Number of MOs treated per batch       ...  462      
Number Format for Storage                  ... Double (8 Byte)
AO-integral source                         ... DIRECT
Integral package used                      ... LIBINT

Starting integral evaluation:
<sp|**>:        38352 b        0 skpd     0.014 s (  0.000 ms/b)
<sd|**>:        62604 b        0 skpd     0.024 s (  0.000 ms/b)
       51888 b        0 skpd     0.047 s (  0.001 ms/b)
<sf|**>:        18612 b        0 skpd     0.016 s (  0.001 ms/b)
<sg|**>:         6204 b        0 skpd     0.026 s (  0.004 ms/b)
<pp|**>:        30456 b        0 skpd     0.041 s (  0.001 ms/b)
<pd|**>:        43992 b        0 skpd     0.082 s (  0.002 ms/b)
<pf|**>:        16356 b        0 skpd     0.034 s (  0.002 ms/b)
<pg|**>:         5640 b        0 skpd     0.040 s (  0.007 ms/b)
<dd|**>:        20304 b        0 skpd     0.098 s (  0.005 ms/b)
<df|**>:        13536 b        0 skpd     0.038 s (  0.003 ms/b)
<dg|**>:         4512 b        0 skpd     0.050 s (  0.011 ms/b)
<ff|**>:         3384 b        0 skpd     0.021 s (  0.006 ms/b)
<fg|**>:         1692 b        0 skpd     0.030 s (  0.018 ms/b)
<gg|**>:          564 b        0 skpd     0.045 s (  0.080 ms/b)
Closing buffer AOJ[aa] ( 0.00 GB; CompressionRatio= 0.99)
Closing buffer AOJ[bb] ( 0.00 GB; CompressionRatio= 0.00)
Collecting buffer AOJ 
    ... done with AO integral generation
Number of Alpha-MO pairs included          ...  190
Number of Beta-MO pairs included           ...   91
    ... Now sorting integrals
SORTING ALPHA/ALPHA PAIRS
IBATCH = 1 of  1
Closing buffer JAO[aa] ( 0.00 GB; CompressionRatio= 1.00)
SORTING BETA/BETA PAIRS
IBATCH = 1 of  1
Closing buffer JAO[bb] ( 0.00 GB; CompressionRatio= 1.00)
Collecting buffer JAO 
TOTAL TIME for half transformation         ...     0.649 sec
AO-integral generation                     ...     0.603 sec
Half transformation                        ...     0.016 sec
J-integral sorting                         ...     0.020 sec

-------------------------- SECOND HALF TRANSFORMATION -------------------------
Formation of (ij|kl),(ij|ka), (ij|ab)      ... ok (     0.102 sec)
Formation of (ik|jl),(ik|ja), (ia|jb)      ... ok (     0.181 sec)


-----------------------
SPIN UNRESTRICTED GUESS
-----------------------

Entering MDCI_UHF_Guess, Tailored=0
Spin-components of the MP2 energy:
EMP2(aa)=     -0.177061356
EMP2(bb)=     -0.075061492
EMP2(ab)=     -0.452597051

Initial guess performed in     0.078 sec
E(0)                                       ...  -3722.347794619
E(MP2)                                     ...     -0.704719898
Initial E(tot)                             ...  -3723.052514518
<T|T>                                      ...      0.144602614
Number of pairs included                   ... 496

------------------------------------------------
                  UHF COUPLED CLUSTER ITERATIONS
------------------------------------------------

Number of amplitudes to be optimized       ...      2475163

Iter       E(tot)           E(Corr)          Delta-E          Residual     Time      <S|S>**1/2
  0  -3723.052514518     -0.704719898      0.000000000      0.019300803    1.90      0.000000022
                           *** Turning on DIIS ***
  1  -3723.045039557     -0.697244937      0.007474961      0.005820367    2.06      0.039613625
  2  -3723.056265034     -0.708470415     -0.011225478      0.003798038    2.14      0.048487071
  3  -3723.058527448     -0.710732829     -0.002262414      0.002193233    2.16      0.060828895
  4  -3723.059451168     -0.711656548     -0.000923720      0.001455318    2.17      0.068973140
  5  -3723.059935486     -0.712140867     -0.000484319      0.000536530    2.23      0.076570255
  6  -3723.060027728     -0.712233108     -0.000092241      0.000268327    2.25      0.078791534
  7  -3723.060057499     -0.712262880     -0.000029771      0.000110268    2.28      0.079228297
  8  -3723.060056395     -0.712261776      0.000001104      0.000063148    2.28      0.079176146
  9  -3723.060056249     -0.712261630      0.000000146      0.000033472    2.20      0.079149285
 10  -3723.060056051     -0.712261431      0.000000198      0.000013044    2.22      0.079127719
 11  -3723.060055222     -0.712260603      0.000000828      0.000003588    2.22      0.079120154
 12  -3723.060055573     -0.712260954     -0.000000351      0.000001663    2.19      0.079120103
 13  -3723.060055640     -0.712261020     -0.000000066      0.000000537    2.20      0.079120974
               --- The Coupled-Cluster iterations have converged ---

----------------------
COUPLED CLUSTER ENERGY
----------------------

E(0)                                       ...  -3722.347794619
E(CORR)                                    ...     -0.712261020
E(TOT)                                     ...  -3723.060055640
Singles norm <S|S>**1/2                    ...      0.079120974 ( 0.046177332, 0.032943642)  
T1 diagnostic                              ...      0.013986744                              

------------------
LARGEST AMPLITUDES
------------------
  32a-> 36a  -1a-> -1a       0.039784
  25b-> 34b  -1b-> -1b       0.031442
  26b-> 33b  -1b-> -1b       0.031442
  30a-> 48a  25b-> 45b       0.030997
  31a-> 48a  26b-> 45b       0.030997
  31a-> 49a  26b-> 46b       0.030997
  30a-> 49a  25b-> 46b       0.030997
  24b-> 36b  -1b-> -1b       0.030320
  31a-> 48a  30a-> 49a       0.029305
  31a-> 49a  30a-> 48a       0.029305
  26b-> 45b  25b-> 46b       0.028762
  26b-> 46b  25b-> 45b       0.028762
  24b-> 39b  -1b-> -1b       0.025087
  29a-> 45a  24b-> 47b       0.022150
  24b-> 27b  -1b-> -1b       0.022122
  29a-> 36a  -1a-> -1a       0.021736

----------------------
UHF TRIPLES CORRECTION (Algorithm 1)
----------------------

Multiplier for the singles contribution    ...      1.000000000

SPIN-CASE Alpha-Alpha-Alpha:
10% done
20% done
30% done
40% done
50% done
60% done
70% done
80% done
90% done


SPIN-CASE Beta-Beta-Beta:
10% done
20% done
30% done
40% done
50% done
60% done
70% done
80% done
90% done


SPIN-CASE Alpha-Alpha-Beta:
10% done
20% done
30% done
40% done
50% done
60% done
70% done
80% done
90% done


SPIN-CASE Beta-Beta-Alpha:
10% done
20% done
30% done
40% done
50% done
60% done
70% done
80% done
90% done


Triples Correction (T)                     ...     -0.019796656
    alpha-alpha-alpha ... -0.001983625 ( 10.0%)
    alpha-alpha-beta  ... -0.010331047 ( 52.2%)
    alpha-beta -beta  ... -0.006979348 ( 35.3%)
    beta -beta -beta  ... -0.000502637 (  2.5%)
Scaling of triples based on CCSD energies (Peterson et al. Molecular Physics 113, 1551 (2015))
E(T*) = f*E(T) where f = E(F12-CCSD)/E(CCSD) 
f = CCSD (with F12)/ CCSD (without F12)    ...      1.000000000
Scaled triples correction (T)              ...     -0.019796656

Final correlation energy                   ...     -0.732057677
E(CCSD)                                    ...  -3723.060055640
E(CCSD(T))                                 ...  -3723.079852296



        !!!!!!!!!!!!!!!!!!!!!!!!!!!!!!!!!!!!!!!!!!!!!!!!!!!!!!!!!!!!!!!!!!!!!!!!!! 
        !  Warning: Densities are linearized densities                           !
        !!!!!!!!!!!!!!!!!!!!!!!!!!!!!!!!!!!!!!!!!!!!!!!!!!!!!!!!!!!!!!!!!!!!!!!!!! 

NORM  =      1.169768391 sqrt=     1.081558316
W(HF) =      0.854870082
------------------------------------------------------------------------------
                           ORCA POPULATION ANALYSIS
------------------------------------------------------------------------------
Input electron density              ... 28_MnBr.mdcip
Input spin density                  ... 28_MnBr.mdcir
BaseName (.gbw .S,...)              ... 28_MnBr

                    ********************************
                    * MULLIKEN POPULATION ANALYSIS *
                    ********************************

------------------------------------------
MULLIKEN ATOMIC CHARGES AND SPIN DENSITIES
------------------------------------------
   0 Mn:    0.467486    5.941972
   1 Br:   -0.467486    0.058028
Sum of atomic charges       :   -0.0000000
Sum of atomic spin densities:    6.0000000

---------------------------------------------------
MULLIKEN REDUCED ORBITAL CHARGES AND SPIN DENSITIES
---------------------------------------------------
CHARGE
  0 Mns       :     6.961021  s :     6.961021
      pz      :     4.317419  p :    12.415767
      px      :     4.049174
      py      :     4.049174
      dz2     :     1.043587  d :     5.123873
      dxz     :     1.038549
      dyz     :     1.038549
      dx2y2   :     1.001594
      dxy     :     1.001594
      f0      :     0.005026  f :     0.029029
      f+1     :     0.004432
      f-1     :     0.004432
      f+2     :     0.003816
      f-2     :     0.003816
      f+3     :     0.003754
      f-3     :     0.003754
      g0      :     0.000323  g :     0.002824
      g+1     :     0.000319
      g-1     :     0.000319
      g+2     :     0.000313
      g-2     :     0.000313
      g+3     :     0.000310
      g-3     :     0.000310
      g+4     :     0.000308
      g-4     :     0.000308
  1 Brs       :     7.931549  s :     7.931549
      pz      :     5.671371  p :    17.403572
      px      :     5.866100
      py      :     5.866100
      dz2     :     2.027280  d :    10.116138
      dxz     :     2.025468
      dyz     :     2.025468
      dx2y2   :     2.018961
      dxy     :     2.018961
      f0      :     0.003038  f :     0.016227
      f+1     :     0.002611
      f-1     :     0.002611
      f+2     :     0.002052
      f-2     :     0.002052
      f+3     :     0.001931
      f-3     :     0.001931

SPIN
  0 Mns       :     0.785121  s :     0.785121
      pz      :     0.244566  p :     0.295762
      px      :     0.025598
      py      :     0.025598
      dz2     :     0.934478  d :     4.839059
      dxz     :     0.962755
      dyz     :     0.962755
      dx2y2   :     0.989535
      dxy     :     0.989535
      f0      :     0.002794  f :     0.020271
      f+1     :     0.002836
      f-1     :     0.002836
      f+2     :     0.002932
      f-2     :     0.002932
      f+3     :     0.002970
      f-3     :     0.002970
      g0      :     0.000194  g :     0.001760
      g+1     :     0.000195
      g-1     :     0.000195
      g+2     :     0.000195
      g-2     :     0.000195
      g+3     :     0.000196
      g-3     :     0.000196
      g+4     :     0.000196
      g-4     :     0.000196
  1 Brs       :     0.000731  s :     0.000731
      pz      :     0.029841  p :     0.056577
      px      :     0.013368
      py      :     0.013368
      dz2     :     0.000207  d :     0.000196
      dxz     :    -0.000179
      dyz     :    -0.000179
      dx2y2   :     0.000173
      dxy     :     0.000173
      f0      :     0.000230  f :     0.000525
      f+1     :     0.000103
      f-1     :     0.000103
      f+2     :     0.000035
      f-2     :     0.000035
      f+3     :     0.000010
      f-3     :     0.000010


                     *******************************
                     * LOEWDIN POPULATION ANALYSIS *
                     *******************************

-----------------------------------------
LOEWDIN ATOMIC CHARGES AND SPIN DENSITIES
-----------------------------------------
   0 Mn:    0.027837    5.898419
   1 Br:   -0.027837    0.101581

--------------------------------------------------
LOEWDIN REDUCED ORBITAL CHARGES AND SPIN DENSITIES
--------------------------------------------------
CHARGE
  0 Mns       :     6.929978  s :     6.929978
      pz      :     4.488810  p :    12.632048
      px      :     4.071619
      py      :     4.071619
      dz2     :     1.174368  d :     5.375065
      dxz     :     1.098750
      dyz     :     1.098750
      dx2y2   :     1.001599
      dxy     :     1.001599
      f0      :     0.007126  f :     0.032223
      f+1     :     0.004977
      f-1     :     0.004977
      f+2     :     0.003818
      f-2     :     0.003818
      f+3     :     0.003754
      f-3     :     0.003754
      g0      :     0.000338  g :     0.002849
      g+1     :     0.000324
      g-1     :     0.000324
      g+2     :     0.000313
      g-2     :     0.000313
      g+3     :     0.000310
      g-3     :     0.000310
      g+4     :     0.000308
      g-4     :     0.000308
  1 Brs       :     7.643471  s :     7.643471
      pz      :     5.667450  p :    17.234668
      px      :     5.783609
      py      :     5.783609
      dz2     :     2.045102  d :    10.132085
      dxz     :     2.024551
      dyz     :     2.024551
      dx2y2   :     2.018941
      dxy     :     2.018941
      f0      :     0.003972  f :     0.017613
      f+1     :     0.002824
      f-1     :     0.002824
      f+2     :     0.002065
      f-2     :     0.002065
      f+3     :     0.001931
      f-3     :     0.001931

SPIN
  0 Mns       :     0.717647  s :     0.717647
      pz      :     0.284551  p :     0.336250
      px      :     0.025850
      py      :     0.025850
      dz2     :     0.930362  d :     4.822280
      dxz     :     0.956529
      dyz     :     0.956529
      dx2y2   :     0.989430
      dxy     :     0.989430
      f0      :     0.002985  f :     0.020480
      f+1     :     0.002846
      f-1     :     0.002846
      f+2     :     0.002932
      f-2     :     0.002932
      f+3     :     0.002970
      f-3     :     0.002970
      g0      :     0.000196  g :     0.001762
      g+1     :     0.000195
      g-1     :     0.000195
      g+2     :     0.000196
      g-2     :     0.000196
      g+3     :     0.000196
      g-3     :     0.000196
      g+4     :     0.000196
      g-4     :     0.000196
  1 Brs       :     0.005044  s :     0.005044
      pz      :     0.047455  p :     0.079582
      px      :     0.016063
      py      :     0.016063
      dz2     :     0.008908  d :     0.014880
      dxz     :     0.002725
      dyz     :     0.002725
      dx2y2   :     0.000261
      dxy     :     0.000261
      f0      :     0.001013  f :     0.002076
      f+1     :     0.000470
      f-1     :     0.000470
      f+2     :     0.000051
      f-2     :     0.000051
      f+3     :     0.000010
      f-3     :     0.000010


                      *****************************
                      * MAYER POPULATION ANALYSIS *
                      *****************************

  NA   - Mulliken gross atomic population
  ZA   - Total nuclear charge
  QA   - Mulliken gross atomic charge
  VA   - Mayer's total valence
  BVA  - Mayer's bonded valence
  FA   - Mayer's free valence

  ATOM       NA         ZA         QA         VA         BVA        FA
  0 Mn    24.5325    25.0000     0.4675     7.0687     0.8677     6.2010
  1 Br    35.4675    35.0000    -0.4675     1.5592     0.8677     0.6915

  Mayer bond orders larger than 0.100000
B(  0-Mn,  1-Br) :   0.8677 



------------------------------------------------------------------------------- 
                                     TIMINGS                                   
------------------------------------------------------------------------------- 


Total execution time                   ...       43.078 sec

Fock Matrix Formation                  ...        0.418 sec (  1.0%)
Initial Guess                          ...        0.078 sec (  0.2%)
DIIS Solver                            ...        2.920 sec (  6.8%)
State Vector Update                    ...        0.137 sec (  0.3%)
Sigma-vector construction              ...       27.431 sec ( 63.7%)
  <0|H|D>                              ...        0.007 sec (  0.0% of sigma)
  <D|H|D>(0-ext Fock)                  ...        0.091 sec (  0.3% of sigma)
  <D|H|D>(0-ext)                       ...        0.742 sec (  2.7% of sigma)
  <D|H|D>(2-ext Fock)                  ...        0.014 sec (  0.1% of sigma)
  <D|H|D>(2-ext)                       ...        1.178 sec (  4.3% of sigma)
  <D|H|D>(4-ext)                       ...       10.592 sec ( 38.6% of sigma)
  <S|H|0>                              ...        2.017 sec (  7.4% of sigma)
  <S|H|S>                              ...        0.003 sec (  0.0% of sigma)
  <S|H|D>(1-ext)                       ...        0.023 sec (  0.1% of sigma)
  <D|H|S>(1-ext)                       ...        0.230 sec (  0.8% of sigma)
  Fock-dressing                        ...        4.108 sec ( 15.0% of sigma)
  (ik|jl)-dressing                     ...        1.100 sec (  4.0% of sigma)
  (ij|ab),(ia|jb)-dressing             ...        5.758 sec ( 21.0% of sigma)
  Pair energies                        ...        0.009 sec (  0.0% of sigma)
Total Time for computing (T)           ...        8.248 sec ( 19.1% of ALL)
  I/O of integral and amplitudes       ...        1.736 sec ( 21.0% of (T))
  External N**7 contributions          ...        2.211 sec ( 26.8% of (T))
  Internal N**7 contributions          ...        1.235 sec ( 15.0% of (T))
  N**6 triples energy contributions    ...        2.932 sec ( 35.5% of (T))

----- Orbital basis set information -----
Your calculation utilizes the basis: def2-QZVPP
   F. Weigend and R. Ahlrichs, Phys. Chem. Chem. Phys. 7, 3297 (2005).

----- AuxJ basis set information -----
Your calculation utilizes the auxiliary basis: def2/J
   F. Weigend, Phys. Chem. Chem. Phys. 8, 1057 (2006).

----- AuxC basis set information -----
Your calculation utilizes the auxiliary basis: def2-QZVPP/C
  H-La, Hf-Rn : A. Hellweg, C. Hattig, S. Hofener and W. Klopper, Theor. Chem. Acc. 117, 587 (2007).
        Ce-Lu : J. Chmela and M. E. Harding, Mol. Phys. (2018).

----- AuxJK basis set information -----
Your calculation utilizes the auxiliary basis: def2/JK
   H-Ba, Hf-Rn: F. Weigend, J. Comput. Chem. 29, 167 (2008).

All done

                     -----------------------------------------
                     Extrapolated Energy 2 Basis=  def2-QZVPP
                     -----------------------------------------

---------------------------------
CARTESIAN COORDINATES (ANGSTROEM)
---------------------------------
  Mn     0.000000    0.000000   -0.188976
  Br     0.000000    0.000000    2.188976

----------------------------
CARTESIAN COORDINATES (A.U.)
----------------------------
  NO LB      ZA    FRAG     MASS         X           Y           Z
   0 Mn   25.0000    0    54.940    0.000000    0.000000   -0.357113
   1 Br   35.0000    0    79.900    0.000000    0.000000    4.136566

--------------------------------
INTERNAL COORDINATES (ANGSTROEM)
--------------------------------
 Mn     0   0   0     0.000000000000     0.00000000     0.00000000
 Br     1   0   0     2.377952445926     0.00000000     0.00000000

---------------------------
INTERNAL COORDINATES (A.U.)
---------------------------
 Mn     0   0   0     0.000000000000     0.00000000     0.00000000
 Br     1   0   0     4.493678882289     0.00000000     0.00000000

---------------------
BASIS SET INFORMATION
---------------------
There are 2 groups of distinct atoms

 Group   1 Type Mn  : 24s18p10d4f2g contracted to 11s6p5d4f2g pattern {114111111111/951111/61111/1111/11}
 Group   2 Type Br  : 24s20p10d4f1g contracted to 11s7p4d4f1g pattern {114111111111/10511111/7111/1111/1}

Atom   0Mn   basis set group =>   1
Atom   1Br   basis set group =>   2
---------------------------------
AUXILIARY/J BASIS SET INFORMATION
---------------------------------
There are 2 groups of distinct atoms

 Group   1 Type Mn  : 19s5p5d3f3g contracted to 8s5p5d2f3g pattern {121111111/11111/11111/21/111}
 Group   2 Type Br  : 19s5p5d3f1g contracted to 8s4p3d2f1g pattern {121111111/2111/311/21/1}

Atom   0Mn   basis set group =>   1
Atom   1Br   basis set group =>   2
---------------------------------
AUXILIARY/C BASIS SET INFORMATION
---------------------------------
There are 2 groups of distinct atoms

 Group   1 Type Mn  : 15s13p11d8f7g5h2i contracted to 15s13p11d8f7g5h2i pattern {111111111111111/1111111111111/11111111111/11111111/1111111/11111/11}
 Group   2 Type Br  : 13s12p11d9f7g5h1i contracted to 13s12p11d9f7g5h1i pattern {1111111111111/111111111111/11111111111/111111111/1111111/11111/1}

Atom   0Mn   basis set group =>   1
Atom   1Br   basis set group =>   2
----------------------------------
AUXILIARY/JK BASIS SET INFORMATION
----------------------------------
There are 2 groups of distinct atoms

 Group   1 Type Mn  : 19s14p12d10f7g3h1i contracted to 16s13p11d9f5g3h1i pattern {4111111111111111/2111111111111/21111111111/211111111/31111/111/1}
 Group   2 Type Br  : 20s14p13d10f7g3h contracted to 17s13p12d9f6g3h pattern {41111111111111111/2111111111111/211111111111/211111111/211111/111}

Atom   0Mn   basis set group =>   1
Atom   1Br   basis set group =>   2

Checking for AutoStart:
The File: 28_MnBr.gbw exists
Trying to determine its content:
     ... Fine, the file contains calculation information
     ... Fine, the calculation information was read
     ... Fine, the file contains a basis set
     ... Fine, the basis set was read
     ... Fine, the file contains a geometry
     ... Fine, the geometry was read
     ... Fine, the file contains a set of orbitals
     ... Fine, the orbitals can be read
     => possible old guess file was deleted
     => GBW file was renamed to GES file
     => GES file is set as startup file
     => Guess is set to MORead
     ... now leaving AutoStart



           ************************************************************
           *        Program running with 24 parallel MPI-processes    *
           *              working on a common directory               *
           ************************************************************
------------------------------------------------------------------------------
                           ORCA GTO INTEGRAL CALCULATION
------------------------------------------------------------------------------

                         BASIS SET STATISTICS AND STARTUP INFO

 # of primitive gaussian shells          ...  117
 # of primitive gaussian functions       ...  345
 # of contracted shells                  ...   55
 # of contracted basis functions         ...  189
 Highest angular momentum                ...    4
 Maximum contraction depth               ...   11
 Integral package used                   ... LIBINT
 Integral threshhold            Thresh   ...  1.000e-12
 Primitive cut-off              TCut     ...  1.000e-14


------------------------------ INTEGRAL EVALUATION ----------------------------


 * One electron integrals 
 Pre-screening matrix                    ... done
 Shell pair data                         ... done (   0.000 sec)



           ************************************************************
           *        Program running with 24 parallel MPI-processes    *
           *              working on a common directory               *
           ************************************************************
-------------------------------------------------------------------------------
                                 ORCA SCF
[...]
  5  -3723.445413728     -1.025427871     -0.000550870      0.000448520   18.85      0.078012952
  6  -3723.445515991     -1.025530135     -0.000102264      0.000223944   18.77      0.080506035
  7  -3723.445542918     -1.025557062     -0.000026927      0.000086862   17.11      0.081031957
  8  -3723.445547597     -1.025561741     -0.000004679      0.000060093   18.42      0.081063374
  9  -3723.445546141     -1.025560284      0.000001456      0.000030694   18.32      0.081027316
 10  -3723.445546218     -1.025560362     -0.000000077      0.000012341   18.62      0.080998939
 11  -3723.445545365     -1.025559509      0.000000853      0.000003823   18.75      0.080989407
 12  -3723.445545571     -1.025559714     -0.000000205      0.000001672   18.73      0.080986785
 13  -3723.445545645     -1.025559789     -0.000000075      0.000000595   18.69      0.080986778
               --- The Coupled-Cluster iterations have converged ---

----------------------
COUPLED CLUSTER ENERGY
----------------------

E(0)                                       ...  -3722.419985856
E(CORR)                                    ...     -1.025559789
E(TOT)                                     ...  -3723.445545645
Singles norm <S|S>**1/2                    ...      0.080986778 ( 0.048874757, 0.032112021)  
T1 diagnostic                              ...      0.014316575                              

------------------
LARGEST AMPLITUDES
------------------
  32a-> 35a  -1a-> -1a       0.029818
  24b-> 44b  -1b-> -1b       0.027102
  25b-> 40b  -1b-> -1b       0.025499
  26b-> 41b  -1b-> -1b       0.025499
  24b-> 45b  -1b-> -1b       0.024936
  32a-> 41a  -1a-> -1a       0.023343
  32a-> 48a  -1a-> -1a       0.023110
  32a-> 44a  -1a-> -1a       0.022127
  24b-> 36b  -1b-> -1b       0.021091
  26b-> 38b  -1b-> -1b       0.019033
  25b-> 37b  -1b-> -1b       0.019033
  24b-> 27b  -1b-> -1b       0.017469
  21b-> 42b  20b-> 43b       0.017047
  21b-> 43b  20b-> 42b       0.017047
  26b-> 49b  25b-> 48b       0.016682
  26b-> 48b  25b-> 49b       0.016682

----------------------
UHF TRIPLES CORRECTION (Algorithm 1)
----------------------

Multiplier for the singles contribution    ...      1.000000000

SPIN-CASE Alpha-Alpha-Alpha:
10% done
20% done
30% done
40% done
50% done
60% done
70% done
80% done
90% done


SPIN-CASE Beta-Beta-Beta:
10% done
20% done
30% done
40% done
50% done
60% done
70% done
80% done
90% done


SPIN-CASE Alpha-Alpha-Beta:
10% done
20% done
30% done
40% done
50% done
60% done
70% done
80% done
90% done


SPIN-CASE Beta-Beta-Alpha:
10% done
20% done
30% done
40% done
50% done
60% done
70% done
80% done
90% done


Triples Correction (T)                     ...     -0.025937712
    alpha-alpha-alpha ... -0.002603647 ( 10.0%)
    alpha-alpha-beta  ... -0.013358492 ( 51.5%)
    alpha-beta -beta  ... -0.009263440 ( 35.7%)
    beta -beta -beta  ... -0.000712133 (  2.7%)
Scaling of triples based on CCSD energies (Peterson et al. Molecular Physics 113, 1551 (2015))
E(T*) = f*E(T) where f = E(F12-CCSD)/E(CCSD) 
f = CCSD (with F12)/ CCSD (without F12)    ...      1.000000000
Scaled triples correction (T)              ...     -0.025937712

Final correlation energy                   ...     -1.051497501
E(CCSD)                                    ...  -3723.445545645
E(CCSD(T))                                 ...  -3723.471483357



        !!!!!!!!!!!!!!!!!!!!!!!!!!!!!!!!!!!!!!!!!!!!!!!!!!!!!!!!!!!!!!!!!!!!!!!!!! 
        !  Warning: Densities are linearized densities                           !
        !!!!!!!!!!!!!!!!!!!!!!!!!!!!!!!!!!!!!!!!!!!!!!!!!!!!!!!!!!!!!!!!!!!!!!!!!! 

NORM  =      1.182901873 sqrt=     1.087612924
W(HF) =      0.845378660
------------------------------------------------------------------------------
                           ORCA POPULATION ANALYSIS
------------------------------------------------------------------------------
Input electron density              ... 28_MnBr.mdcip
Input spin density                  ... 28_MnBr.mdcir
BaseName (.gbw .S,...)              ... 28_MnBr

                    ********************************
                    * MULLIKEN POPULATION ANALYSIS *
                    ********************************

------------------------------------------
MULLIKEN ATOMIC CHARGES AND SPIN DENSITIES
------------------------------------------
   0 Mn:    0.444386    5.934604
   1 Br:   -0.444386    0.065396
Sum of atomic charges       :    0.0000000
Sum of atomic spin densities:    6.0000000

---------------------------------------------------
MULLIKEN REDUCED ORBITAL CHARGES AND SPIN DENSITIES
---------------------------------------------------
CHARGE
  0 Mns       :     6.962535  s :     6.962535
      pz      :     4.295180  p :    12.397036
      px      :     4.050928
      py      :     4.050928
      dz2     :     1.040446  d :     5.136867
      dxz     :     1.047001
      dyz     :     1.047001
      dx2y2   :     1.001209
      dxy     :     1.001209
      f0      :     0.008027  f :     0.055228
      f+1     :     0.014868
      f-1     :     0.014868
      f+2     :     0.004586
      f-2     :     0.004586
      f+3     :     0.004146
      f-3     :     0.004146
      g0      :     0.000517  g :     0.003947
      g+1     :     0.000481
      g-1     :     0.000481
      g+2     :     0.000425
      g-2     :     0.000425
      g+3     :     0.000409
      g-3     :     0.000409
      g+4     :     0.000399
      g-4     :     0.000399
  1 Brs       :     7.952104  s :     7.952104
      pz      :     5.665828  p :    17.354105
      px      :     5.844138
      py      :     5.844138
      dz2     :     2.024579  d :    10.096503
      dxz     :     2.020976
      dyz     :     2.020976
      dx2y2   :     2.014986
      dxy     :     2.014986
      f0      :     0.006235  f :     0.037744
      f+1     :     0.006187
      f-1     :     0.006187
      f+2     :     0.004915
      f-2     :     0.004915
      f+3     :     0.004652
      f-3     :     0.004652
      g0      :     0.000549  g :     0.003930
      g+1     :     0.000523
      g-1     :     0.000523
      g+2     :     0.000418
      g-2     :     0.000418
      g+3     :     0.000382
      g-3     :     0.000382
      g+4     :     0.000368
      g-4     :     0.000368

SPIN
  0 Mns       :     0.799909  s :     0.799909
      pz      :     0.230079  p :     0.279060
      px      :     0.024491
      py      :     0.024491
      dz2     :     0.933763  d :     4.832347
      dxz     :     0.960302
      dyz     :     0.960302
      dx2y2   :     0.988990
      dxy     :     0.988990
      f0      :     0.003002  f :     0.020993
      f+1     :     0.002586
      f-1     :     0.002586
      f+2     :     0.003163
      f-2     :     0.003163
      f+3     :     0.003247
      f-3     :     0.003247
      g0      :     0.000255  g :     0.002295
      g+1     :     0.000256
      g-1     :     0.000256
      g+2     :     0.000258
      g-2     :     0.000258
      g+3     :     0.000255
      g-3     :     0.000255
      g+4     :     0.000251
      g-4     :     0.000251
  1 Brs       :    -0.001871  s :    -0.001871
      pz      :     0.031770  p :     0.064365
      px      :     0.016297
      py      :     0.016297
      dz2     :     0.000301  d :     0.001597
      dxz     :     0.000452
      dyz     :     0.000452
      dx2y2   :     0.000196
      dxy     :     0.000196
      f0      :     0.000388  f :     0.001131
      f+1     :     0.000287
      f-1     :     0.000287
      f+2     :     0.000071
      f-2     :     0.000071
      f+3     :     0.000013
      f-3     :     0.000013
      g0      :     0.000060  g :     0.000175
      g+1     :     0.000046
      g-1     :     0.000046
      g+2     :     0.000010
      g-2     :     0.000010
      g+3     :     0.000001
      g-3     :     0.000001
      g+4     :     0.000000
      g-4     :     0.000000


                     *******************************
                     * LOEWDIN POPULATION ANALYSIS *
                     *******************************

-----------------------------------------
LOEWDIN ATOMIC CHARGES AND SPIN DENSITIES
-----------------------------------------
   0 Mn:   -0.349555    5.885592
   1 Br:    0.349555    0.114408

--------------------------------------------------
LOEWDIN REDUCED ORBITAL CHARGES AND SPIN DENSITIES
--------------------------------------------------
CHARGE
  0 Mns       :     6.928687  s :     6.928687
      pz      :     4.523332  p :    12.698109
      px      :     4.087388
      py      :     4.087388
      dz2     :     1.202826  d :     5.443762
      dxz     :     1.119362
      dyz     :     1.119362
      dx2y2   :     1.001106
      dxy     :     1.001106
      f0      :     0.089125  f :     0.274227
      f+1     :     0.083484
      f-1     :     0.083484
      f+2     :     0.004919
      f-2     :     0.004919
      f+3     :     0.004149
      f-3     :     0.004149
      g0      :     0.000965  g :     0.004770
      g+1     :     0.000667
      g-1     :     0.000667
      g+2     :     0.000428
      g-2     :     0.000428
      g+3     :     0.000409
      g-3     :     0.000409
      g+4     :     0.000399
      g-4     :     0.000399
  1 Brs       :     7.529795  s :     7.529795
      pz      :     5.629923  p :    16.964778
      px      :     5.667427
      py      :     5.667427
      dz2     :     2.036601  d :    10.102748
      dxz     :     2.018441
      dyz     :     2.018441
      dx2y2   :     2.014633
      dxy     :     2.014633
      f0      :     0.013558  f :     0.048079
      f+1     :     0.007592
      f-1     :     0.007592
      f+2     :     0.005018
      f-2     :     0.005018
      f+3     :     0.004650
      f-3     :     0.004650
      g0      :     0.001190  g :     0.005045
      g+1     :     0.000740
      g-1     :     0.000740
      g+2     :     0.000437
      g-2     :     0.000437
      g+3     :     0.000382
      g-3     :     0.000382
      g+4     :     0.000368
      g-4     :     0.000368

SPIN
  0 Mns       :     0.710065  s :     0.710065
      pz      :     0.285354  p :     0.337943
      px      :     0.026295
      py      :     0.026295
      dz2     :     0.928115  d :     4.810652
      dxz     :     0.952505
      dyz     :     0.952505
      dx2y2   :     0.988763
      dxy     :     0.988763
      f0      :     0.004467  f :     0.024584
      f+1     :     0.003650
      f-1     :     0.003650
      f+2     :     0.003161
      f-2     :     0.003161
      f+3     :     0.003247
      f-3     :     0.003247
      g0      :     0.000291  g :     0.002348
      g+1     :     0.000264
      g-1     :     0.000264
      g+2     :     0.000259
      g-2     :     0.000259
      g+3     :     0.000255
      g-3     :     0.000255
      g+4     :     0.000251
      g-4     :     0.000251
  1 Brs       :     0.007530  s :     0.007530
      pz      :     0.050505  p :     0.083144
      px      :     0.016319
      py      :     0.016319
      dz2     :     0.008310  d :     0.015114
      dxz     :     0.003153
      dyz     :     0.003153
      dx2y2   :     0.000249
      dxy     :     0.000249
      f0      :     0.002588  f :     0.007559
      f+1     :     0.002248
      f-1     :     0.002248
      f+2     :     0.000225
      f-2     :     0.000225
      f+3     :     0.000013
      f-3     :     0.000013
      g0      :     0.000431  g :     0.001061
      g+1     :     0.000282
      g-1     :     0.000282
      g+2     :     0.000032
      g-2     :     0.000032
      g+3     :     0.000001
      g-3     :     0.000001
      g+4     :     0.000000
      g-4     :     0.000000


                      *****************************
                      * MAYER POPULATION ANALYSIS *
                      *****************************

  NA   - Mulliken gross atomic population
  ZA   - Total nuclear charge
  QA   - Mulliken gross atomic charge
  VA   - Mayer's total valence
  BVA  - Mayer's bonded valence
  FA   - Mayer's free valence

  ATOM       NA         ZA         QA         VA         BVA        FA
  0 Mn    24.5556    25.0000     0.4444     7.1205     0.9016     6.2189
  1 Br    35.4444    35.0000    -0.4444     1.6799     0.9016     0.7783

  Mayer bond orders larger than 0.100000
B(  0-Mn,  1-Br) :   0.9016 



------------------------------------------------------------------------------- 
                                     TIMINGS                                   
------------------------------------------------------------------------------- 


Total execution time                   ...      394.478 sec

Fock Matrix Formation                  ...        2.035 sec (  0.5%)
Initial Guess                          ...        0.276 sec (  0.1%)
DIIS Solver                            ...       14.188 sec (  3.6%)
State Vector Update                    ...        0.523 sec (  0.1%)
Sigma-vector construction              ...      233.640 sec ( 59.2%)
  <0|H|D>                              ...        0.026 sec (  0.0% of sigma)
  <D|H|D>(0-ext Fock)                  ...        0.383 sec (  0.2% of sigma)
  <D|H|D>(0-ext)                       ...        4.487 sec (  1.9% of sigma)
  <D|H|D>(2-ext Fock)                  ...        0.083 sec (  0.0% of sigma)
  <D|H|D>(2-ext)                       ...        7.038 sec (  3.0% of sigma)
  <D|H|D>(4-ext)                       ...      127.283 sec ( 54.5% of sigma)
  <S|H|0>                              ...       30.708 sec ( 13.1% of sigma)
  <S|H|S>                              ...        0.007 sec (  0.0% of sigma)
  <S|H|D>(1-ext)                       ...        0.076 sec (  0.0% of sigma)
  <D|H|S>(1-ext)                       ...        0.881 sec (  0.4% of sigma)
  Fock-dressing                        ...       21.830 sec (  9.3% of sigma)
  (ik|jl)-dressing                     ...        3.669 sec (  1.6% of sigma)
  (ij|ab),(ia|jb)-dressing             ...       29.965 sec ( 12.8% of sigma)
  Pair energies                        ...        0.047 sec (  0.0% of sigma)
Total Time for computing (T)           ...      122.934 sec ( 31.2% of ALL)
  I/O of integral and amplitudes       ...       13.390 sec ( 10.9% of (T))
  External N**7 contributions          ...       43.253 sec ( 35.2% of (T))
  Internal N**7 contributions          ...       15.243 sec ( 12.4% of (T))
  N**6 triples energy contributions    ...       50.625 sec ( 41.2% of (T))


-------------------
EXTRAPOLATED ENERGY
-------------------


-----------------------------------------------------------------
                      EP1 - MDCI extrapolation:
-----------------------------------------------------------------
NOTE: We use as reference SCF energy, for the extrapolation, the one from the MDCI module and not the one 
from the SCF calculation. In case the first step is a DFT calculation these two might be different.

NOTE: For the SCF part we extrapolate based on the scheme proposed in J. Chem. Phys. 2008, 129, 184116
using the exponents from J. Chem. Theory Comput., 7, 33-43 (2011)

NOTE: For the correlation part we extrapolate based on the scheme proposed in J. Chem. Phys. 1997, 106, 9639
using the exponents from J. Chem. Theory Comput., 7, 33-43 (2011)


Alpha(3/4)     :  7.880 (SCF Extrapolation)
Beta(3/4)      :  2.970 (correlation extrapolation)

SCF energy with basis def2-TZVPP:                     -3722.347794619
SCF energy with basis def2-QZVPP:                     -3722.419985856
Extrapolated CBS SCF energy (3/4) :                   -3722.429929383 (-0.009943526) 

MDCI energy with basis def2-TZVPP:                       -0.732057677
MDCI energy with basis def2-QZVPP:                       -1.051497501
Extrapolated CBS correlation energy (3/4) :              -1.288119417 (-0.236621916)

Estimated CBS total energy (3/4) :                    -3723.718048800



-------------------------   --------------------
FINAL SINGLE POINT ENERGY     -3723.718048799615
-------------------------   --------------------


                            ***************************************
                            *     ORCA property calculations      *
                            ***************************************

                                    ---------------------
                                    Active property flags
                                    ---------------------
   (+) Dipole Moment


------------------------------------------------------------------------------
                       ORCA ELECTRIC PROPERTIES CALCULATION
------------------------------------------------------------------------------

Dipole Moment Calculation                       ... on
Quadrupole Moment Calculation                   ... off
Polarizability Calculation                      ... off
GBWName                                         ... 28_MnBr.gbw
Electron density file                           ... 28_MnBr.scfp
The origin for moment calculation is the CENTER OF MASS  = ( 0.000000,  0.000000  2.305635)

-------------
DIPOLE MOMENT
-------------
                                X             Y             Z
Electronic contribution:     -0.00000       0.00000       1.19433
Nuclear contribution   :      0.00000       0.00000      -2.48612
                        -----------------------------------------
Total Dipole Moment    :     -0.00000       0.00000      -1.29179
                        -----------------------------------------
Magnitude (a.u.)       :      1.29179
Magnitude (Debye)      :      3.28347



--------------------
Rotational spectrum 
--------------------
 
Rotational constants in cm-1:     0.000000     0.091574     0.091574 
Rotational constants in MHz :     0.000000  2745.330169  2745.330169 

 Dipole components along the rotational axes: 
x,y,z [a.u.] :    -1.291790     0.000000    -0.000000 
x,y,z [Debye]:    -3.283469     0.000000    -0.000000 

 

                           *** MDCI DENSITY ***

------------------------------------------------------------------------------
                       ORCA ELECTRIC PROPERTIES CALCULATION
------------------------------------------------------------------------------

Dipole Moment Calculation                       ... on
Quadrupole Moment Calculation                   ... off
Polarizability Calculation                      ... off
GBWName                                         ... 28_MnBr.gbw
Electron density file                           ... 28_MnBr.mdcip
The origin for moment calculation is the CENTER OF MASS  = ( 0.000000,  0.000000  2.305635)

-------------
DIPOLE MOMENT
-------------
                                X             Y             Z
Electronic contribution:      0.00000      -0.00000       1.31995
Nuclear contribution   :      0.00000       0.00000      -2.48612
                        -----------------------------------------
Total Dipole Moment    :      0.00000      -0.00000      -1.16617
                        -----------------------------------------
Magnitude (a.u.)       :      1.16617
Magnitude (Debye)      :      2.96416



--------------------
Rotational spectrum 
--------------------
 
Rotational constants in cm-1:     0.000000     0.091574     0.091574 
Rotational constants in MHz :     0.000000  2745.330169  2745.330169 

 Dipole components along the rotational axes: 
x,y,z [a.u.] :    -1.166166    -0.000000     0.000000 
x,y,z [Debye]:    -2.964159    -0.000000     0.000000 

 

Timings for individual modules:

Sum of individual times         ...      457.597 sec (=   7.627 min)
GTO integral calculation        ...        1.625 sec (=   0.027 min)   0.4 %
SCF iterations                  ...       15.065 sec (=   0.251 min)   3.3 %
MDCI module                     ...      440.907 sec (=   7.348 min)  96.4 %
                             ****ORCA TERMINATED NORMALLY****
TOTAL RUN TIME: 0 days 0 hours 7 minutes 38 seconds 585 msec
