
                                 *****************
                                 * O   R   C   A *
                                 *****************

           --- An Ab Initio, DFT and Semiempirical electronic structure package ---

                  #######################################################
                  #                        -***-                        #
                  #          Department of theory and spectroscopy      #
                  #               Directorship: Frank Neese             #
                  #        Max Planck Institute fuer Kohlenforschung    #
                  #                Kaiser Wilhelm Platz 1               #
                  #                 D-45470 Muelheim/Ruhr               #
                  #                      Germany                        #
                  #                                                     #
                  #                  All rights reserved                #
                  #                        -***-                        #
                  #######################################################


                         Program Version 4.2.0 -  RELEASE  -


 With contributions from (in alphabetic order):
   Daniel Aravena         : Magnetic Suceptibility
   Michael Atanasov       : Ab Initio Ligand Field Theory (pilot matlab implementation)
   Alexander A. Auer      : GIAO ZORA, VPT2
   Ute Becker             : Parallelization
   Giovanni Bistoni       : ED, misc. LED, open-shell LED, HFLED
   Martin Brehm           : Molecular dynamics
   Dmytro Bykov           : SCF Hessian
   Vijay G. Chilkuri      : MRCI spin determinant printing, contributions to CSF-ICE
   Dipayan Datta          : RHF DLPNO-CCSD density
   Achintya Kumar Dutta   : EOM-CC, STEOM-CC
   Dmitry Ganyushin       : Spin-Orbit,Spin-Spin,Magnetic field MRCI
   Miquel Garcia          : C-PCM Hessian, Gaussian charge scheme
   Yang Guo               : DLPNO-NEVPT2, CIM, IAO-localization
   Andreas Hansen         : Spin unrestricted coupled pair/coupled cluster methods
   Benjamin Helmich-Paris : CASSCF linear response (MC-RPA)
   Lee Huntington         : MR-EOM, pCC
   Robert Izsak           : Overlap fitted RIJCOSX, COSX-SCS-MP3, EOM
   Christian Kollmar      : KDIIS, OOCD, Brueckner-CCSD(T), CCSD density
   Simone Kossmann        : Meta GGA functionals, TD-DFT gradient, OOMP2, MP2 Hessian
   Martin Krupicka        : AUTO-CI
   Lucas Lang             : DCDCAS
   Dagmar Lenk            : GEPOL surface, SMD
   Dimitrios Liakos       : Extrapolation schemes; Compound Job, initial MDCI parallelization
   Dimitrios Manganas     : Further ROCIS development; embedding schemes
   Dimitrios Pantazis     : SARC Basis sets
   Taras Petrenko         : DFT Hessian,TD-DFT gradient, ASA, ECA, R-Raman, ABS, FL, XAS/XES, NRVS
   Peter Pinski           : DLPNO-MP2, DLPNO-MP2 Gradient
   Christoph Reimann      : Effective Core Potentials
   Marius Retegan         : Local ZFS, SOC
   Christoph Riplinger    : Optimizer, TS searches, QM/MM, DLPNO-CCSD(T), (RO)-DLPNO pert. Triples
   Tobias Risthaus        : Range-separated hybrids, TD-DFT gradient, RPA, STAB
   Michael Roemelt        : Original ROCIS implementation
   Masaaki Saitow         : Open-shell DLPNO-CCSD energy and density
   Barbara Sandhoefer     : DKH picture change effects
   Avijit Sen             : IP-ROCIS
   Kantharuban Sivalingam : CASSCF convergence, NEVPT2, FIC-MRCI
   Bernardo de Souza      : ESD, SOC TD-DFT
   Georgi Stoychev        : AutoAux, RI-MP2 NMR
   Willem Van den Heuvel  : Paramagnetic NMR
   Boris Wezisla          : Elementary symmetry handling
   Frank Wennmohs         : Technical directorship


 We gratefully acknowledge several colleagues who have allowed us to
 interface, adapt or use parts of their codes:
   Stefan Grimme, W. Hujo, H. Kruse,             : VdW corrections, initial TS optimization,
                  C. Bannwarth                     DFT functionals, gCP, sTDA/sTD-DF
   Ed Valeev, F. Pavosevic, A. Kumar             : LibInt (2-el integral package), F12 methods
   Garnet Chan, S. Sharma, J. Yang, R. Olivares  : DMRG
   Ulf Ekstrom                                   : XCFun DFT Library
   Mihaly Kallay                                 : mrcc  (arbitrary order and MRCC methods)
   Andreas Klamt, Michael Diedenhofen            : otool_cosmo (COSMO solvation model)
   Jiri Pittner, Ondrej Demel                    : Mk-CCSD
   Frank Weinhold                                : gennbo (NPA and NBO analysis)
   Christopher J. Cramer and Donald G. Truhlar   : smd solvation model
   Lars Goerigk                                  : TD-DFT with DH, B97 family of functionals
   V. Asgeirsson, H. Jonsson                     : NEB implementation
   FAccTs GmbH                                   : IRC, NEB, NEB-TS, Multilevel, MM, QM/MM, CI optimization
   S Lehtola, MJT Oliveira, MAL Marques          : LibXC Library


 Your calculation uses the libint2 library for the computation of 2-el integrals
 For citations please refer to: http://libint.valeyev.net

 Your ORCA version has been built with support for libXC version: 4.2.3
 For citations please refer to: https://tddft.org/programs/libxc/

 This ORCA versions uses:
   CBLAS   interface :  Fast vector & matrix operations
   LAPACKE interface :  Fast linear algebra routines
   SCALAPACK package :  Parallel linear algebra routines


----- Orbital basis set information -----
Your calculation utilizes the basis: def2-TZVPP
   F. Weigend and R. Ahlrichs, Phys. Chem. Chem. Phys. 7, 3297 (2005).

================================================================================
                                        WARNINGS
                       Please study these warnings very carefully!
================================================================================


WARNING: your system is open-shell and RHF/RKS was chosen
  ===> : WILL SWITCH to UHF/UKS


WARNING: MDCI localization with Augmented Hessian Foster-Boys
  ===> : Switching off randomization!

WARNING: Post HF methods need fully converged wavefunctions
  ===> : Setting SCFConvForced true
         You can overwrite this default with %scf ConvForced false 


INFO   : the flag for use of LIBINT has been found!

================================================================================
                                       INPUT FILE
================================================================================
NAME = 30_MnS.in
|  1> #
|  2> # 30_MnS ccsd(t)/cbs
|  3> #
|  4> ! ccsd(t) extrapolate(3/4,def2) verytightscf
|  5> 
|  6> *xyz 0 6
|  7>   Mn  0.00000000000000      0.00000000000000     -0.02260858554296
|  8>   S   0.00000000000000      0.00000000000000      2.02260858554296
|  9> *
| 10> 
| 11> %maxcore 5000
| 12> %pal
| 13> nprocs 24
| 14> end
| 15> 
| 16> 
| 17>                          ****END OF INPUT****
================================================================================

                   *****************************************
                   * Extrapolated Single Point Calculation *
                   *****************************************

----- Orbital basis set information -----
Your calculation utilizes the basis: def2-TZVPP
   F. Weigend and R. Ahlrichs, Phys. Chem. Chem. Phys. 7, 3297 (2005).

----- AuxJ basis set information -----
Your calculation utilizes the auxiliary basis: def2/J
   F. Weigend, Phys. Chem. Chem. Phys. 8, 1057 (2006).

----- AuxC basis set information -----
Your calculation utilizes the auxiliary basis: def2-TZVPP/C
  H-La, Hf-Rn : A. Hellweg, C. Hattig, S. Hofener and W. Klopper, Theor. Chem. Acc. 117, 587 (2007).
        Ce-Lu : J. Chmela and M. E. Harding, Mol. Phys. (2018).

----- AuxJK basis set information -----
Your calculation utilizes the auxiliary basis: def2/JK
   H-Ba, Hf-Rn: F. Weigend, J. Comput. Chem. 29, 167 (2008).

All done

                     -----------------------------------------
                     Extrapolated Energy 1 Basis=  def2-TZVPP
                     -----------------------------------------

---------------------------------
CARTESIAN COORDINATES (ANGSTROEM)
---------------------------------
  Mn     0.000000    0.000000   -0.022609
  S      0.000000    0.000000    2.022609

----------------------------
CARTESIAN COORDINATES (A.U.)
----------------------------
  NO LB      ZA    FRAG     MASS         X           Y           Z
   0 Mn   25.0000    0    54.940    0.000000    0.000000   -0.042724
   1 S    16.0000    0    32.060    0.000000    0.000000    3.822176

--------------------------------
INTERNAL COORDINATES (ANGSTROEM)
--------------------------------
 Mn     0   0   0     0.000000000000     0.00000000     0.00000000
 S      1   0   0     2.045217171086     0.00000000     0.00000000

---------------------------
INTERNAL COORDINATES (A.U.)
---------------------------
 Mn     0   0   0     0.000000000000     0.00000000     0.00000000
 S      1   0   0     3.864900337746     0.00000000     0.00000000

---------------------
BASIS SET INFORMATION
---------------------
There are 2 groups of distinct atoms

 Group   1 Type Mn  : 17s12p7d2f1g contracted to 6s5p4d2f1g pattern {842111/63111/4111/11/1}
 Group   2 Type S   : 14s9p3d1f contracted to 5s5p3d1f pattern {73211/51111/111/1}

Atom   0Mn   basis set group =>   1
Atom   1S    basis set group =>   2
---------------------------------
AUXILIARY/J BASIS SET INFORMATION
---------------------------------
There are 2 groups of distinct atoms

 Group   1 Type Mn  : 19s5p5d3f3g contracted to 8s5p5d2f3g pattern {121111111/11111/11111/21/111}
 Group   2 Type S   : 14s5p5d2f1g contracted to 8s4p3d1f1g pattern {71111111/2111/311/2/1}

Atom   0Mn   basis set group =>   1
Atom   1S    basis set group =>   2
---------------------------------
AUXILIARY/C BASIS SET INFORMATION
---------------------------------
There are 2 groups of distinct atoms

 Group   1 Type Mn  : 9s9p8d7f5g3h1i contracted to 9s9p8d7f5g3h1i pattern {111111111/111111111/11111111/1111111/11111/111/1}
 Group   2 Type S   : 11s8p7d5f2g contracted to 11s8p7d5f2g pattern {11111111111/11111111/1111111/11111/11}

Atom   0Mn   basis set group =>   1
Atom   1S    basis set group =>   2
----------------------------------
AUXILIARY/JK BASIS SET INFORMATION
----------------------------------
There are 2 groups of distinct atoms

 Group   1 Type Mn  : 19s14p12d10f7g3h1i contracted to 16s13p11d9f5g3h1i pattern {4111111111111111/2111111111111/21111111111/211111111/31111/111/1}
 Group   2 Type S   : 16s12p10d4f1g contracted to 13s11p9d4f1g pattern {4111111111111/21111111111/211111111/1111/1}

Atom   0Mn   basis set group =>   1
Atom   1S    basis set group =>   2


           ************************************************************
           *        Program running with 24 parallel MPI-processes    *
           *              working on a common directory               *
           ************************************************************
------------------------------------------------------------------------------
                           ORCA GTO INTEGRAL CALCULATION
------------------------------------------------------------------------------

                         BASIS SET STATISTICS AND STARTUP INFO

 # of primitive gaussian shells          ...   66
 # of primitive gaussian functions       ...  174
 # of contracted shells                  ...   32
 # of contracted basis functions         ...  106
 Highest angular momentum                ...    4
 Maximum contraction depth               ...    8
 Integral package used                   ... LIBINT
 Integral threshhold            Thresh   ...  1.000e-12
 Primitive cut-off              TCut     ...  1.000e-14


------------------------------ INTEGRAL EVALUATION ----------------------------


 * One electron integrals 
 Pre-screening matrix                    ... done
 Shell pair data                         ... done (   0.000 sec)



           ************************************************************
           *        Program running with 24 parallel MPI-processes    *
           *              working on a common directory               *
           ************************************************************
-------------------------------------------------------------------------------
                                 ORCA SCF
-------------------------------------------------------------------------------

------------
SCF SETTINGS
------------
Hamiltonian:
 Ab initio Hamiltonian  Method          .... Hartree-Fock(GTOs)


General Settings:
 Integral files         IntName         .... 30_MnS
 Hartree-Fock type      HFTyp           .... UHF
 Total Charge           Charge          ....    0
 Multiplicity           Mult            ....    6
 Number of Electrons    NEL             ....   41
 Basis Dimension        Dim             ....  106
 Nuclear Repulsion      ENuc            ....    103.4955535835 Eh

Convergence Acceleration:
 DIIS                   CNVDIIS         .... on
   Start iteration      DIISMaxIt       ....    12
   Startup error        DIISStart       ....  0.200000
   # of expansion vecs  DIISMaxEq       ....     5
   Bias factor          DIISBfac        ....   1.050
   Max. coefficient     DIISMaxC        ....  10.000
 Newton-Raphson         CNVNR           .... off
 SOSCF                  CNVSOSCF        .... off
 Level Shifting         CNVShift        .... on
   Level shift para.    LevelShift      ....    0.2500
   Turn off err/grad.   ShiftErr        ....    0.0010
 Zerner damping         CNVZerner       .... off
 Static damping         CNVDamp         .... on
   Fraction old density DampFac         ....    0.7000
   Max. Damping (<1)    DampMax         ....    0.9800
   Min. Damping (>=0)   DampMin         ....    0.0000
   Turn off err/grad.   DampErr         ....    0.1000
 Fernandez-Rico         CNVRico         .... off

SCF Procedure:
 Maximum # iterations   MaxIter         ....   125
 SCF integral mode      SCFMode         .... Direct
   Integral package                     .... LIBINT
 Reset frequency        DirectResetFreq ....    20
 Integral Threshold     Thresh          ....  1.000e-12 Eh
 Primitive CutOff       TCut            ....  1.000e-14 Eh

Convergence Tolerance:
 Convergence Check Mode ConvCheckMode   .... Total+1el-Energy
 Convergence forced     ConvForced      .... 1
 Energy Change          TolE            ....  1.000e-09 Eh
 1-El. energy change                    ....  1.000e-06 Eh
 DIIS Error             TolErr          ....  1.000e-08


Diagonalization of the overlap matrix:
Smallest eigenvalue                        ... 4.286e-03
Time for diagonalization                   ...    0.021 sec
Threshold for overlap eigenvalues          ... 1.000e-08
Number of eigenvalues below threshold      ... 0
Time for construction of square roots      ...    0.001 sec
Total time needed                          ...    0.022 sec

-------------------
DFT GRID GENERATION
-------------------

General Integration Accuracy     IntAcc      ...  4.340
Radial Grid Type                 RadialGrid  ... Gauss-Chebyshev
Angular Grid (max. acc.)         AngularGrid ... Lebedev-110
Angular grid pruning method      GridPruning ... 3 (G Style)
Weight generation scheme         WeightScheme... Becke
Basis function cutoff            BFCut       ...    1.0000e-12
Integration weight cutoff        WCut        ...    1.0000e-14
Grids for H and He will be reduced by one unit

# of grid points (after initial pruning)     ...   4718 (   0.0 sec)
# of grid points (after weights+screening)   ...   4693 (   0.0 sec)
nearest neighbour list constructed           ...    0.0 sec
Grid point re-assignment to atoms done       ...    0.0 sec
Grid point division into batches done        ...    0.0 sec
Reduced shell lists constructed in    0.0 sec

Total number of grid points                  ...     4693
Total number of batches                      ...       74
Average number of points per batch           ...       63
Average number of grid points per atom       ...     2346
Average number of shells per batch           ...     8.40 (26.25%)
Average number of basis functions per batch  ...    25.20 (23.77%)
Average number of large shells per batch     ...     7.20 (85.71%)
Average number of large basis fcns per batch ...    21.60 (85.71%)
Maximum spatial batch extension              ...  18.98, 28.73, 16.15 au
Average spatial batch extension              ...   0.97,  1.30,  0.87 au

Time for grid setup =    0.023 sec

------------------------------
INITIAL GUESS: MODEL POTENTIAL
------------------------------
Loading Hartree-Fock densities                     ... done
Calculating cut-offs                               ... done
Setting up the integral package                    ... done
Initializing the effective Hamiltonian             ... done
Starting the Coulomb interaction                   ... done (   0.0 sec)
Reading the grid                                   ... done
Mapping shells                                     ... done
Starting the XC term evaluation                    ... done (   0.0 sec)
Transforming the Hamiltonian                       ... done (   0.0 sec)
Diagonalizing the Hamiltonian                      ... done (   0.0 sec)
Back transforming the eigenvectors                 ... done (   0.0 sec)
Now organizing SCF variables                       ... done
                      ------------------
                      INITIAL GUESS DONE (   0.1 sec)
                      ------------------
--------------
SCF ITERATIONS
--------------
ITER       Energy         Delta-E        Max-DP      RMS-DP      [F,P]     Damp
               ***  Starting incremental Fock matrix formation  ***
  0  -1547.1392519838   0.000000000000 0.04270244  0.00077825  0.1740859 0.7000
  1  -1547.1877117179  -0.048459734102 0.03056999  0.00062838  0.1188202 0.7000
                               ***Turning on DIIS***
  2  -1547.2228107526  -0.035099034676 0.06141759  0.00150194  0.0758587 0.0000
  3  -1547.1973800308   0.025430721824 0.01796282  0.00055309  0.0489048 0.0000
  4  -1547.4029525965  -0.205572565756 0.02158955  0.00047636  0.0265187 0.0000
  5  -1547.3360010192   0.066951577354 0.02947807  0.00049467  0.0214820 0.0000
  6  -1547.4132978406  -0.077296821421 0.03336430  0.00043444  0.0119753 0.0000
  7  -1547.4232764813  -0.009978640723 0.02715565  0.00033028  0.0069454 0.0000
  8  -1547.4016514801   0.021625001208 0.02547285  0.00029722  0.0058749 0.0000
  9  -1547.4152992701  -0.013647789924 0.02314649  0.00027687  0.0046622 0.0000
 10  -1547.4101413330   0.005157937099 0.02148129  0.00026181  0.0043262 0.0000
 11  -1547.4163795954  -0.006238262428 0.02273070  0.00028363  0.0039809 0.0000
 12  -1547.4086120968   0.007767498566 0.01772951  0.00023532  0.0039651 0.0000
 13  -1547.4409006867  -0.032288589877 0.02585022  0.00034618  0.0036811 0.0000
 14  -1547.3735304277   0.067370258993 0.00306114  0.00006327  0.0040477 0.0000
 15  -1547.4504888880  -0.076958460304 0.02630537  0.00037648  0.0028588 0.0000
 16  -1547.4507665474  -0.000277659391 0.01080856  0.00022055  0.0037201 0.0000
 17  -1547.4325360164   0.018230530954 0.00885492  0.00016315  0.0030307 0.0000
 18  -1547.4302021577   0.002333858774 0.00912978  0.00017223  0.0022632 0.0000
 19  -1547.3897834054   0.040418752223 0.00701464  0.00008571  0.0017680 0.0000
               *** Restarting incremental Fock matrix formation ***
                                   *** Resetting DIIS ***
 20  -1547.3777433947   0.012040010734 0.00128581  0.00002893  0.0007795 0.0000
 21  -1547.3795361436  -0.001792748937 0.00088130  0.00002124  0.0004244 0.0000
 22  -1547.3783082916   0.001227852048 0.00094183  0.00002056  0.0002789 0.0000
 23  -1547.3776251745   0.000683117053 0.00083620  0.00001747  0.0001445 0.0000
 24  -1547.3781203357  -0.000495161200 0.00046615  0.00000973  0.0000775 0.0000
 25  -1547.3779471873   0.000173148468 0.00039302  0.00000804  0.0000686 0.0000
 26  -1547.3783153265  -0.000368139200 0.00027557  0.00000610  0.0000417 0.0000
 27  -1547.3779955799   0.000319746593 0.00008965  0.00000231  0.0000215 0.0000
 28  -1547.3778880757   0.000107504165 0.00003904  0.00000109  0.0000085 0.0000
 29  -1547.3777696164   0.000118459322 0.00001764  0.00000050  0.0000042 0.0000
 30  -1547.3777694566   0.000000159761 0.00000311  0.00000007  0.0000013 0.0000
 31  -1547.3777648957   0.000004560908 0.00000122  0.00000004  0.0000005 0.0000
 32  -1547.3777675522  -0.000002656489 0.00000088  0.00000002  0.0000003 0.0000
 33  -1547.3777695845  -0.000002032256 0.00000073  0.00000002  0.0000002 0.0000
 34  -1547.3777683027   0.000001281755 0.00000052  0.00000001  0.0000001 0.0000
 35  -1547.3777692652  -0.000000962485 0.00000039  0.00000001  0.0000001 0.0000
 36  -1547.3777695417  -0.000000276508 0.00000034  0.00000001  0.0000001 0.0000
 37  -1547.3777695119   0.000000029780 0.00000022  0.00000001  0.0000000 0.0000
                            ***DIIS convergence achieved***

               *****************************************************
               *                     SUCCESS                       *
               *           SCF CONVERGED AFTER  38 CYCLES          *
               *****************************************************


----------------
TOTAL SCF ENERGY
----------------

Total Energy       :        -1547.37776884 Eh          -42106.28973 eV

Components:
Nuclear Repulsion  :          103.49555358 Eh            2816.25719 eV
Electronic Energy  :        -1650.87332243 Eh          -44922.54692 eV
One Electron Energy:        -2342.20602852 Eh          -63734.66624 eV
Two Electron Energy:          691.33270609 Eh           18812.11932 eV

Virial components:
Potential Energy   :        -3094.97245216 Eh          -84218.48201 eV
Kinetic Energy     :         1547.59468332 Eh           42112.19228 eV
Virial Ratio       :            1.99985984


---------------
SCF CONVERGENCE
---------------

  Last Energy change         ...    6.6840e-07  Tolerance :   1.0000e-09
  Last MAX-Density change    ...    7.6290e-08  Tolerance :   1.0000e-08
  Last RMS-Density change    ...    1.0618e-09  Tolerance :   1.0000e-09
  Last DIIS Error            ...    8.7929e-09  Tolerance :   1.0000e-08

             **** THE GBW FILE WAS UPDATED (30_MnS.gbw) ****
             **** DENSITY FILE WAS UPDATED (30_MnS.scfp) ****
             **** ENERGY FILE WAS UPDATED (30_MnS.en.tmp) ****
----------------------
UHF SPIN CONTAMINATION
----------------------

Expectation value of <S**2>     :     9.324603
Ideal value S*(S+1) for S=2.5   :     8.750000
Deviation                       :     0.574603

             **** THE GBW FILE WAS UPDATED (30_MnS.gbw) ****
             **** DENSITY FILE WAS UPDATED (30_MnS.scfp) ****
----------------
ORBITAL ENERGIES
----------------
                 SPIN UP ORBITALS
  NO   OCC          E(Eh)            E(eV) 
   0   1.0000    -240.565998     -6546.1336 
   1   1.0000     -91.894320     -2500.5716 
   2   1.0000     -29.207149      -794.7669 
   3   1.0000     -24.909623      -677.8253 
   4   1.0000     -24.909623      -677.8253 
   5   1.0000     -24.907835      -677.7766 
   6   1.0000      -8.902239      -242.2422 
   7   1.0000      -6.582113      -179.1084 
   8   1.0000      -6.582113      -179.1084 
   9   1.0000      -6.571212      -178.8118 
  10   1.0000      -4.048872      -110.1754 
  11   1.0000      -2.755178       -74.9722 
  12   1.0000      -2.755178       -74.9722 
  13   1.0000      -2.754642       -74.9576 
  14   1.0000      -0.829833       -22.5809 
  15   1.0000      -0.675183       -18.3727 
  16   1.0000      -0.675183       -18.3727 
  17   1.0000      -0.667780       -18.1712 
  18   1.0000      -0.667780       -18.1712 
  19   1.0000      -0.640090       -17.4177 
  20   1.0000      -0.326407        -8.8820 
  21   1.0000      -0.326407        -8.8820 
  22   1.0000      -0.314334        -8.5535 
  23   0.0000      -0.017881        -0.4866 
  24   0.0000       0.060969         1.6590 
  25   0.0000       0.060969         1.6590 
  26   0.0000       0.139909         3.8071 
  27   0.0000       0.201843         5.4924 
  28   0.0000       0.221884         6.0378 
  29   0.0000       0.221884         6.0378 
  30   0.0000       0.278332         7.5738 
  31   0.0000       0.278332         7.5738 
  32   0.0000       0.290656         7.9092 
  33   0.0000       0.431305        11.7364 
  34   0.0000       0.431305        11.7364 
  35   0.0000       0.439582        11.9616 
  36   0.0000       0.526306        14.3215 
  37   0.0000       0.526306        14.3215 
  38   0.0000       0.605947        16.4886 
  39   0.0000       0.605947        16.4886 
  40   0.0000       0.611938        16.6517 
  41   0.0000       0.717967        19.5369 
  42   0.0000       0.717967        19.5369 
  43   0.0000       0.790944        21.5227 
  44   0.0000       0.936936        25.4953 
  45   0.0000       0.936936        25.4953 
  46   0.0000       1.036403        28.2020 
  47   0.0000       1.036403        28.2020 
  48   0.0000       1.099971        29.9317 
  49   0.0000       1.198524        32.6135 
  50   0.0000       1.763310        47.9821 
  51   0.0000       1.814598        49.3777 
  52   0.0000       1.814598        49.3777 
  53   0.0000       1.861608        50.6569 
  54   0.0000       1.861608        50.6569 
  55   0.0000       1.917281        52.1719 
  56   0.0000       1.917281        52.1719 
  57   0.0000       1.917886        52.1883 
  58   0.0000       1.917886        52.1883 
  59   0.0000       1.997355        54.3508 
  60   0.0000       1.997355        54.3508 
  61   0.0000       2.006000        54.5860 
  62   0.0000       2.142801        58.3086 
  63   0.0000       2.142801        58.3086 
  64   0.0000       2.184204        59.4352 
  65   0.0000       2.184204        59.4352 
  66   0.0000       2.271645        61.8146 
  67   0.0000       2.271645        61.8146 
  68   0.0000       2.291988        62.3682 
  69   0.0000       2.318359        63.0858 
  70   0.0000       2.318359        63.0858 
  71   0.0000       2.420202        65.8571 
  72   0.0000       2.731397        74.3251 
  73   0.0000       2.731397        74.3251 
  74   0.0000       2.759407        75.0873 
  75   0.0000       3.184180        86.6459 
  76   0.0000       3.533262        96.1449 
  77   0.0000       3.533262        96.1449 
  78   0.0000       3.571942        97.1975 
  79   0.0000       3.571942        97.1975 
  80   0.0000       3.887240       105.7772 
  81   0.0000       7.285958       198.2610 
  82   0.0000       7.285958       198.2610 
  83   0.0000       7.332814       199.5360 
  84   0.0000       7.344147       199.8444 
  85   0.0000       7.344147       199.8444 
  86   0.0000       7.405357       201.5100 
  87   0.0000       7.405357       201.5100 
  88   0.0000       7.407003       201.5548 
  89   0.0000       7.407003       201.5548 
  90   0.0000       7.412441       201.7028 
  91   0.0000       7.412441       201.7028 
  92   0.0000       7.435298       202.3247 
  93   0.0000       7.435298       202.3247 
  94   0.0000       7.503344       204.1764 
  95   0.0000       8.328948       226.6422 
  96   0.0000       8.328948       226.6422 
  97   0.0000       8.341345       226.9795 
  98   0.0000       8.341345       226.9795 
  99   0.0000       8.453409       230.0290 
 100   0.0000       8.453409       230.0290 
 101   0.0000       8.666568       235.8293 
 102   0.0000       9.621084       261.8030 
 103   0.0000       9.621084       261.8030 
 104   0.0000       9.934160       270.3222 
 105   0.0000      19.229167       523.2522 

                 SPIN DOWN ORBITALS
  NO   OCC          E(Eh)            E(eV) 
   0   1.0000    -240.562093     -6546.0274 
   1   1.0000     -91.901950     -2500.7792 
   2   1.0000     -29.074228      -791.1500 
   3   1.0000     -24.781558      -674.3405 
   4   1.0000     -24.778813      -674.2658 
   5   1.0000     -24.778813      -674.2658 
   6   1.0000      -8.909378      -242.4365 
   7   1.0000      -6.602758      -179.6702 
   8   1.0000      -6.586998      -179.2413 
   9   1.0000      -6.586998      -179.2413 
  10   1.0000      -3.645315       -99.1941 
  11   1.0000      -2.279222       -62.0208 
  12   1.0000      -2.267268       -61.6955 
  13   1.0000      -2.267268       -61.6955 
  14   1.0000      -0.892458       -24.2850 
  15   1.0000      -0.444563       -12.0972 
  16   1.0000      -0.355921        -9.6851 
  17   1.0000      -0.355921        -9.6851 
  18   0.0000       0.005992         0.1631 
  19   0.0000       0.111479         3.0335 
  20   0.0000       0.111479         3.0335 
  21   0.0000       0.128081         3.4853 
  22   0.0000       0.176948         4.8150 
  23   0.0000       0.176948         4.8150 
  24   0.0000       0.208398         5.6708 
  25   0.0000       0.208398         5.6708 
  26   0.0000       0.211401         5.7525 
  27   0.0000       0.285993         7.7823 
  28   0.0000       0.334629         9.1057 
  29   0.0000       0.347895         9.4667 
  30   0.0000       0.347895         9.4667 
  31   0.0000       0.349275         9.5043 
  32   0.0000       0.349275         9.5043 
  33   0.0000       0.445000        12.1091 
  34   0.0000       0.456052        12.4098 
  35   0.0000       0.456052        12.4098 
  36   0.0000       0.566923        15.4268 
  37   0.0000       0.566923        15.4268 
  38   0.0000       0.605047        16.4642 
  39   0.0000       0.605047        16.4642 
  40   0.0000       0.606868        16.5137 
  41   0.0000       0.718553        19.5528 
  42   0.0000       0.718553        19.5528 
  43   0.0000       0.829721        22.5779 
  44   0.0000       1.100538        29.9472 
  45   0.0000       1.100538        29.9472 
  46   0.0000       1.124115        30.5887 
  47   0.0000       1.170179        31.8422 
  48   0.0000       1.170179        31.8422 
  49   0.0000       1.262091        34.3432 
  50   0.0000       1.755895        47.7803 
  51   0.0000       1.816929        49.4412 
  52   0.0000       1.816929        49.4412 
  53   0.0000       1.844318        50.1864 
  54   0.0000       1.844318        50.1864 
  55   0.0000       1.927844        52.4593 
  56   0.0000       1.927844        52.4593 
  57   0.0000       1.950272        53.0696 
  58   0.0000       1.950272        53.0696 
  59   0.0000       1.998983        54.3951 
  60   0.0000       1.998983        54.3951 
  61   0.0000       2.005626        54.5759 
  62   0.0000       2.183760        59.4231 
  63   0.0000       2.183760        59.4231 
  64   0.0000       2.293213        62.4015 
  65   0.0000       2.308016        62.8043 
  66   0.0000       2.308016        62.8043 
  67   0.0000       2.395167        65.1758 
  68   0.0000       2.395167        65.1758 
  69   0.0000       2.435533        66.2742 
  70   0.0000       2.435533        66.2742 
  71   0.0000       2.548461        69.3471 
  72   0.0000       2.816941        76.6528 
  73   0.0000       2.816941        76.6528 
  74   0.0000       2.884257        78.4846 
  75   0.0000       3.289764        89.5190 
  76   0.0000       3.735008       101.6347 
  77   0.0000       3.735008       101.6347 
  78   0.0000       3.769275       102.5672 
  79   0.0000       3.769275       102.5672 
  80   0.0000       4.025703       109.5449 
  81   0.0000       7.285770       198.2559 
  82   0.0000       7.285770       198.2559 
  83   0.0000       7.336267       199.6300 
  84   0.0000       7.336267       199.6300 
  85   0.0000       7.353273       200.0927 
  86   0.0000       7.554323       205.5636 
  87   0.0000       7.554323       205.5636 
  88   0.0000       7.554779       205.5760 
  89   0.0000       7.554779       205.5760 
  90   0.0000       7.556963       205.6354 
  91   0.0000       7.556963       205.6354 
  92   0.0000       7.578664       206.2259 
  93   0.0000       7.578664       206.2259 
  94   0.0000       7.621761       207.3987 
  95   0.0000       8.613403       234.3826 
  96   0.0000       8.613403       234.3826 
  97   0.0000       8.625717       234.7177 
  98   0.0000       8.625717       234.7177 
  99   0.0000       8.725196       237.4247 
 100   0.0000       8.725196       237.4247 
 101   0.0000       8.919484       242.7115 
 102   0.0000       9.617997       261.7190 
 103   0.0000       9.617997       261.7190 
 104   0.0000       9.910979       269.6915 
 105   0.0000      19.219795       522.9972 

                    ********************************
                    * MULLIKEN POPULATION ANALYSIS *
                    ********************************

--------------------------------------------
MULLIKEN ATOMIC CHARGES AND SPIN POPULATIONS
--------------------------------------------
   0 Mn:    0.640485    5.704146
   1 S :   -0.640485   -0.704146
Sum of atomic charges         :   -0.0000000
Sum of atomic spin populations:    5.0000000

-----------------------------------------------------
MULLIKEN REDUCED ORBITAL CHARGES AND SPIN POPULATIONS
-----------------------------------------------------
CHARGE
  0 Mns       :     6.795279  s :     6.795279
      pz      :     4.130996  p :    12.400233
      px      :     4.134619
      py      :     4.134619
      dz2     :     1.038572  d :     5.159401
      dxz     :     1.060653
      dyz     :     1.060653
      dx2y2   :     0.999761
      dxy     :     0.999761
      f0      :     0.001465  f :     0.004561
      f+1     :     0.001531
      f-1     :     0.001531
      f+2     :     0.000017
      f-2     :     0.000017
      f+3     :     0.000000
      f-3     :     0.000000
      g0      :     0.000015  g :     0.000040
      g+1     :     0.000013
      g-1     :     0.000013
      g+2     :    -0.000000
      g-2     :    -0.000000
      g+3     :     0.000000
      g-3     :     0.000000
      g+4     :     0.000000
      g-4     :     0.000000
  1 S s       :     5.910502  s :     5.910502
      pz      :     3.104552  p :    10.684767
      px      :     3.790108
      py      :     3.790108
      dz2     :     0.016471  d :     0.039497
      dxz     :     0.011335
      dyz     :     0.011335
      dx2y2   :     0.000178
      dxy     :     0.000178
      f0      :     0.002148  f :     0.005719
      f+1     :     0.001742
      f-1     :     0.001742
      f+2     :     0.000043
      f-2     :     0.000043
      f+3     :     0.000000
      f-3     :     0.000000

SPIN
  0 Mns       :     0.686876  s :     0.686876
      pz      :     0.071699  p :     0.198237
      px      :     0.063269
      py      :     0.063269
      dz2     :     0.922764  d :     4.820287
      dxz     :     0.949000
      dyz     :     0.949000
      dx2y2   :     0.999761
      dxy     :     0.999761
      f0      :    -0.000745  f :    -0.001239
      f+1     :    -0.000264
      f-1     :    -0.000264
      f+2     :     0.000017
      f-2     :     0.000017
      f+3     :     0.000000
      f-3     :     0.000000
      g0      :    -0.000009  g :    -0.000015
      g+1     :    -0.000003
      g-1     :    -0.000003
      g+2     :    -0.000000
      g-2     :    -0.000000
      g+3     :     0.000000
      g-3     :     0.000000
      g+4     :     0.000000
      g-4     :     0.000000
  1 S s       :    -0.021134  s :    -0.021134
      pz      :    -0.662292  p :    -0.680497
      px      :    -0.009102
      py      :    -0.009102
      dz2     :     0.002552  d :    -0.001684
      dxz     :    -0.002296
      dyz     :    -0.002296
      dx2y2   :     0.000178
      dxy     :     0.000178
      f0      :     0.000290  f :    -0.000831
      f+1     :    -0.000603
      f-1     :    -0.000603
      f+2     :     0.000043
      f-2     :     0.000043
      f+3     :    -0.000000
      f-3     :     0.000000


                     *******************************
                     * LOEWDIN POPULATION ANALYSIS *
                     *******************************

-------------------------------------------
LOEWDIN ATOMIC CHARGES AND SPIN POPULATIONS
-------------------------------------------
   0 Mn:    0.037236    5.536961
   1 S :   -0.037236   -0.536961

----------------------------------------------------
LOEWDIN REDUCED ORBITAL CHARGES AND SPIN POPULATIONS
----------------------------------------------------
CHARGE
  0 Mns       :     6.791643  s :     6.791643
      pz      :     4.327747  p :    12.681691
      px      :     4.176972
      py      :     4.176972
      dz2     :     1.185397  d :     5.475868
      dxz     :     1.145831
      dyz     :     1.145831
      dx2y2   :     0.999404
      dxy     :     0.999404
      f0      :     0.006127  f :     0.013421
      f+1     :     0.003627
      f-1     :     0.003627
      f+2     :     0.000020
      f-2     :     0.000020
      f+3     :     0.000000
      f-3     :     0.000000
      g0      :     0.000067  g :     0.000142
      g+1     :     0.000037
      g-1     :     0.000037
      g+2     :     0.000000
      g-2     :     0.000000
      g+3     :     0.000000
      g-3     :     0.000000
      g+4     :     0.000000
      g-4     :     0.000000
  1 S s       :     5.505814  s :     5.505814
      pz      :     3.134707  p :    10.454006
      px      :     3.659649
      py      :     3.659649
      dz2     :     0.040516  d :     0.063137
      dxz     :     0.010922
      dyz     :     0.010922
      dx2y2   :     0.000389
      dxy     :     0.000389
      f0      :     0.007981  f :     0.014279
      f+1     :     0.002962
      f-1     :     0.002962
      f+2     :     0.000187
      f-2     :     0.000187
      f+3     :     0.000000
      f-3     :     0.000000

SPIN
  0 Mns       :     0.591418  s :     0.591418
      pz      :     0.063046  p :     0.190084
      px      :     0.063519
      py      :     0.063519
      dz2     :     0.890884  d :     4.758937
      dxz     :     0.934622
      dyz     :     0.934622
      dx2y2   :     0.999404
      dxy     :     0.999404
      f0      :    -0.002665  f :    -0.003431
      f+1     :    -0.000403
      f-1     :    -0.000403
      f+2     :     0.000020
      f-2     :     0.000020
      f+3     :     0.000000
      f-3     :     0.000000
      g0      :    -0.000035  g :    -0.000047
      g+1     :    -0.000006
      g-1     :    -0.000006
      g+2     :     0.000000
      g-2     :     0.000000
      g+3     :     0.000000
      g-3     :     0.000000
      g+4     :     0.000000
      g-4     :     0.000000
  1 S s       :    -0.002494  s :    -0.002494
      pz      :    -0.554047  p :    -0.558057
      px      :    -0.002005
      py      :    -0.002005
      dz2     :     0.011343  d :     0.017828
      dxz     :     0.002853
      dyz     :     0.002853
      dx2y2   :     0.000389
      dxy     :     0.000389
      f0      :     0.002549  f :     0.005762
      f+1     :     0.001420
      f-1     :     0.001420
      f+2     :     0.000187
      f-2     :     0.000187
      f+3     :    -0.000000
      f-3     :     0.000000


                      *****************************
                      * MAYER POPULATION ANALYSIS *
                      *****************************

  NA   - Mulliken gross atomic population
  ZA   - Total nuclear charge
  QA   - Mulliken gross atomic charge
  VA   - Mayer's total valence
  BVA  - Mayer's bonded valence
  FA   - Mayer's free valence

  ATOM       NA         ZA         QA         VA         BVA        FA
  0 Mn    24.3595    25.0000     0.6405     6.8091     1.4422     5.3669
  1 S     16.6405    16.0000    -0.6405     1.9259     1.4422     0.4837

  Mayer bond orders larger than 0.100000
B(  0-Mn,  1-S ) :   1.4422 

-------
TIMINGS
-------

Total SCF time: 0 days 0 hours 0 min 5 sec 

Total time                  ....       5.721 sec
Sum of individual times     ....       5.451 sec  ( 95.3%)

Fock matrix formation       ....       5.147 sec  ( 90.0%)
Diagonalization             ....       0.099 sec  (  1.7%)
Density matrix formation    ....       0.017 sec  (  0.3%)
Population analysis         ....       0.005 sec  (  0.1%)
Initial guess               ....       0.106 sec  (  1.9%)
Orbital Transformation      ....       0.000 sec  (  0.0%)
Orbital Orthonormalization  ....       0.000 sec  (  0.0%)
DIIS solution               ....       0.055 sec  (  1.0%)


           ************************************************************
           *        Program running with 24 parallel MPI-processes    *
           *              working on a common directory               *
           ************************************************************


------------------------------------------------------------------------------- 
                              ORCA-MATRIX DRIVEN CI                            
------------------------------------------------------------------------------- 

--------------------------------
AUTOMATIC CHOICE OF INCORE LEVEL
--------------------------------

Memory available                           ...   2500.00 MB
Memory needed for S+T                      ...     14.35 MB
Memory needed for J+K                      ...     28.81 MB
Memory needed for DIIS                     ...    200.88 MB
Memory needed for 3-ext                    ...     56.71 MB
Memory needed for 4-ext                    ...    183.22 MB
Memory needed for triples                  ...     21.81 MB
 -> Final InCoreLevel    ... 5
 -> check shows that triples correction can be computed


Wavefunction type
-----------------
Correlation treatment                      ...      CCSD     
Single excitations                         ... ON
Orbital optimization                       ... OFF
Calculation of Z vector                    ... OFF
Calculation of Brueckner orbitals          ... OFF
Perturbative triple excitations            ... ON
Calculation of F12 correction              ... OFF
Frozen core treatment                      ... chemical core (20 el)
Reference Wavefunction                     ... UHF
  Alpha-MOs occ    :    10 ...   22 ( 13 MO's/ 13 electrons)
  Beta-MOs occ     :    10 ...   17 (  8 MO's/  8 electrons)
  Alpha-MOs virt   :    23 ...  105 ( 83 MO's              )
  Beta-MOs virt    :    18 ...  105 ( 88 MO's              )
Number of AO's                             ...    106
Number of electrons                        ...     41
Number of correlated electrons             ...     21

Algorithmic settings
--------------------
Integral transformation                    ... AO direct full transformation
K(C) Formation                             ... FULL-MO TRAFO
Maximum number of iterations               ...        50
Convergence tolerance (max. residuum)      ... 1.000e-06
Level shift for amplitude update           ... 2.000e-01
Maximum number of DIIS vectors             ...         7
DIIS turned on at iteration                ...         0
Damping before turning on DIIS             ...     0.500
Damping after turning on DIIS              ...     0.000
Pair specific amplitude update             ... OFF
Natural orbital iterations                 ... OFF
Perturbative natural orbital generation    ... OFF
Printlevel                                 ... 2

Memory handling:
----------------
Maximum memory for working arrays          ...   2500 MB
Data storage in matrix containers          ... UNCOMPRESSED
Data type for integral storage             ... DOUBLE
In-Core Storage of quantities:
   Amplitudes+Sigma Vector      ... YES
   J+K operators                ... YES
   DIIS vectors                 ... YES
   3-external integrals         ... YES
   4-external integrals         ... YES


Initializing the integral package          ... done
Warning: reference  - re-canonicalizations have been set to INT 1 VIRT 1

--------------------------
UNRESTRICTED FOCK OPERATOR
--------------------------

<ss|ss>:         1953 b           67 skpd (  3.4%)    0.001 s ( 0.001 ms/b)
<ss|sp>:         6510 b          215 skpd (  3.3%)    0.002 s ( 0.000 ms/b)
<ss|sd>:         4650 b          197 skpd (  4.2%)    0.003 s ( 0.001 ms/b)
<ss|sf>:         1984 b          102 skpd (  5.1%)    0.001 s ( 0.000 ms/b)
<ss|sg>:          682 b           36 skpd (  5.3%)    0.000 s ( 0.001 ms/b)
<ss|pp>:         3348 b          124 skpd (  3.7%)    0.002 s ( 0.001 ms/b)
<ss|pd>:         4278 b          169 skpd (  4.0%)    0.001 s ( 0.000 ms/b)
<ss|pf>:         1860 b          105 skpd (  5.6%)    0.001 s ( 0.001 ms/b)
<ss|pg>:          620 b           29 skpd (  4.7%)    0.001 s ( 0.001 ms/b)
<ss|dd>:         1736 b           58 skpd (  3.3%)    0.001 s ( 0.001 ms/b)
<ss|df>:         1302 b           59 skpd (  4.5%)    0.001 s ( 0.001 ms/b)
<ss|dg>:          434 b           19 skpd (  4.4%)    0.001 s ( 0.002 ms/b)
<ss|ff>:          372 b           13 skpd (  3.5%)    0.000 s ( 0.001 ms/b)
<ss|fg>:          186 b            6 skpd (  3.2%)    0.001 s ( 0.004 ms/b)
<ss|gg>:           62 b            2 skpd (  3.2%)    0.001 s ( 0.015 ms/b)
<sp|sp>:         5565 b          130 skpd (  2.3%)    0.002 s ( 0.000 ms/b)
<sp|sd>:         7875 b          256 skpd (  3.3%)    0.003 s ( 0.000 ms/b)
<sp|sf>:         3360 b          154 skpd (  4.6%)    0.001 s ( 0.000 ms/b)
<sp|sg>:         1155 b           50 skpd (  4.3%)    0.001 s ( 0.001 ms/b)
<sp|pp>:         5670 b          129 skpd (  2.3%)    0.004 s ( 0.001 ms/b)
<sp|pd>:         7245 b          106 skpd (  1.5%)    0.004 s ( 0.000 ms/b)
<sp|pf>:         3150 b          114 skpd (  3.6%)    0.003 s ( 0.001 ms/b)
<sp|pg>:         1050 b           19 skpd (  1.8%)    0.002 s ( 0.002 ms/b)
<sp|dd>:         2940 b           38 skpd (  1.3%)    0.004 s ( 0.001 ms/b)
<sp|df>:         2205 b           45 skpd (  2.0%)    0.003 s ( 0.001 ms/b)
<sp|dg>:          735 b           16 skpd (  2.2%)    0.002 s ( 0.003 ms/b)
<sp|ff>:          630 b            6 skpd (  1.0%)    0.001 s ( 0.002 ms/b)
<sp|fg>:          315 b            3 skpd (  1.0%)    0.001 s ( 0.005 ms/b)
<sp|gg>:          105 b            1 skpd (  1.0%)    0.002 s ( 0.019 ms/b)
<sd|sd>:         2850 b          103 skpd (  3.6%)    0.001 s ( 0.000 ms/b)
<sd|sf>:         2400 b          123 skpd (  5.1%)    0.001 s ( 0.000 ms/b)
<sd|sg>:          825 b           48 skpd (  5.8%)    0.001 s ( 0.002 ms/b)
<sd|pp>:         4050 b          139 skpd (  3.4%)    0.003 s ( 0.001 ms/b)
<sd|pd>:         5175 b          102 skpd (  2.0%)    0.004 s ( 0.001 ms/b)
<sd|pf>:         2250 b          121 skpd (  5.4%)    0.002 s ( 0.001 ms/b)
<sd|pg>:          750 b           18 skpd (  2.4%)    0.003 s ( 0.003 ms/b)
<sd|dd>:         2100 b           33 skpd (  1.6%)    0.005 s ( 0.003 ms/b)
<sd|df>:         1575 b           44 skpd (  2.8%)    0.002 s ( 0.001 ms/b)
<sd|dg>:          525 b           13 skpd (  2.5%)    0.003 s ( 0.006 ms/b)
<sd|ff>:          450 b            7 skpd (  1.6%)    0.002 s ( 0.003 ms/b)
<sd|fg>:          225 b            5 skpd (  2.2%)    0.002 s ( 0.010 ms/b)
<sd|gg>:           75 b            1 skpd (  1.3%)    0.003 s ( 0.040 ms/b)
<sf|sf>:          528 b           33 skpd (  6.2%)    0.000 s ( 0.001 ms/b)
<sf|sg>:          352 b           27 skpd (  7.7%)    0.001 s ( 0.003 ms/b)
<sf|pp>:         1728 b           75 skpd (  4.3%)    0.002 s ( 0.001 ms/b)
<sf|pd>:         2208 b           82 skpd (  3.7%)    0.003 s ( 0.001 ms/b)
<sf|pf>:          960 b           65 skpd (  6.8%)    0.002 s ( 0.002 ms/b)
<sf|pg>:          320 b           12 skpd (  3.8%)    0.002 s ( 0.006 ms/b)
<sf|dd>:          896 b           29 skpd (  3.2%)    0.004 s ( 0.004 ms/b)
<sf|df>:          672 b           33 skpd (  4.9%)    0.002 s ( 0.003 ms/b)
<sf|dg>:          224 b            9 skpd (  4.0%)    0.002 s ( 0.011 ms/b)
<sf|ff>:          192 b            6 skpd (  3.1%)    0.001 s ( 0.007 ms/b)
<sf|fg>:           96 b            3 skpd (  3.1%)    0.002 s ( 0.017 ms/b)
<sf|gg>:           32 b            1 skpd (  3.1%)    0.002 s ( 0.070 ms/b)
<sg|sg>:           66 b            8 skpd ( 12.1%)    0.000 s ( 0.004 ms/b)
<sg|pp>:          594 b           22 skpd (  3.7%)    0.001 s ( 0.003 ms/b)
<sg|pd>:          759 b           25 skpd (  3.3%)    0.002 s ( 0.003 ms/b)
<sg|pf>:          330 b           24 skpd (  7.3%)    0.001 s ( 0.003 ms/b)
<sg|pg>:          110 b            9 skpd (  8.2%)    0.001 s ( 0.012 ms/b)
<sg|dd>:          308 b            8 skpd (  2.6%)    0.003 s ( 0.008 ms/b)
<sg|df>:          231 b           12 skpd (  5.2%)    0.001 s ( 0.005 ms/b)
<sg|dg>:           77 b            6 skpd (  7.8%)    0.002 s ( 0.027 ms/b)
<sg|ff>:           66 b            4 skpd (  6.1%)    0.001 s ( 0.011 ms/b)
<sg|fg>:           33 b            3 skpd (  9.1%)    0.001 s ( 0.033 ms/b)
<sg|gg>:           11 b            1 skpd (  9.1%)    0.001 s ( 0.124 ms/b)
<pp|pp>:         1485 b           25 skpd (  1.7%)    0.003 s ( 0.002 ms/b)
<pp|pd>:         3726 b           60 skpd (  1.6%)    0.004 s ( 0.001 ms/b)
<pp|pf>:         1620 b           44 skpd (  2.7%)    0.002 s ( 0.001 ms/b)
<pp|pg>:          540 b            9 skpd (  1.7%)    0.002 s ( 0.004 ms/b)
<pp|dd>:         1512 b           26 skpd (  1.7%)    0.005 s ( 0.003 ms/b)
<pp|df>:         1134 b           25 skpd (  2.2%)    0.002 s ( 0.002 ms/b)
<pp|dg>:          378 b            8 skpd (  2.1%)    0.003 s ( 0.008 ms/b)
<pp|ff>:          324 b            6 skpd (  1.9%)    0.002 s ( 0.005 ms/b)
<pp|fg>:          162 b            3 skpd (  1.9%)    0.002 s ( 0.014 ms/b)
<pp|gg>:           54 b            1 skpd (  1.9%)    0.003 s ( 0.056 ms/b)
<pd|pd>:         2415 b            7 skpd (  0.3%)    0.006 s ( 0.002 ms/b)
<pd|pf>:         2070 b           54 skpd (  2.6%)    0.005 s ( 0.002 ms/b)
<pd|pg>:          690 b            3 skpd (  0.4%)    0.005 s ( 0.007 ms/b)
<pd|dd>:         1932 b            3 skpd (  0.2%)    0.010 s ( 0.005 ms/b)
<pd|df>:         1449 b            9 skpd (  0.6%)    0.005 s ( 0.003 ms/b)
<pd|dg>:          483 b            2 skpd (  0.4%)    0.007 s ( 0.014 ms/b)
<pd|ff>:          414 b            0 skpd (  0.0%)    0.004 s ( 0.009 ms/b)
<pd|fg>:          207 b            0 skpd (  0.0%)    0.005 s ( 0.024 ms/b)
<pd|gg>:           69 b            0 skpd (  0.0%)    0.007 s ( 0.101 ms/b)
<pf|pf>:          465 b           28 skpd (  6.0%)    0.002 s ( 0.004 ms/b)
<pf|pg>:          300 b           11 skpd (  3.7%)    0.003 s ( 0.011 ms/b)
<pf|dd>:          840 b           23 skpd (  2.7%)    0.006 s ( 0.008 ms/b)
<pf|df>:          630 b           27 skpd (  4.3%)    0.003 s ( 0.005 ms/b)
<pf|dg>:          210 b            8 skpd (  3.8%)    0.004 s ( 0.021 ms/b)
<pf|ff>:          180 b            6 skpd (  3.3%)    0.003 s ( 0.016 ms/b)
<pf|fg>:           90 b            3 skpd (  3.3%)    0.003 s ( 0.040 ms/b)
<pf|gg>:           30 b            1 skpd (  3.3%)    0.004 s ( 0.153 ms/b)
<pg|pg>:           55 b            0 skpd (  0.0%)    0.001 s ( 0.023 ms/b)
<pg|dd>:          280 b            2 skpd (  0.7%)    0.004 s ( 0.015 ms/b)
<pg|df>:          210 b            4 skpd (  1.9%)    0.002 s ( 0.009 ms/b)
<pg|dg>:           70 b            1 skpd (  1.4%)    0.003 s ( 0.044 ms/b)
<pg|ff>:           60 b            0 skpd (  0.0%)    0.001 s ( 0.021 ms/b)
<pg|fg>:           30 b            0 skpd (  0.0%)    0.002 s ( 0.074 ms/b)
<pg|gg>:           10 b            0 skpd (  0.0%)    0.003 s ( 0.260 ms/b)
<dd|dd>:          406 b            1 skpd (  0.2%)    0.005 s ( 0.012 ms/b)
<dd|df>:          588 b            3 skpd (  0.5%)    0.003 s ( 0.005 ms/b)
<dd|dg>:          196 b            1 skpd (  0.5%)    0.005 s ( 0.024 ms/b)
<dd|ff>:          168 b            0 skpd (  0.0%)    0.003 s ( 0.015 ms/b)
<dd|fg>:           84 b            0 skpd (  0.0%)    0.004 s ( 0.044 ms/b)
<dd|gg>:           28 b            0 skpd (  0.0%)    0.005 s ( 0.178 ms/b)
<df|df>:          231 b            6 skpd (  2.6%)    0.003 s ( 0.015 ms/b)
<df|dg>:          147 b            4 skpd (  2.7%)    0.005 s ( 0.035 ms/b)
<df|ff>:          126 b            3 skpd (  2.4%)    0.003 s ( 0.027 ms/b)
<df|fg>:           63 b            3 skpd (  4.8%)    0.004 s ( 0.069 ms/b)
<df|gg>:           21 b            1 skpd (  4.8%)    0.005 s ( 0.272 ms/b)
<dg|dg>:           28 b            1 skpd (  3.6%)    0.003 s ( 0.094 ms/b)
<dg|ff>:           42 b            0 skpd (  0.0%)    0.001 s ( 0.034 ms/b)
<dg|fg>:           21 b            0 skpd (  0.0%)    0.002 s ( 0.118 ms/b)
<dg|gg>:            7 b            0 skpd (  0.0%)    0.003 s ( 0.419 ms/b)
<ff|ff>:           21 b            0 skpd (  0.0%)    0.001 s ( 0.052 ms/b)
<ff|fg>:           18 b            0 skpd (  0.0%)    0.002 s ( 0.109 ms/b)
<ff|gg>:            6 b            0 skpd (  0.0%)    0.003 s ( 0.442 ms/b)
<fg|fg>:            6 b            0 skpd (  0.0%)    0.001 s ( 0.243 ms/b)
<fg|gg>:            3 b            0 skpd (  0.0%)    0.002 s ( 0.725 ms/b)
<gg|gg>:            1 b            0 skpd (  0.0%)    0.002 s ( 1.572 ms/b)
Recanonicalizing the internal orbitals
Recanonicalizing the virtual orbitals
Time needed for Fock operator              ...            0.379 sec
Reference energy                           ...  -1547.377768746
Warning: for UHF the TrafoType has to be JK
Warning: for UHF the K(C)-option cannot be MO but must be AOX

-------------------------------
PARTIAL EXCHANGE TRANSFORMATION
-------------------------------

Transformation type                        ... two-operators
Generation of integrals (i,mue|j,nue)      ... ON
Generation of integrals (mue,kappa|nue,tau)... ON
Generation of integrals (i,mue|a,nue)      ... ON
Dimension of the basis                     ...  106
Number of internal alpha-MOs               ...   13 (  10-  22)
Number of internal beta-MOs                ...    8 (  10-  17)
Number of external alpha-MOs               ...   83 (  23- 105)
Number of external beta-MOs                ...   88 (  18- 105)
Pair cutoff                                ... 0.000e+00 Eh
Number of AO pairs in the trafo            ... 5671
Total Number of distinct AO pairs          ... 5671
Memory devoted for trafo                   ... 2500.0 MB 
Max. Number of MO pairs treated together   ... 29163      
Number Format for Storage                  ... Double (8 Byte)
Integral package used                      ... LIBINT

Starting integral evaluation:
    ... done with AO integral generation
Closing buffer AOK[aa] ( 0.00 GB; CompressionRatio= 0.99)
Closing buffer AOK[bb] ( 0.00 GB; CompressionRatio= 0.98)
Closing buffer AOK[ab] ( 0.00 GB; CompressionRatio= 0.99)
Closing buffer AOK[ba] ( 0.00 GB; CompressionRatio= 0.99)
Collecting buffer AOK 
Closing buffer IAAO1[aa] ( 0.00 GB; CompressionRatio= 1.00)
Closing buffer IAAO1[bb] ( 0.00 GB; CompressionRatio= 1.00)
Closing buffer IAAO1[ab] ( 0.00 GB; CompressionRatio= 1.00)
Closing buffer IAAO1[ba] ( 0.00 GB; CompressionRatio= 1.00)
Closing buffer IAAO2[aa] ( 0.00 GB; CompressionRatio= 1.00)
Closing buffer IAAO2[bb] ( 0.00 GB; CompressionRatio= 1.00)
Closing buffer IAAO2[ab] ( 0.00 GB; CompressionRatio= 1.00)
Closing buffer IAAO2[ba] ( 0.00 GB; CompressionRatio= 1.00)
Collecting buffer IAAO 
Closing buffer PRQS    ( 0.01 GB; CompressionRatio= 1.00)
Collecting buffer PRQS 
Number of alpha/alpha MO pairs in trafo    ...   91
Number of beta /beta  MO pairs in trafo    ...   36
Number of alpha/ beta MO pairs in trafo    ...  104
------------------------
SORTING OF (i,mue|j,nue)
------------------------

SORTING OF ALPHA/ALPHA PAIRS
IBATCH = 1 of  1
Closing buffer KAO[aa] ( 0.00 GB; CompressionRatio= 1.00)
Collecting buffer KAO 
SORTING OF BETA /BETA  PAIRS
IBATCH = 1 of  1
Closing buffer KAO[bb] ( 0.00 GB; CompressionRatio= 1.00)
Collecting buffer KAO 
SORTING OF ALPHA/BETA  PAIRS
IBATCH = 1 of  1
Closing buffer KAO[ab] ( 0.00 GB; CompressionRatio= 0.999866518354)
Collecting buffer KAO[ab] 
------------------------
SORTING OF (i,mue|a,nue)
------------------------

Number of alpha/alpha (i,a) pairs in trafo  ... 1079
Number of beta /beta  (i,a) pairs in trafo  ...  704
Number of alpha/ beta (i,a) pairs in trafo  ... 1144
Number of beta /alpha (i,a) pairs in trafo  ...  664
Setting up the alpha/alpha list             ... done
Setting up the beta /beta  list             ... done
Setting up the alpha/beta  list             ... done
Setting up the beta /alpha list             ... done
    ... Now sorting (i,mue|a,nue)integrals
    ... Integrals (i,b|a,c) will be made on the fly
SORTING OF ALPHA/ALPHA PAIRS
IBATCH = 1 of  1
Closing buffer IPAQ[aa]  0.00 GB; CompressionRatio= 1.00)
SORTING OF BETA /BETA  PAIRS
IBATCH = 1 of  1
Closing buffer IPAQ[bb]( 0.00 GB; CompressionRatio= 1.00)
SORTING OF ALPHA/BETA  PAIRS (NMatSort_ab=48)
IBATCH = 1 of  1
Closing buffer IPAQ[ab]( 0.00 GB; CompressionRatio= 1.00)
SORTING OF BETA/ALPHA  PAIRS
IBATCH = 1 of  1
Closing buffer IPAQ[ba]( 0.00 GB; CompressionRatio= 1.00)
N(AO-Batches) Done                         ...      8595 
N(AO-Batches) Skipped                      ...         0 
N(IJ)-pairs Skipped                        ...         0 
TOTAL TIME for half transformation         ...     1.470 sec
AO-integral generation                     ...     0.052 sec
Half transformation                        ...     0.015 sec
K-integral sorting                         ...     0.870 sec
<ss|**>: 
------------------------------
PARTIAL COULOMB TRANSFORMATION
------------------------------

Transformation type                        ... two-operators
Dimension of the basis                     ...  106
Number of internal alpha-MOs               ...   13 (10-22)
Number of internal beta-MOs                ...    8 (10-17)
Pair cutoff                                ... 0.000e+00 Eh
Number of AO pairs included in the trafo   ... 5671
Total Number of distinct AO pairs          ... 5671
Memory devoted for trafo                   ... 2500.0 MB 
Max. Number of MO pairs treated together   ... 57781      
Max. Number of MOs treated per batch       ...  545      
Number Format for Storage                  ... Double (8 Byte)
AO-integral source                         ... DIRECT
Integral package used                      ... LIBINT

Starting integral evaluation:
       31868 b        0 skpd     0.010 s (  0.000 ms/b)
<sp|**>: <sd|**>:        53970 b        0 skpd     0.018 s (  0.000 ms/b)
<sf|**>:        38550 b        0 skpd     0.025 s (  0.001 ms/b)
       16448 b        0 skpd     0.013 s (  0.001 ms/b)
<sg|**>:         5654 b        0 skpd     0.020 s (  0.004 ms/b)
<pp|**>:        27756 b        0 skpd     0.029 s (  0.001 ms/b)
<pd|**>:        35466 b        0 skpd     0.046 s (  0.001 ms/b)
<pf|**>:        15420 b        0 skpd     0.028 s (  0.002 ms/b)
<pg|**>:         5140 b        0 skpd     0.031 s (  0.006 ms/b)
<dd|**>:        14392 b        0 skpd     0.059 s (  0.004 ms/b)
<df|**>:        10794 b        0 skpd     0.025 s (  0.002 ms/b)
<dg|**>:         3598 b        0 skpd     0.039 s (  0.011 ms/b)
<ff|**>:         3084 b        0 skpd     0.017 s (  0.006 ms/b)
<fg|**>:         1542 b        0 skpd     0.025 s (  0.016 ms/b)
<gg|**>:          514 b        0 skpd     0.038 s (  0.073 ms/b)
Closing buffer AOJ[aa] ( 0.00 GB; CompressionRatio= 0.98)
Closing buffer AOJ[bb] ( 0.00 GB; CompressionRatio= 0.00)
Collecting buffer AOJ 
    ... done with AO integral generation
Number of Alpha-MO pairs included          ...   91
Number of Beta-MO pairs included           ...   36
    ... Now sorting integrals
SORTING ALPHA/ALPHA PAIRS
IBATCH = 1 of  1
Closing buffer JAO[aa] ( 0.00 GB; CompressionRatio= 1.00)
SORTING BETA/BETA PAIRS
IBATCH = 1 of  1
Closing buffer JAO[bb] ( 0.00 GB; CompressionRatio= 1.00)
Collecting buffer JAO 
TOTAL TIME for half transformation         ...     0.450 sec
AO-integral generation                     ...     0.414 sec
Half transformation                        ...     0.012 sec
J-integral sorting                         ...     0.016 sec

-------------------------- SECOND HALF TRANSFORMATION -------------------------
Formation of (ij|kl),(ij|ka), (ij|ab)      ... ok (     0.052 sec)
Formation of (ik|jl),(ik|ja), (ia|jb)      ... ok (     0.085 sec)


-----------------------
SPIN UNRESTRICTED GUESS
-----------------------

Entering MDCI_UHF_Guess, Tailored=0
Spin-components of the MP2 energy:
EMP2(aa)=     -0.156610762
EMP2(bb)=     -0.058568250
EMP2(ab)=     -0.397528555

Initial guess performed in     0.036 sec
E(0)                                       ...  -1547.377768746
E(MP2)                                     ...     -0.612707567
Initial E(tot)                             ...  -1547.990476313
<T|T>                                      ...      0.154396023
Number of pairs included                   ... 210

------------------------------------------------
                  UHF COUPLED CLUSTER ITERATIONS
------------------------------------------------

Number of amplitudes to be optimized       ...      1137555

Iter       E(tot)           E(Corr)          Delta-E          Residual     Time      <S|S>**1/2
  0  -1547.990476313     -0.612707567      0.000000000      0.019397737    1.11      0.000000010
                           *** Turning on DIIS ***
  1  -1547.989139876     -0.611371130      0.001336436      0.013632455    1.18      0.062889445
  2  -1548.002700433     -0.624931687     -0.013560556      0.012020347    1.19      0.085561407
  3  -1548.008222444     -0.630453698     -0.005522011      0.010022854    1.23      0.122868569
  4  -1548.012609163     -0.634840417     -0.004386720      0.007488079    1.22      0.162748081
  5  -1548.017656323     -0.639887577     -0.005047160      0.003623928    1.24      0.222797075
  6  -1548.019483231     -0.641714485     -0.001826908      0.001410141    1.26      0.253145209
  7  -1548.020281574     -0.642512828     -0.000798343      0.000487290    1.26      0.265209292
  8  -1548.020423006     -0.642654261     -0.000141433      0.000313584    1.25      0.268010172
  9  -1548.020481235     -0.642712489     -0.000058228      0.000183996    1.26      0.269059015
 10  -1548.020504822     -0.642736076     -0.000023588      0.000089349    1.26      0.269385163
 11  -1548.020488895     -0.642720149      0.000015928      0.000039401    1.22      0.269168875
 12  -1548.020486542     -0.642717796      0.000002353      0.000018934    1.22      0.269023860
 13  -1548.020484628     -0.642715882      0.000001914      0.000011215    1.28      0.268960358
 14  -1548.020486348     -0.642717602     -0.000001720      0.000009786    1.21      0.268944487
 15  -1548.020487364     -0.642718618     -0.000001016      0.000006477    1.21      0.268942305
 16  -1548.020488287     -0.642719541     -0.000000922      0.000003789    1.25      0.268943385
 17  -1548.020488719     -0.642719973     -0.000000432      0.000001418    1.27      0.268946073
 18  -1548.020488949     -0.642720203     -0.000000230      0.000000441    1.21      0.268947739
               --- The Coupled-Cluster iterations have converged ---

----------------------
COUPLED CLUSTER ENERGY
----------------------

E(0)                                       ...  -1547.377768746
E(CORR)                                    ...     -0.642720203
E(TOT)                                     ...  -1548.020488949
Singles norm <S|S>**1/2                    ...      0.268947739 ( 0.177243063, 0.091704676)  
T1 diagnostic                              ...      0.058689208                              

------------------
LARGEST AMPLITUDES
------------------
  22a-> 23a  -1a-> -1a       0.251905
  17b-> 25b  -1b-> -1b       0.091986
  16b-> 24b  -1b-> -1b       0.091986
  15b-> 21b  -1b-> -1b       0.072579
  15b-> 18b  -1b-> -1b       0.071913
  16b-> 25b  -1b-> -1b       0.062581
  17b-> 24b  -1b-> -1b       0.062581
  15b-> 28b  -1b-> -1b       0.059784
  15b-> 27b  -1b-> -1b       0.059135
  22a-> 23a  15b-> 18b       0.056042
  19a-> 23a  -1a-> -1a       0.055881
  15b-> 33b  -1b-> -1b       0.048020
  16b-> 31b  -1b-> -1b       0.046498
  17b-> 32b  -1b-> -1b       0.046498
  22a-> 24a  21a-> 23a       0.043057
  22a-> 23a  21a-> 24a       0.043057

----------------------
UHF TRIPLES CORRECTION (Algorithm 1)
----------------------

Multiplier for the singles contribution    ...      1.000000000

SPIN-CASE Alpha-Alpha-Alpha:
10% done
20% done
30% done
40% done
50% done
60% done
70% done
80% done
90% done


SPIN-CASE Beta-Beta-Beta:
10% done
20% done
30% done
40% done
50% done
60% done
70% done
80% done
90% done


SPIN-CASE Alpha-Alpha-Beta:
10% done
20% done
30% done
40% done
50% done
60% done
70% done
80% done
90% done


SPIN-CASE Beta-Beta-Alpha:
10% done
20% done
30% done
40% done
50% done
60% done
70% done
80% done
90% done


Triples Correction (T)                     ...     -0.027281562
    alpha-alpha-alpha ... -0.002056220 (  7.5%)
    alpha-alpha-beta  ... -0.014943019 ( 54.8%)
    alpha-beta -beta  ... -0.009793630 ( 35.9%)
    beta -beta -beta  ... -0.000488693 (  1.8%)
Scaling of triples based on CCSD energies (Peterson et al. Molecular Physics 113, 1551 (2015))
E(T*) = f*E(T) where f = E(F12-CCSD)/E(CCSD) 
f = CCSD (with F12)/ CCSD (without F12)    ...      1.000000000
Scaled triples correction (T)              ...     -0.027281562

Final correlation energy                   ...     -0.670001765
E(CCSD)                                    ...  -1548.020488949
E(CCSD(T))                                 ...  -1548.047770511



        !!!!!!!!!!!!!!!!!!!!!!!!!!!!!!!!!!!!!!!!!!!!!!!!!!!!!!!!!!!!!!!!!!!!!!!!!! 
        !  Warning: Densities are linearized densities                           !
        !!!!!!!!!!!!!!!!!!!!!!!!!!!!!!!!!!!!!!!!!!!!!!!!!!!!!!!!!!!!!!!!!!!!!!!!!! 

NORM  =      1.345127517 sqrt=     1.159796326
W(HF) =      0.743423941
------------------------------------------------------------------------------
                           ORCA POPULATION ANALYSIS
------------------------------------------------------------------------------
Input electron density              ... 30_MnS.mdcip
Input spin density                  ... 30_MnS.mdcir
BaseName (.gbw .S,...)              ... 30_MnS

                    ********************************
                    * MULLIKEN POPULATION ANALYSIS *
                    ********************************

------------------------------------------
MULLIKEN ATOMIC CHARGES AND SPIN DENSITIES
------------------------------------------
   0 Mn:    0.494147    5.155572
   1 S :   -0.494147   -0.155572
Sum of atomic charges       :   -0.0000000
Sum of atomic spin densities:    5.0000000

---------------------------------------------------
MULLIKEN REDUCED ORBITAL CHARGES AND SPIN DENSITIES
---------------------------------------------------
CHARGE
  0 Mns       :     6.684362  s :     6.684362
      pz      :     4.059432  p :    12.428485
      px      :     4.184527
      py      :     4.184527
      dz2     :     1.068869  d :     5.357583
      dxz     :     1.142221
      dyz     :     1.142221
      dx2y2   :     1.002136
      dxy     :     1.002136
      f0      :     0.005490  f :     0.032428
      f+1     :     0.005520
      f-1     :     0.005520
      f+2     :     0.004160
      f-2     :     0.004160
      f+3     :     0.003789
      f-3     :     0.003789
      g0      :     0.000353  g :     0.002995
      g+1     :     0.000349
      g-1     :     0.000349
      g+2     :     0.000331
      g-2     :     0.000331
      g+3     :     0.000325
      g-3     :     0.000325
      g+4     :     0.000315
      g-4     :     0.000315
  1 S s       :     5.866760  s :     5.866760
      pz      :     3.239687  p :    10.465735
      px      :     3.613024
      py      :     3.613024
      dz2     :     0.033871  d :     0.144073
      dxz     :     0.034127
      dyz     :     0.034127
      dx2y2   :     0.020974
      dxy     :     0.020974
      f0      :     0.004044  f :     0.017579
      f+1     :     0.003619
      f-1     :     0.003619
      f+2     :     0.001722
      f-2     :     0.001722
      f+3     :     0.001427
      f-3     :     0.001427

SPIN
  0 Mns       :     0.451360  s :     0.451360
      pz      :     0.018027  p :     0.221033
      px      :     0.101503
      py      :     0.101503
      dz2     :     0.799678  d :     4.462237
      dxz     :     0.843031
      dyz     :     0.843031
      dx2y2   :     0.988248
      dxy     :     0.988248
      f0      :     0.002438  f :     0.019238
      f+1     :     0.002585
      f-1     :     0.002585
      f+2     :     0.002844
      f-2     :     0.002844
      f+3     :     0.002971
      f-3     :     0.002971
      g0      :     0.000173  g :     0.001703
      g+1     :     0.000178
      g-1     :     0.000178
      g+2     :     0.000188
      g-2     :     0.000188
      g+3     :     0.000196
      g-3     :     0.000196
      g+4     :     0.000202
      g-4     :     0.000202
  1 S s       :    -0.011384  s :    -0.011384
      pz      :    -0.253235  p :    -0.133267
      px      :     0.059984
      py      :     0.059984
      dz2     :    -0.002239  d :    -0.009996
      dxz     :    -0.004862
      dyz     :    -0.004862
      dx2y2   :     0.000983
      dxy     :     0.000983
      f0      :     0.000188  f :    -0.000924
      f+1     :    -0.000510
      f-1     :    -0.000510
      f+2     :    -0.000068
      f-2     :    -0.000068
      f+3     :     0.000022
      f-3     :     0.000022


                     *******************************
                     * LOEWDIN POPULATION ANALYSIS *
                     *******************************

-----------------------------------------
LOEWDIN ATOMIC CHARGES AND SPIN DENSITIES
-----------------------------------------
   0 Mn:    0.009219    5.052109
   1 S :   -0.009219   -0.052109

--------------------------------------------------
LOEWDIN REDUCED ORBITAL CHARGES AND SPIN DENSITIES
--------------------------------------------------
CHARGE
  0 Mns       :     6.663779  s :     6.663779
      pz      :     4.222710  p :    12.651594
      px      :     4.214442
      py      :     4.214442
      dz2     :     1.211097  d :     5.632147
      dxz     :     1.208684
      dyz     :     1.208684
      dx2y2   :     1.001841
      dxy     :     1.001841
      f0      :     0.009867  f :     0.040173
      f+1     :     0.007189
      f-1     :     0.007189
      f+2     :     0.004175
      f-2     :     0.004175
      f+3     :     0.003789
      f-3     :     0.003789
      g0      :     0.000404  g :     0.003088
      g+1     :     0.000370
      g-1     :     0.000370
      g+2     :     0.000331
      g-2     :     0.000331
      g+3     :     0.000325
      g-3     :     0.000325
      g+4     :     0.000315
      g-4     :     0.000315
  1 S s       :     5.493078  s :     5.493078
      pz      :     3.295843  p :    10.319650
      px      :     3.511904
      py      :     3.511904
      dz2     :     0.056354  d :     0.169695
      dxz     :     0.035587
      dyz     :     0.035587
      dx2y2   :     0.021083
      dxy     :     0.021083
      f0      :     0.009738  f :     0.026797
      f+1     :     0.005210
      f-1     :     0.005210
      f+2     :     0.001892
      f-2     :     0.001892
      f+3     :     0.001427
      f-3     :     0.001427

SPIN
  0 Mns       :     0.387304  s :     0.387304
      pz      :     0.013758  p :     0.221807
      px      :     0.104025
      py      :     0.104025
      dz2     :     0.783957  d :     4.422892
      dxz     :     0.831699
      dyz     :     0.831699
      dx2y2   :     0.987768
      dxy     :     0.987768
      f0      :     0.001485  f :     0.018413
      f+1     :     0.002645
      f-1     :     0.002645
      f+2     :     0.002847
      f-2     :     0.002847
      f+3     :     0.002971
      f-3     :     0.002971
      g0      :     0.000162  g :     0.001692
      g+1     :     0.000179
      g-1     :     0.000179
      g+2     :     0.000188
      g-2     :     0.000188
      g+3     :     0.000196
      g-3     :     0.000196
      g+4     :     0.000202
      g-4     :     0.000202
  1 S s       :     0.000408  s :     0.000408
      pz      :    -0.186308  p :    -0.063670
      px      :     0.061319
      py      :     0.061319
      dz2     :     0.002266  d :     0.006201
      dxz     :     0.000690
      dyz     :     0.000690
      dx2y2   :     0.001278
      dxy     :     0.001278
      f0      :     0.001975  f :     0.004952
      f+1     :     0.001352
      f-1     :     0.001352
      f+2     :     0.000114
      f-2     :     0.000114
      f+3     :     0.000022
      f-3     :     0.000022


                      *****************************
                      * MAYER POPULATION ANALYSIS *
                      *****************************

  NA   - Mulliken gross atomic population
  ZA   - Total nuclear charge
  QA   - Mulliken gross atomic charge
  VA   - Mayer's total valence
  BVA  - Mayer's bonded valence
  FA   - Mayer's free valence

  ATOM       NA         ZA         QA         VA         BVA        FA
  0 Mn    24.5059    25.0000     0.4941     7.1609     1.9787     5.1822
  1 S     16.4941    16.0000    -0.4941     2.7828     1.9787     0.8041

  Mayer bond orders larger than 0.100000
B(  0-Mn,  1-S ) :   1.9787 



------------------------------------------------------------------------------- 
                                     TIMINGS                                   
------------------------------------------------------------------------------- 


Total execution time                   ...       29.306 sec

Fock Matrix Formation                  ...        0.379 sec (  1.3%)
Initial Guess                          ...        0.036 sec (  0.1%)
DIIS Solver                            ...        1.992 sec (  6.8%)
State Vector Update                    ...        0.089 sec (  0.3%)
Sigma-vector construction              ...       21.253 sec ( 72.5%)
  <0|H|D>                              ...        0.005 sec (  0.0% of sigma)
  <D|H|D>(0-ext Fock)                  ...        0.041 sec (  0.2% of sigma)
  <D|H|D>(0-ext)                       ...        0.209 sec (  1.0% of sigma)
  <D|H|D>(2-ext Fock)                  ...        0.010 sec (  0.0% of sigma)
  <D|H|D>(2-ext)                       ...        0.520 sec (  2.4% of sigma)
  <D|H|D>(4-ext)                       ...       10.552 sec ( 49.7% of sigma)
  <S|H|0>                              ...        0.882 sec (  4.2% of sigma)
  <S|H|S>                              ...        0.003 sec (  0.0% of sigma)
  <S|H|D>(1-ext)                       ...        0.011 sec (  0.0% of sigma)
  <D|H|S>(1-ext)                       ...        0.151 sec (  0.7% of sigma)
  Fock-dressing                        ...        3.588 sec ( 16.9% of sigma)
  (ik|jl)-dressing                     ...        0.276 sec (  1.3% of sigma)
  (ij|ab),(ia|jb)-dressing             ...        3.967 sec ( 18.7% of sigma)
  Pair energies                        ...        0.009 sec (  0.0% of sigma)
Total Time for computing (T)           ...        2.853 sec (  9.7% of ALL)
  I/O of integral and amplitudes       ...        0.489 sec ( 17.1% of (T))
  External N**7 contributions          ...        0.831 sec ( 29.1% of (T))
  Internal N**7 contributions          ...        0.425 sec ( 14.9% of (T))
  N**6 triples energy contributions    ...        1.070 sec ( 37.5% of (T))

----- Orbital basis set information -----
Your calculation utilizes the basis: def2-QZVPP
   F. Weigend and R. Ahlrichs, Phys. Chem. Chem. Phys. 7, 3297 (2005).

----- AuxJ basis set information -----
Your calculation utilizes the auxiliary basis: def2/J
   F. Weigend, Phys. Chem. Chem. Phys. 8, 1057 (2006).

----- AuxC basis set information -----
Your calculation utilizes the auxiliary basis: def2-QZVPP/C
  H-La, Hf-Rn : A. Hellweg, C. Hattig, S. Hofener and W. Klopper, Theor. Chem. Acc. 117, 587 (2007).
        Ce-Lu : J. Chmela and M. E. Harding, Mol. Phys. (2018).

----- AuxJK basis set information -----
Your calculation utilizes the auxiliary basis: def2/JK
   H-Ba, Hf-Rn: F. Weigend, J. Comput. Chem. 29, 167 (2008).

All done

                     -----------------------------------------
                     Extrapolated Energy 2 Basis=  def2-QZVPP
                     -----------------------------------------

---------------------------------
CARTESIAN COORDINATES (ANGSTROEM)
---------------------------------
  Mn     0.000000    0.000000   -0.022609
  S      0.000000    0.000000    2.022609

----------------------------
CARTESIAN COORDINATES (A.U.)
----------------------------
  NO LB      ZA    FRAG     MASS         X           Y           Z
   0 Mn   25.0000    0    54.940    0.000000    0.000000   -0.042724
   1 S    16.0000    0    32.060    0.000000    0.000000    3.822176

--------------------------------
INTERNAL COORDINATES (ANGSTROEM)
--------------------------------
 Mn     0   0   0     0.000000000000     0.00000000     0.00000000
 S      1   0   0     2.045217171086     0.00000000     0.00000000

---------------------------
INTERNAL COORDINATES (A.U.)
---------------------------
 Mn     0   0   0     0.000000000000     0.00000000     0.00000000
 S      1   0   0     3.864900337746     0.00000000     0.00000000

---------------------
BASIS SET INFORMATION
---------------------
There are 2 groups of distinct atoms

 Group   1 Type Mn  : 24s18p10d4f2g contracted to 11s6p5d4f2g pattern {114111111111/951111/61111/1111/11}
 Group   2 Type S   : 20s14p4d2f1g contracted to 9s6p4d2f1g pattern {1031111111/821111/1111/11/1}

Atom   0Mn   basis set group =>   1
Atom   1S    basis set group =>   2
---------------------------------
AUXILIARY/J BASIS SET INFORMATION
---------------------------------
There are 2 groups of distinct atoms

 Group   1 Type Mn  : 19s5p5d3f3g contracted to 8s5p5d2f3g pattern {121111111/11111/11111/21/111}
 Group   2 Type S   : 14s5p5d2f1g contracted to 8s4p3d1f1g pattern {71111111/2111/311/2/1}

Atom   0Mn   basis set group =>   1
Atom   1S    basis set group =>   2
---------------------------------
AUXILIARY/C BASIS SET INFORMATION
---------------------------------
There are 2 groups of distinct atoms

 Group   1 Type Mn  : 15s13p11d8f7g5h2i contracted to 15s13p11d8f7g5h2i pattern {111111111111111/1111111111111/11111111111/11111111/1111111/11111/11}
 Group   2 Type S   : 12s10p9d6f3g1h contracted to 12s10p9d6f3g1h pattern {111111111111/1111111111/111111111/111111/111/1}

Atom   0Mn   basis set group =>   1
Atom   1S    basis set group =>   2
----------------------------------
AUXILIARY/JK BASIS SET INFORMATION
----------------------------------
There are 2 groups of distinct atoms

 Group   1 Type Mn  : 19s14p12d10f7g3h1i contracted to 16s13p11d9f5g3h1i pattern {4111111111111111/2111111111111/21111111111/211111111/31111/111/1}
 Group   2 Type S   : 16s12p10d4f1g contracted to 13s11p9d4f1g pattern {4111111111111/21111111111/211111111/1111/1}

Atom   0Mn   basis set group =>   1
Atom   1S    basis set group =>   2

Checking for AutoStart:
The File: 30_MnS.gbw exists
Trying to determine its content:
     ... Fine, the file contains calculation information
     ... Fine, the calculation information was read
     ... Fine, the file contains a basis set
     ... Fine, the basis set was read
     ... Fine, the file contains a geometry
     ... Fine, the geometry was read
     ... Fine, the file contains a set of orbitals
     ... Fine, the orbitals can be read
     => possible old guess file was deleted
     => GBW file was renamed to GES file
     => GES file is set as startup file
     => Guess is set to MORead
     ... now leaving AutoStart



           ************************************************************
           *        Program running with 24 parallel MPI-processes    *
           *              working on a common directory               *
[...]
 10  -1548.088234700     -0.676075811     -0.000034462      0.000066519    5.38      0.275378104
 11  -1548.088213974     -0.676055086      0.000020726      0.000027524    5.43      0.275158604
 12  -1548.088214135     -0.676055247     -0.000000161      0.000015660    5.33      0.275068014
 13  -1548.088211150     -0.676052261      0.000002985      0.000007118    5.29      0.274999826
 14  -1548.088213169     -0.676054280     -0.000002019      0.000006952    5.27      0.274993224
 15  -1548.088214272     -0.676055383     -0.000001103      0.000004861    5.25      0.274994741
 16  -1548.088215231     -0.676056342     -0.000000959      0.000003017    5.31      0.274999090
 17  -1548.088215767     -0.676056878     -0.000000536      0.000001220    5.30      0.275002887
 18  -1548.088215936     -0.676057047     -0.000000169      0.000000402    5.34      0.275003799
               --- The Coupled-Cluster iterations have converged ---

----------------------
COUPLED CLUSTER ENERGY
----------------------

E(0)                                       ...  -1547.412158889
E(CORR)                                    ...     -0.676057047
E(TOT)                                     ...  -1548.088215936
Singles norm <S|S>**1/2                    ...      0.275003799 ( 0.183078709, 0.091925090)  
T1 diagnostic                              ...      0.060010749                              

------------------
LARGEST AMPLITUDES
------------------
  22a-> 23a  -1a-> -1a       0.256381
  16b-> 32b  -1b-> -1b       0.082874
  17b-> 31b  -1b-> -1b       0.082874
  15b-> 36b  -1b-> -1b       0.071943
  15b-> 18b  -1b-> -1b       0.067802
  17b-> 29b  -1b-> -1b       0.062175
  16b-> 28b  -1b-> -1b       0.062175
  15b-> 22b  -1b-> -1b       0.053719
  17b-> 28b  -1b-> -1b       0.053645
  16b-> 29b  -1b-> -1b       0.053645
  19a-> 23a  -1a-> -1a       0.051514
  22a-> 26a  -1a-> -1a       0.050781
  15b-> 27b  -1b-> -1b       0.049411
  22a-> 32a  -1a-> -1a       0.047478
  22a-> 23a  15b-> 18b       0.047132
  15b-> 33b  -1b-> -1b       0.046471

----------------------
UHF TRIPLES CORRECTION (Algorithm 1)
----------------------

Multiplier for the singles contribution    ...      1.000000000

SPIN-CASE Alpha-Alpha-Alpha:
10% done
20% done
30% done
40% done
50% done
60% done
70% done
80% done
90% done


SPIN-CASE Beta-Beta-Beta:
10% done
20% done
30% done
40% done
50% done
60% done
70% done
80% done
90% done


SPIN-CASE Alpha-Alpha-Beta:
10% done
20% done
30% done
40% done
50% done
60% done
70% done
80% done
90% done


SPIN-CASE Beta-Beta-Alpha:
10% done
20% done
30% done
40% done
50% done
60% done
70% done
80% done
90% done


Triples Correction (T)                     ...     -0.031318203
    alpha-alpha-alpha ... -0.002525570 (  8.1%)
    alpha-alpha-beta  ... -0.017099134 ( 54.6%)
    alpha-beta -beta  ... -0.011149297 ( 35.6%)
    beta -beta -beta  ... -0.000544202 (  1.7%)
Scaling of triples based on CCSD energies (Peterson et al. Molecular Physics 113, 1551 (2015))
E(T*) = f*E(T) where f = E(F12-CCSD)/E(CCSD) 
f = CCSD (with F12)/ CCSD (without F12)    ...      1.000000000
Scaled triples correction (T)              ...     -0.031318203

Final correlation energy                   ...     -0.707375250
E(CCSD)                                    ...  -1548.088215936
E(CCSD(T))                                 ...  -1548.119534139



        !!!!!!!!!!!!!!!!!!!!!!!!!!!!!!!!!!!!!!!!!!!!!!!!!!!!!!!!!!!!!!!!!!!!!!!!!! 
        !  Warning: Densities are linearized densities                           !
        !!!!!!!!!!!!!!!!!!!!!!!!!!!!!!!!!!!!!!!!!!!!!!!!!!!!!!!!!!!!!!!!!!!!!!!!!! 

NORM  =      1.354955459 sqrt=     1.164025540
W(HF) =      0.738031640
------------------------------------------------------------------------------
                           ORCA POPULATION ANALYSIS
------------------------------------------------------------------------------
Input electron density              ... 30_MnS.mdcip
Input spin density                  ... 30_MnS.mdcir
BaseName (.gbw .S,...)              ... 30_MnS

                    ********************************
                    * MULLIKEN POPULATION ANALYSIS *
                    ********************************

------------------------------------------
MULLIKEN ATOMIC CHARGES AND SPIN DENSITIES
------------------------------------------
   0 Mn:    0.458992    5.150626
   1 S :   -0.458992   -0.150626
Sum of atomic charges       :   -0.0000000
Sum of atomic spin densities:    5.0000000

---------------------------------------------------
MULLIKEN REDUCED ORBITAL CHARGES AND SPIN DENSITIES
---------------------------------------------------
CHARGE
  0 Mns       :     6.701413  s :     6.701413
      pz      :     4.063788  p :    12.421713
      px      :     4.178963
      py      :     4.178963
      dz2     :     1.071637  d :     5.359272
      dxz     :     1.142707
      dyz     :     1.142707
      dx2y2   :     1.001111
      dxy     :     1.001111
      f0      :     0.010076  f :     0.054071
      f+1     :     0.012495
      f-1     :     0.012495
      f+2     :     0.005255
      f-2     :     0.005255
      f+3     :     0.004248
      f-3     :     0.004248
      g0      :     0.000620  g :     0.004538
      g+1     :     0.000631
      g-1     :     0.000631
      g+2     :     0.000475
      g-2     :     0.000475
      g+3     :     0.000441
      g-3     :     0.000441
      g+4     :     0.000412
      g-4     :     0.000412
  1 S s       :     5.851874  s :     5.851874
      pz      :     3.223330  p :    10.430368
      px      :     3.603519
      py      :     3.603519
      dz2     :     0.032036  d :     0.149884
      dxz     :     0.037145
      dyz     :     0.037145
      dx2y2   :     0.021778
      dxy     :     0.021778
      f0      :     0.004180  f :     0.023424
      f+1     :     0.005330
      f-1     :     0.005330
      f+2     :     0.002462
      f-2     :     0.002462
      f+3     :     0.001830
      f-3     :     0.001830
      g0      :     0.000724  g :     0.003443
      g+1     :     0.000585
      g-1     :     0.000585
      g+2     :     0.000307
      g-2     :     0.000307
      g+3     :     0.000238
      g-3     :     0.000238
      g+4     :     0.000229
      g-4     :     0.000229

SPIN
  0 Mns       :     0.462663  s :     0.462663
      pz      :     0.009561  p :     0.207519
      px      :     0.098979
      py      :     0.098979
      dz2     :     0.797917  d :     4.455089
      dxz     :     0.841308
      dyz     :     0.841308
      dx2y2   :     0.987278
      dxy     :     0.987278
      f0      :     0.002295  f :     0.023229
      f+1     :     0.004145
      f-1     :     0.004145
      f+2     :     0.003064
      f-2     :     0.003064
      f+3     :     0.003258
      f-3     :     0.003258
      g0      :     0.000199  g :     0.002125
      g+1     :     0.000201
      g-1     :     0.000201
      g+2     :     0.000243
      g-2     :     0.000243
      g+3     :     0.000258
      g-3     :     0.000258
      g+4     :     0.000261
      g-4     :     0.000261
  1 S s       :    -0.012119  s :    -0.012119
      pz      :    -0.255905  p :    -0.132212
      px      :     0.061846
      py      :     0.061846
      dz2     :    -0.001033  d :    -0.006503
      dxz     :    -0.003949
      dyz     :    -0.003949
      dx2y2   :     0.001214
      dxy     :     0.001214
      f0      :     0.000721  f :    -0.000276
      f+1     :    -0.000624
      f-1     :    -0.000624
      f+2     :     0.000089
      f-2     :     0.000089
      f+3     :     0.000037
      f-3     :     0.000037
      g0      :     0.000212  g :     0.000484
      g+1     :     0.000092
      g-1     :     0.000092
      g+2     :     0.000039
      g-2     :     0.000039
      g+3     :     0.000004
      g-3     :     0.000004
      g+4     :     0.000001
      g-4     :     0.000001


                     *******************************
                     * LOEWDIN POPULATION ANALYSIS *
                     *******************************

-----------------------------------------
LOEWDIN ATOMIC CHARGES AND SPIN DENSITIES
-----------------------------------------
   0 Mn:   -0.305182    5.015412
   1 S :    0.305182   -0.015412

--------------------------------------------------
LOEWDIN REDUCED ORBITAL CHARGES AND SPIN DENSITIES
--------------------------------------------------
CHARGE
  0 Mns       :     6.624475  s :     6.624475
      pz      :     4.245324  p :    12.710062
      px      :     4.232369
      py      :     4.232369
      dz2     :     1.239879  d :     5.687012
      dxz     :     1.223796
      dyz     :     1.223796
      dx2y2   :     0.999770
      dxy     :     0.999770
      f0      :     0.092046  f :     0.277152
      f+1     :     0.082432
      f-1     :     0.082432
      f+2     :     0.005866
      f-2     :     0.005866
      f+3     :     0.004254
      f-3     :     0.004254
      g0      :     0.001552  g :     0.006482
      g+1     :     0.001126
      g-1     :     0.001126
      g+2     :     0.000485
      g-2     :     0.000485
      g+3     :     0.000441
      g-3     :     0.000441
      g+4     :     0.000412
      g-4     :     0.000412
  1 S s       :     5.356451  s :     5.356451
      pz      :     3.285692  p :    10.066445
      px      :     3.390376
      py      :     3.390376
      dz2     :     0.072547  d :     0.190080
      dxz     :     0.037227
      dyz     :     0.037227
      dx2y2   :     0.021539
      dxy     :     0.021539
      f0      :     0.036309  f :     0.070913
      f+1     :     0.012200
      f-1     :     0.012200
      f+2     :     0.003278
      f-2     :     0.003278
      f+3     :     0.001823
      f-3     :     0.001823
      g0      :     0.005404  g :     0.010930
      g+1     :     0.001846
      g-1     :     0.001846
      g+2     :     0.000450
      g-2     :     0.000450
      g+3     :     0.000238
      g-3     :     0.000238
      g+4     :     0.000229
      g-4     :     0.000229

SPIN
  0 Mns       :     0.365606  s :     0.365606
      pz      :     0.010779  p :     0.226957
      px      :     0.108089
      py      :     0.108089
      dz2     :     0.780143  d :     4.394622
      dxz     :     0.821559
      dyz     :     0.821559
      dx2y2   :     0.985680
      dxy     :     0.985680
      f0      :    -0.000635  f :     0.026282
      f+1     :     0.007078
      f-1     :     0.007078
      f+2     :     0.003122
      f-2     :     0.003122
      f+3     :     0.003257
      f-3     :     0.003257
      g0      :     0.000001  g :     0.001945
      g+1     :     0.000209
      g-1     :     0.000209
      g+2     :     0.000244
      g-2     :     0.000244
      g+3     :     0.000258
      g-3     :     0.000258
      g+4     :     0.000261
      g-4     :     0.000261
  1 S s       :     0.003056  s :     0.003056
      pz      :    -0.161059  p :    -0.048496
      px      :     0.056281
      py      :     0.056281
      dz2     :     0.003428  d :     0.012942
      dxz     :     0.003068
      dyz     :     0.003068
      dx2y2   :     0.001689
      dxy     :     0.001689
      f0      :     0.002021  f :     0.013352
      f+1     :     0.004620
      f-1     :     0.004620
      f+2     :     0.001008
      f-2     :     0.001008
      f+3     :     0.000037
      f-3     :     0.000037
      g0      :     0.001173  g :     0.003734
      g+1     :     0.001092
      g-1     :     0.001092
      g+2     :     0.000184
      g-2     :     0.000184
      g+3     :     0.000004
      g-3     :     0.000004
      g+4     :     0.000001
      g-4     :     0.000001


                      *****************************
                      * MAYER POPULATION ANALYSIS *
                      *****************************

  NA   - Mulliken gross atomic population
  ZA   - Total nuclear charge
  QA   - Mulliken gross atomic charge
  VA   - Mayer's total valence
  BVA  - Mayer's bonded valence
  FA   - Mayer's free valence

  ATOM       NA         ZA         QA         VA         BVA        FA
  0 Mn    24.5410    25.0000     0.4590     7.2372     2.0339     5.2033
  1 S     16.4590    16.0000    -0.4590     2.8470     2.0339     0.8131

  Mayer bond orders larger than 0.100000
B(  0-Mn,  1-S ) :   2.0339 



------------------------------------------------------------------------------- 
                                     TIMINGS                                   
------------------------------------------------------------------------------- 


Total execution time                   ...      134.785 sec

Fock Matrix Formation                  ...        1.371 sec (  1.0%)
Initial Guess                          ...        0.104 sec (  0.1%)
DIIS Solver                            ...        6.261 sec (  4.6%)
State Vector Update                    ...        0.288 sec (  0.2%)
Sigma-vector construction              ...       94.292 sec ( 70.0%)
  <0|H|D>                              ...        0.014 sec (  0.0% of sigma)
  <D|H|D>(0-ext Fock)                  ...        0.141 sec (  0.1% of sigma)
  <D|H|D>(0-ext)                       ...        0.738 sec (  0.8% of sigma)
  <D|H|D>(2-ext Fock)                  ...        0.043 sec (  0.0% of sigma)
  <D|H|D>(2-ext)                       ...        2.283 sec (  2.4% of sigma)
  <D|H|D>(4-ext)                       ...       51.360 sec ( 54.5% of sigma)
  <S|H|0>                              ...        5.192 sec (  5.5% of sigma)
  <S|H|S>                              ...        0.005 sec (  0.0% of sigma)
  <S|H|D>(1-ext)                       ...        0.031 sec (  0.0% of sigma)
  <D|H|S>(1-ext)                       ...        0.467 sec (  0.5% of sigma)
  Fock-dressing                        ...       16.166 sec ( 17.1% of sigma)
  (ik|jl)-dressing                     ...        0.830 sec (  0.9% of sigma)
  (ij|ab),(ia|jb)-dressing             ...       14.130 sec ( 15.0% of sigma)
  Pair energies                        ...        0.019 sec (  0.0% of sigma)
Total Time for computing (T)           ...       20.559 sec ( 15.3% of ALL)
  I/O of integral and amplitudes       ...        3.015 sec ( 14.7% of (T))
  External N**7 contributions          ...        7.917 sec ( 38.5% of (T))
  Internal N**7 contributions          ...        2.433 sec ( 11.8% of (T))
  N**6 triples energy contributions    ...        6.988 sec ( 34.0% of (T))


-------------------
EXTRAPOLATED ENERGY
-------------------


-----------------------------------------------------------------
                      EP1 - MDCI extrapolation:
-----------------------------------------------------------------
NOTE: We use as reference SCF energy, for the extrapolation, the one from the MDCI module and not the one 
from the SCF calculation. In case the first step is a DFT calculation these two might be different.

NOTE: For the SCF part we extrapolate based on the scheme proposed in J. Chem. Phys. 2008, 129, 184116
using the exponents from J. Chem. Theory Comput., 7, 33-43 (2011)

NOTE: For the correlation part we extrapolate based on the scheme proposed in J. Chem. Phys. 1997, 106, 9639
using the exponents from J. Chem. Theory Comput., 7, 33-43 (2011)


Alpha(3/4)     :  7.880 (SCF Extrapolation)
Beta(3/4)      :  2.970 (correlation extrapolation)

SCF energy with basis def2-TZVPP:                     -1547.377768746
SCF energy with basis def2-QZVPP:                     -1547.412158889
Extrapolated CBS SCF energy (3/4) :                   -1547.416895742 (-0.004736853) 

MDCI energy with basis def2-TZVPP:                       -0.670001765
MDCI energy with basis def2-QZVPP:                       -0.707375250
Extrapolated CBS correlation energy (3/4) :              -0.735059292 (-0.027684042)

Estimated CBS total energy (3/4) :                    -1548.151955034



-------------------------   --------------------
FINAL SINGLE POINT ENERGY     -1548.151955034451
-------------------------   --------------------


                            ***************************************
                            *     ORCA property calculations      *
                            ***************************************

                                    ---------------------
                                    Active property flags
                                    ---------------------
   (+) Dipole Moment


------------------------------------------------------------------------------
                       ORCA ELECTRIC PROPERTIES CALCULATION
------------------------------------------------------------------------------

Dipole Moment Calculation                       ... on
Quadrupole Moment Calculation                   ... off
Polarizability Calculation                      ... off
GBWName                                         ... 30_MnS.gbw
Electron density file                           ... 30_MnS.scfp
The origin for moment calculation is the CENTER OF MASS  = ( 0.000000,  0.000000  1.381514)

-------------
DIPOLE MOMENT
-------------
                                X             Y             Z
Electronic contribution:     -0.00000       0.00000      -5.46409
Nuclear contribution   :      0.00000       0.00000       3.44465
                        -----------------------------------------
Total Dipole Moment    :     -0.00000       0.00000      -2.01944
                        -----------------------------------------
Magnitude (a.u.)       :      2.01944
Magnitude (Debye)      :      5.13301



--------------------
Rotational spectrum 
--------------------
 
Rotational constants in cm-1:     0.000000     0.199061     0.199061 
Rotational constants in MHz :     0.000000  5967.684062  5967.684062 

 Dipole components along the rotational axes: 
x,y,z [a.u.] :    -2.019442     0.000000    -0.000000 
x,y,z [Debye]:    -5.133014     0.000000    -0.000000 

 

                           *** MDCI DENSITY ***

------------------------------------------------------------------------------
                       ORCA ELECTRIC PROPERTIES CALCULATION
------------------------------------------------------------------------------

Dipole Moment Calculation                       ... on
Quadrupole Moment Calculation                   ... off
Polarizability Calculation                      ... off
GBWName                                         ... 30_MnS.gbw
Electron density file                           ... 30_MnS.mdcip
The origin for moment calculation is the CENTER OF MASS  = ( 0.000000,  0.000000  1.381514)

-------------
DIPOLE MOMENT
-------------
                                X             Y             Z
Electronic contribution:     -0.00000       0.00000      -5.81135
Nuclear contribution   :      0.00000       0.00000       3.44465
                        -----------------------------------------
Total Dipole Moment    :     -0.00000       0.00000      -2.36671
                        -----------------------------------------
Magnitude (a.u.)       :      2.36671
Magnitude (Debye)      :      6.01569



--------------------
Rotational spectrum 
--------------------
 
Rotational constants in cm-1:     0.000000     0.199061     0.199061 
Rotational constants in MHz :     0.000000  5967.684062  5967.684062 

 Dipole components along the rotational axes: 
x,y,z [a.u.] :    -2.366706     0.000000    -0.000000 
x,y,z [Debye]:    -6.015689     0.000000    -0.000000 

 

Timings for individual modules:

Sum of individual times         ...      185.826 sec (=   3.097 min)
GTO integral calculation        ...        1.933 sec (=   0.032 min)   1.0 %
SCF iterations                  ...       17.616 sec (=   0.294 min)   9.5 %
MDCI module                     ...      166.277 sec (=   2.771 min)  89.5 %
                             ****ORCA TERMINATED NORMALLY****
TOTAL RUN TIME: 0 days 0 hours 3 minutes 6 seconds 940 msec
