
                                 *****************
                                 * O   R   C   A *
                                 *****************

           --- An Ab Initio, DFT and Semiempirical electronic structure package ---

                  #######################################################
                  #                        -***-                        #
                  #          Department of theory and spectroscopy      #
                  #               Directorship: Frank Neese             #
                  #        Max Planck Institute fuer Kohlenforschung    #
                  #                Kaiser Wilhelm Platz 1               #
                  #                 D-45470 Muelheim/Ruhr               #
                  #                      Germany                        #
                  #                                                     #
                  #                  All rights reserved                #
                  #                        -***-                        #
                  #######################################################


                         Program Version 4.2.0 -  RELEASE  -


 With contributions from (in alphabetic order):
   Daniel Aravena         : Magnetic Suceptibility
   Michael Atanasov       : Ab Initio Ligand Field Theory (pilot matlab implementation)
   Alexander A. Auer      : GIAO ZORA, VPT2
   Ute Becker             : Parallelization
   Giovanni Bistoni       : ED, misc. LED, open-shell LED, HFLED
   Martin Brehm           : Molecular dynamics
   Dmytro Bykov           : SCF Hessian
   Vijay G. Chilkuri      : MRCI spin determinant printing, contributions to CSF-ICE
   Dipayan Datta          : RHF DLPNO-CCSD density
   Achintya Kumar Dutta   : EOM-CC, STEOM-CC
   Dmitry Ganyushin       : Spin-Orbit,Spin-Spin,Magnetic field MRCI
   Miquel Garcia          : C-PCM Hessian, Gaussian charge scheme
   Yang Guo               : DLPNO-NEVPT2, CIM, IAO-localization
   Andreas Hansen         : Spin unrestricted coupled pair/coupled cluster methods
   Benjamin Helmich-Paris : CASSCF linear response (MC-RPA)
   Lee Huntington         : MR-EOM, pCC
   Robert Izsak           : Overlap fitted RIJCOSX, COSX-SCS-MP3, EOM
   Christian Kollmar      : KDIIS, OOCD, Brueckner-CCSD(T), CCSD density
   Simone Kossmann        : Meta GGA functionals, TD-DFT gradient, OOMP2, MP2 Hessian
   Martin Krupicka        : AUTO-CI
   Lucas Lang             : DCDCAS
   Dagmar Lenk            : GEPOL surface, SMD
   Dimitrios Liakos       : Extrapolation schemes; Compound Job, initial MDCI parallelization
   Dimitrios Manganas     : Further ROCIS development; embedding schemes
   Dimitrios Pantazis     : SARC Basis sets
   Taras Petrenko         : DFT Hessian,TD-DFT gradient, ASA, ECA, R-Raman, ABS, FL, XAS/XES, NRVS
   Peter Pinski           : DLPNO-MP2, DLPNO-MP2 Gradient
   Christoph Reimann      : Effective Core Potentials
   Marius Retegan         : Local ZFS, SOC
   Christoph Riplinger    : Optimizer, TS searches, QM/MM, DLPNO-CCSD(T), (RO)-DLPNO pert. Triples
   Tobias Risthaus        : Range-separated hybrids, TD-DFT gradient, RPA, STAB
   Michael Roemelt        : Original ROCIS implementation
   Masaaki Saitow         : Open-shell DLPNO-CCSD energy and density
   Barbara Sandhoefer     : DKH picture change effects
   Avijit Sen             : IP-ROCIS
   Kantharuban Sivalingam : CASSCF convergence, NEVPT2, FIC-MRCI
   Bernardo de Souza      : ESD, SOC TD-DFT
   Georgi Stoychev        : AutoAux, RI-MP2 NMR
   Willem Van den Heuvel  : Paramagnetic NMR
   Boris Wezisla          : Elementary symmetry handling
   Frank Wennmohs         : Technical directorship


 We gratefully acknowledge several colleagues who have allowed us to
 interface, adapt or use parts of their codes:
   Stefan Grimme, W. Hujo, H. Kruse,             : VdW corrections, initial TS optimization,
                  C. Bannwarth                     DFT functionals, gCP, sTDA/sTD-DF
   Ed Valeev, F. Pavosevic, A. Kumar             : LibInt (2-el integral package), F12 methods
   Garnet Chan, S. Sharma, J. Yang, R. Olivares  : DMRG
   Ulf Ekstrom                                   : XCFun DFT Library
   Mihaly Kallay                                 : mrcc  (arbitrary order and MRCC methods)
   Andreas Klamt, Michael Diedenhofen            : otool_cosmo (COSMO solvation model)
   Jiri Pittner, Ondrej Demel                    : Mk-CCSD
   Frank Weinhold                                : gennbo (NPA and NBO analysis)
   Christopher J. Cramer and Donald G. Truhlar   : smd solvation model
   Lars Goerigk                                  : TD-DFT with DH, B97 family of functionals
   V. Asgeirsson, H. Jonsson                     : NEB implementation
   FAccTs GmbH                                   : IRC, NEB, NEB-TS, Multilevel, MM, QM/MM, CI optimization
   S Lehtola, MJT Oliveira, MAL Marques          : LibXC Library


 Your calculation uses the libint2 library for the computation of 2-el integrals
 For citations please refer to: http://libint.valeyev.net

 Your ORCA version has been built with support for libXC version: 4.2.3
 For citations please refer to: https://tddft.org/programs/libxc/

 This ORCA versions uses:
   CBLAS   interface :  Fast vector & matrix operations
   LAPACKE interface :  Fast linear algebra routines
   SCALAPACK package :  Parallel linear algebra routines


----- Orbital basis set information -----
Your calculation utilizes the basis: def2-TZVPP
   F. Weigend and R. Ahlrichs, Phys. Chem. Chem. Phys. 7, 3297 (2005).

================================================================================
                                        WARNINGS
                       Please study these warnings very carefully!
================================================================================


WARNING: your system is open-shell and RHF/RKS was chosen
  ===> : WILL SWITCH to UHF/UKS


WARNING: MDCI localization with Augmented Hessian Foster-Boys
  ===> : Switching off randomization!

WARNING: Post HF methods need fully converged wavefunctions
  ===> : Setting SCFConvForced true
         You can overwrite this default with %scf ConvForced false 


INFO   : the flag for use of LIBINT has been found!

================================================================================
                                       INPUT FILE
================================================================================
NAME = 32_FeF.in
|  1> #
|  2> # 32_FeF ccsd(t)/cbs
|  3> #
|  4> ! ccsd(t) extrapolate(3/4,def2) verytightscf
|  5> 
|  6> *xyz 0 6
|  7>   Fe  0.00000000000000      0.00000000000000      0.10964273788681
|  8>   F   0.00000000000000      0.00000000000000      1.89035726211319
|  9> *
| 10> 
| 11> %maxcore 5000
| 12> %pal
| 13> nprocs 24
| 14> end
| 15> 
| 16> 
| 17>                          ****END OF INPUT****
================================================================================

                   *****************************************
                   * Extrapolated Single Point Calculation *
                   *****************************************

----- Orbital basis set information -----
Your calculation utilizes the basis: def2-TZVPP
   F. Weigend and R. Ahlrichs, Phys. Chem. Chem. Phys. 7, 3297 (2005).

----- AuxJ basis set information -----
Your calculation utilizes the auxiliary basis: def2/J
   F. Weigend, Phys. Chem. Chem. Phys. 8, 1057 (2006).

----- AuxC basis set information -----
Your calculation utilizes the auxiliary basis: def2-TZVPP/C
  H-La, Hf-Rn : A. Hellweg, C. Hattig, S. Hofener and W. Klopper, Theor. Chem. Acc. 117, 587 (2007).
        Ce-Lu : J. Chmela and M. E. Harding, Mol. Phys. (2018).

----- AuxJK basis set information -----
Your calculation utilizes the auxiliary basis: def2/JK
   H-Ba, Hf-Rn: F. Weigend, J. Comput. Chem. 29, 167 (2008).

All done

                     -----------------------------------------
                     Extrapolated Energy 1 Basis=  def2-TZVPP
                     -----------------------------------------

---------------------------------
CARTESIAN COORDINATES (ANGSTROEM)
---------------------------------
  Fe     0.000000    0.000000    0.109643
  F      0.000000    0.000000    1.890357

----------------------------
CARTESIAN COORDINATES (A.U.)
----------------------------
  NO LB      ZA    FRAG     MASS         X           Y           Z
   0 Fe   26.0000    0    55.850    0.000000    0.000000    0.207195
   1 F     9.0000    0    18.998    0.000000    0.000000    3.572258

--------------------------------
INTERNAL COORDINATES (ANGSTROEM)
--------------------------------
 Fe     0   0   0     0.000000000000     0.00000000     0.00000000
 F      1   0   0     1.780714524226     0.00000000     0.00000000

---------------------------
INTERNAL COORDINATES (A.U.)
---------------------------
 Fe     0   0   0     0.000000000000     0.00000000     0.00000000
 F      1   0   0     3.365062773484     0.00000000     0.00000000

---------------------
BASIS SET INFORMATION
---------------------
There are 2 groups of distinct atoms

 Group   1 Type Fe  : 17s12p7d2f1g contracted to 6s5p4d2f1g pattern {842111/63111/4111/11/1}
 Group   2 Type F   : 11s6p2d1f contracted to 5s3p2d1f pattern {62111/411/11/1}

Atom   0Fe   basis set group =>   1
Atom   1F    basis set group =>   2
---------------------------------
AUXILIARY/J BASIS SET INFORMATION
---------------------------------
There are 2 groups of distinct atoms

 Group   1 Type Fe  : 19s5p5d3f3g contracted to 8s5p5d2f3g pattern {121111111/11111/11111/21/111}
 Group   2 Type F   : 12s5p4d2f1g contracted to 6s4p3d1f1g pattern {711111/2111/211/2/1}

Atom   0Fe   basis set group =>   1
Atom   1F    basis set group =>   2
---------------------------------
AUXILIARY/C BASIS SET INFORMATION
---------------------------------
There are 2 groups of distinct atoms

 Group   1 Type Fe  : 9s9p8d7f5g3h1i contracted to 9s9p8d7f5g3h1i pattern {111111111/111111111/11111111/1111111/11111/111/1}
 Group   2 Type F   : 8s6p5d3f1g contracted to 8s6p4d3f1g pattern {11111111/111111/2111/111/1}

Atom   0Fe   basis set group =>   1
Atom   1F    basis set group =>   2
----------------------------------
AUXILIARY/JK BASIS SET INFORMATION
----------------------------------
There are 2 groups of distinct atoms

 Group   1 Type Fe  : 19s14p12d10f7g3h1i contracted to 16s13p11d9f5g3h1i pattern {4111111111111111/2111111111111/21111111111/211111111/31111/111/1}
 Group   2 Type F   : 14s10p6d2f1g contracted to 10s8p4d2f1g pattern {5111111111/31111111/3111/11/1}

Atom   0Fe   basis set group =>   1
Atom   1F    basis set group =>   2


           ************************************************************
           *        Program running with 24 parallel MPI-processes    *
           *              working on a common directory               *
           ************************************************************
------------------------------------------------------------------------------
                           ORCA GTO INTEGRAL CALCULATION
------------------------------------------------------------------------------

                         BASIS SET STATISTICS AND STARTUP INFO

 # of primitive gaussian shells          ...   59
 # of primitive gaussian functions       ...  157
 # of contracted shells                  ...   29
 # of contracted basis functions         ...   95
 Highest angular momentum                ...    4
 Maximum contraction depth               ...    8
 Integral package used                   ... LIBINT
 Integral threshhold            Thresh   ...  1.000e-12
 Primitive cut-off              TCut     ...  1.000e-14


------------------------------ INTEGRAL EVALUATION ----------------------------


 * One electron integrals 
 Pre-screening matrix                    ... done
 Shell pair data                         ... done (   0.000 sec)



           ************************************************************
           *        Program running with 24 parallel MPI-processes    *
           *              working on a common directory               *
           ************************************************************
-------------------------------------------------------------------------------
                                 ORCA SCF
-------------------------------------------------------------------------------

------------
SCF SETTINGS
------------
Hamiltonian:
 Ab initio Hamiltonian  Method          .... Hartree-Fock(GTOs)


General Settings:
 Integral files         IntName         .... 32_FeF
 Hartree-Fock type      HFTyp           .... UHF
 Total Charge           Charge          ....    0
 Multiplicity           Mult            ....    6
 Number of Electrons    NEL             ....   35
 Basis Dimension        Dim             ....   95
 Nuclear Repulsion      ENuc            ....     69.5380787080 Eh

Convergence Acceleration:
 DIIS                   CNVDIIS         .... on
   Start iteration      DIISMaxIt       ....    12
   Startup error        DIISStart       ....  0.200000
   # of expansion vecs  DIISMaxEq       ....     5
   Bias factor          DIISBfac        ....   1.050
   Max. coefficient     DIISMaxC        ....  10.000
 Newton-Raphson         CNVNR           .... off
 SOSCF                  CNVSOSCF        .... off
 Level Shifting         CNVShift        .... on
   Level shift para.    LevelShift      ....    0.2500
   Turn off err/grad.   ShiftErr        ....    0.0010
 Zerner damping         CNVZerner       .... off
 Static damping         CNVDamp         .... on
   Fraction old density DampFac         ....    0.7000
   Max. Damping (<1)    DampMax         ....    0.9800
   Min. Damping (>=0)   DampMin         ....    0.0000
   Turn off err/grad.   DampErr         ....    0.1000
 Fernandez-Rico         CNVRico         .... off

SCF Procedure:
 Maximum # iterations   MaxIter         ....   125
 SCF integral mode      SCFMode         .... Direct
   Integral package                     .... LIBINT
 Reset frequency        DirectResetFreq ....    20
 Integral Threshold     Thresh          ....  1.000e-12 Eh
 Primitive CutOff       TCut            ....  1.000e-14 Eh

Convergence Tolerance:
 Convergence Check Mode ConvCheckMode   .... Total+1el-Energy
 Convergence forced     ConvForced      .... 1
 Energy Change          TolE            ....  1.000e-09 Eh
 1-El. energy change                    ....  1.000e-06 Eh
 DIIS Error             TolErr          ....  1.000e-08


Diagonalization of the overlap matrix:
Smallest eigenvalue                        ... 8.607e-03
Time for diagonalization                   ...    0.018 sec
Threshold for overlap eigenvalues          ... 1.000e-08
Number of eigenvalues below threshold      ... 0
Time for construction of square roots      ...    0.008 sec
Total time needed                          ...    0.027 sec

-------------------
DFT GRID GENERATION
-------------------

General Integration Accuracy     IntAcc      ...  4.340
Radial Grid Type                 RadialGrid  ... Gauss-Chebyshev
Angular Grid (max. acc.)         AngularGrid ... Lebedev-110
Angular grid pruning method      GridPruning ... 3 (G Style)
Weight generation scheme         WeightScheme... Becke
Basis function cutoff            BFCut       ...    1.0000e-12
Integration weight cutoff        WCut        ...    1.0000e-14
Grids for H and He will be reduced by one unit

# of grid points (after initial pruning)     ...   4652 (   0.0 sec)
# of grid points (after weights+screening)   ...   4627 (   0.0 sec)
nearest neighbour list constructed           ...    0.0 sec
Grid point re-assignment to atoms done       ...    0.0 sec
Grid point division into batches done        ...    0.0 sec
Reduced shell lists constructed in    0.0 sec

Total number of grid points                  ...     4627
Total number of batches                      ...       73
Average number of points per batch           ...       63
Average number of grid points per atom       ...     2314
Average number of shells per batch           ...     7.20 (24.83%)
Average number of basis functions per batch  ...    20.00 (21.05%)
Average number of large shells per batch     ...     6.40 (88.89%)
Average number of large basis fcns per batch ...    17.60 (88.00%)
Maximum spatial batch extension              ...  19.55, 28.73, 15.95 au
Average spatial batch extension              ...   1.01,  1.33,  0.87 au

Time for grid setup =    0.024 sec

------------------------------
INITIAL GUESS: MODEL POTENTIAL
------------------------------
Loading Hartree-Fock densities                     ... done
Calculating cut-offs                               ... done
Setting up the integral package                    ... done
Initializing the effective Hamiltonian             ... done
Starting the Coulomb interaction                   ... done (   0.0 sec)
Reading the grid                                   ... done
Mapping shells                                     ... done
Starting the XC term evaluation                    ... done (   0.0 sec)
Transforming the Hamiltonian                       ... done (   0.0 sec)
Diagonalizing the Hamiltonian                      ... done (   0.0 sec)
Back transforming the eigenvectors                 ... done (   0.0 sec)
Now organizing SCF variables                       ... done
                      ------------------
                      INITIAL GUESS DONE (   0.1 sec)
                      ------------------
--------------
SCF ITERATIONS
--------------
ITER       Energy         Delta-E        Max-DP      RMS-DP      [F,P]     Damp
               ***  Starting incremental Fock matrix formation  ***
  0  -1361.8343161346   0.000000000000 0.01542292  0.00060281  0.3346220 0.7000
  1  -1361.8744280600  -0.040111925327 0.01235605  0.00044530  0.2498110 0.7000
                               ***Turning on DIIS***
  2  -1361.8996857290  -0.025257668992 0.01171483  0.00032149  0.1844991 0.7000
  3  -1361.6869283493   0.212757379648 0.01134362  0.00028477  0.1344157 0.7000
  4  -1361.7642854270  -0.077357077710 0.04099759  0.00087631  0.0943887 0.0000
  5  -1361.9535792837  -0.189293856691 0.01405129  0.00021708  0.0081273 0.0000
  6  -1361.9713563048  -0.017777021047 0.00876284  0.00013427  0.0047257 0.0000
  7  -1361.9723998095  -0.001043504702 0.00560862  0.00009668  0.0029541 0.0000
  8  -1361.9732564279  -0.000856618408 0.00306690  0.00004918  0.0016044 0.0000
  9  -1361.9746755193  -0.001419091441 0.00287725  0.00004352  0.0008800 0.0000
 10  -1361.9717530152   0.002922504168 0.00071397  0.00001122  0.0002036 0.0000
 11  -1361.9703685050   0.001384510198 0.00015021  0.00000292  0.0001276 0.0000
 12  -1361.9711619634  -0.000793458458 0.00004439  0.00000096  0.0000302 0.0000
 13  -1361.9708940177   0.000267945698 0.00000924  0.00000023  0.0000067 0.0000
 14  -1361.9709271484  -0.000033130731 0.00000203  0.00000005  0.0000026 0.0000
 15  -1361.9709153964   0.000011752025 0.00000118  0.00000004  0.0000013 0.0000
 16  -1361.9709205462  -0.000005149825 0.00000054  0.00000002  0.0000005 0.0000
 17  -1361.9709205568  -0.000000010521 0.00000047  0.00000002  0.0000002 0.0000
 18  -1361.9709202761   0.000000280699 0.00000022  0.00000001  0.0000001 0.0000
 19  -1361.9709204110  -0.000000134902 0.00000007  0.00000000  0.0000000 0.0000
               *** Restarting incremental Fock matrix formation ***
                                   *** Resetting DIIS ***
 20  -1361.9709203134   0.000000097603 0.00000002  0.00000000  0.0000000 0.0000
                            ***DIIS convergence achieved***

               *****************************************************
               *                     SUCCESS                       *
               *           SCF CONVERGED AFTER  21 CYCLES          *
               *****************************************************


----------------
TOTAL SCF ENERGY
----------------

Total Energy       :        -1361.97092037 Eh          -37061.11289 eV

Components:
Nuclear Repulsion  :           69.53807871 Eh            1892.22732 eV
Electronic Energy  :        -1431.50899908 Eh          -38953.34021 eV
One Electron Energy:        -2023.88574385 Eh          -55072.73093 eV
Two Electron Energy:          592.37674477 Eh           16119.39072 eV

Virial components:
Potential Energy   :        -2723.91954582 Eh          -74121.61911 eV
Kinetic Energy     :         1361.94862545 Eh           37060.50622 eV
Virial Ratio       :            2.00001637


---------------
SCF CONVERGENCE
---------------

  Last Energy change         ...   -6.0153e-08  Tolerance :   1.0000e-09
  Last MAX-Density change    ...    8.4761e-09  Tolerance :   1.0000e-08
  Last RMS-Density change    ...    3.0720e-10  Tolerance :   1.0000e-09
  Last DIIS Error            ...    8.5030e-09  Tolerance :   1.0000e-08

             **** THE GBW FILE WAS UPDATED (32_FeF.gbw) ****
             **** DENSITY FILE WAS UPDATED (32_FeF.scfp) ****
             **** ENERGY FILE WAS UPDATED (32_FeF.en.tmp) ****
----------------------
UHF SPIN CONTAMINATION
----------------------

Expectation value of <S**2>     :     8.755205
Ideal value S*(S+1) for S=2.5   :     8.750000
Deviation                       :     0.005205

             **** THE GBW FILE WAS UPDATED (32_FeF.gbw) ****
             **** DENSITY FILE WAS UPDATED (32_FeF.scfp) ****
----------------
ORBITAL ENERGIES
----------------
                 SPIN UP ORBITALS
  NO   OCC          E(Eh)            E(eV) 
   0   1.0000    -261.385261     -7112.6546 
   1   1.0000     -32.007080      -870.9569 
   2   1.0000     -27.506363      -748.4862 
   3   1.0000     -27.473954      -747.6043 
   4   1.0000     -27.473954      -747.6043 
   5   1.0000     -26.195707      -712.8214 
   6   1.0000      -4.358717      -118.6067 
   7   1.0000      -3.019525       -82.1655 
   8   1.0000      -2.945330       -80.1465 
   9   1.0000      -2.945330       -80.1465 
  10   1.0000      -1.478075       -40.2205 
  11   1.0000      -0.747145       -20.3308 
  12   1.0000      -0.728445       -19.8220 
  13   1.0000      -0.728445       -19.8220 
  14   1.0000      -0.692793       -18.8519 
  15   1.0000      -0.643224       -17.5030 
  16   1.0000      -0.560040       -15.2395 
  17   1.0000      -0.552632       -15.0379 
  18   1.0000      -0.552632       -15.0379 
  19   1.0000      -0.298904        -8.1336 
  20   0.0000       0.067358         1.8329 
  21   0.0000       0.067358         1.8329 
  22   0.0000       0.131345         3.5741 
  23   0.0000       0.203710         5.5432 
  24   0.0000       0.243401         6.6233 
  25   0.0000       0.246067         6.6958 
  26   0.0000       0.278520         7.5789 
  27   0.0000       0.278520         7.5789 
  28   0.0000       0.313715         8.5366 
  29   0.0000       0.538174        14.6445 
  30   0.0000       0.538174        14.6445 
  31   0.0000       0.644463        17.5367 
  32   0.0000       0.819880        22.3101 
  33   0.0000       0.898778        24.4570 
  34   0.0000       0.898778        24.4570 
  35   0.0000       1.006545        27.3895 
  36   0.0000       1.013679        27.5836 
  37   0.0000       1.013679        27.5836 
  38   0.0000       1.021295        27.7908 
  39   0.0000       1.184935        32.2437 
  40   0.0000       1.243226        33.8299 
  41   0.0000       2.172462        59.1157 
  42   0.0000       2.194737        59.7218 
  43   0.0000       2.194737        59.7218 
  44   0.0000       2.299345        62.5684 
  45   0.0000       2.301602        62.6298 
  46   0.0000       2.527742        68.7834 
  47   0.0000       2.527742        68.7834 
  48   0.0000       2.544360        69.2356 
  49   0.0000       2.559574        69.6496 
  50   0.0000       2.570504        69.9470 
  51   0.0000       2.570504        69.9470 
  52   0.0000       2.657255        72.3076 
  53   0.0000       2.884976        78.5042 
  54   0.0000       2.884976        78.5042 
  55   0.0000       2.938046        79.9483 
  56   0.0000       3.177065        86.4523 
  57   0.0000       3.765976       102.4774 
  58   0.0000       3.765976       102.4774 
  59   0.0000       3.788108       103.0797 
  60   0.0000       3.812386       103.7403 
  61   0.0000       3.845475       104.6407 
  62   0.0000       3.858535       104.9961 
  63   0.0000       3.858535       104.9961 
  64   0.0000       4.189953       114.0144 
  65   0.0000       4.532384       123.3324 
  66   0.0000       7.463080       203.0807 
  67   0.0000       7.463145       203.0825 
  68   0.0000       7.474176       203.3827 
  69   0.0000       7.474176       203.3827 
  70   0.0000       7.478998       203.5139 
  71   0.0000       7.478998       203.5139 
  72   0.0000       7.549973       205.4452 
  73   0.0000       8.854832       240.9522 
  74   0.0000       8.854832       240.9522 
  75   0.0000       8.897995       242.1268 
  76   0.0000       8.902835       242.2585 
  77   0.0000       8.919225       242.7045 
  78   0.0000       8.942721       243.3438 
  79   0.0000       8.942721       243.3438 
  80   0.0000       8.959980       243.8134 
  81   0.0000       8.967707       244.0237 
  82   0.0000       8.968599       244.0480 
  83   0.0000       8.968961       244.0578 
  84   0.0000       9.093958       247.4592 
  85   0.0000       9.093958       247.4592 
  86   0.0000       9.352489       254.4942 
  87   0.0000       9.664834       262.9935 
  88   0.0000       9.697914       263.8937 
  89   0.0000       9.717302       264.4212 
  90   0.0000       9.717302       264.4212 
  91   0.0000       9.795722       266.5552 
  92   0.0000       9.795722       266.5552 
  93   0.0000      10.176761       276.9237 
  94   0.0000      58.656161      1596.1153 

                 SPIN DOWN ORBITALS
  NO   OCC          E(Eh)            E(eV) 
   0   1.0000    -261.380203     -7112.5169 
   1   1.0000     -31.881623      -867.5431 
   2   1.0000     -27.363725      -744.6048 
   3   1.0000     -27.363725      -744.6048 
   4   1.0000     -27.361009      -744.5309 
   5   1.0000     -26.190557      -712.6813 
   6   1.0000      -4.001648      -108.8904 
   7   1.0000      -2.566093       -69.8269 
   8   1.0000      -2.566093       -69.8269 
   9   1.0000      -2.503326       -68.1190 
  10   1.0000      -1.461249       -39.7626 
  11   1.0000      -0.589585       -16.0434 
  12   1.0000      -0.555327       -15.1112 
  13   1.0000      -0.555327       -15.1112 
  14   1.0000      -0.499207       -13.5841 
  15   0.0000       0.011200         0.3048 
  16   0.0000       0.125115         3.4045 
  17   0.0000       0.125115         3.4045 
  18   0.0000       0.158443         4.3114 
  19   0.0000       0.197303         5.3689 
  20   0.0000       0.229464         6.2440 
  21   0.0000       0.229464         6.2440 
  22   0.0000       0.231064         6.2876 
  23   0.0000       0.264683         7.2024 
  24   0.0000       0.325470         8.8565 
  25   0.0000       0.355415         9.6713 
  26   0.0000       0.355415         9.6713 
  27   0.0000       0.370193        10.0735 
  28   0.0000       0.370289        10.0761 
  29   0.0000       0.596369        16.2280 
  30   0.0000       0.596369        16.2280 
  31   0.0000       0.738466        20.0947 
  32   0.0000       0.825046        22.4506 
  33   0.0000       0.909048        24.7365 
  34   0.0000       0.909048        24.7365 
  35   0.0000       1.069810        29.1110 
  36   0.0000       1.171533        31.8790 
  37   0.0000       1.171533        31.8790 
  38   0.0000       1.171636        31.8818 
  39   0.0000       1.226115        33.3643 
  40   0.0000       1.343289        36.5528 
  41   0.0000       2.256573        61.4045 
  42   0.0000       2.258095        61.4459 
  43   0.0000       2.258095        61.4459 
  44   0.0000       2.314272        62.9746 
  45   0.0000       2.316703        63.0407 
  46   0.0000       2.637564        71.7718 
  47   0.0000       2.637564        71.7718 
  48   0.0000       2.669757        72.6478 
  49   0.0000       2.669757        72.6478 
  50   0.0000       2.671238        72.6881 
  51   0.0000       2.705471        73.6196 
  52   0.0000       2.791015        75.9474 
  53   0.0000       2.983656        81.1894 
  54   0.0000       2.983656        81.1894 
  55   0.0000       3.055029        83.1316 
  56   0.0000       3.229662        87.8836 
  57   0.0000       3.808096       103.6236 
  58   0.0000       3.808096       103.6236 
  59   0.0000       3.917868       106.6106 
  60   0.0000       3.939696       107.2046 
  61   0.0000       4.019338       109.3718 
  62   0.0000       4.027431       109.5920 
  63   0.0000       4.027431       109.5920 
  64   0.0000       4.243710       115.4772 
  65   0.0000       4.572964       124.4367 
  66   0.0000       7.466405       203.1712 
  67   0.0000       7.466440       203.1722 
  68   0.0000       7.477450       203.4718 
  69   0.0000       7.477450       203.4718 
  70   0.0000       7.485123       203.6805 
  71   0.0000       7.485123       203.6805 
  72   0.0000       7.560138       205.7218 
  73   0.0000       8.944593       243.3948 
  74   0.0000       8.944593       243.3948 
  75   0.0000       8.949280       243.5223 
  76   0.0000       8.949884       243.5387 
  77   0.0000       9.017880       245.3890 
  78   0.0000       9.070123       246.8106 
  79   0.0000       9.070326       246.8161 
  80   0.0000       9.070643       246.8247 
  81   0.0000       9.071716       246.8539 
  82   0.0000       9.071716       246.8539 
  83   0.0000       9.081227       247.1128 
  84   0.0000       9.179045       249.7745 
  85   0.0000       9.179045       249.7745 
  86   0.0000       9.443091       256.9596 
  87   0.0000       9.908161       269.6148 
  88   0.0000       9.908161       269.6148 
  89   0.0000       9.915409       269.8120 
  90   0.0000       9.967022       271.2165 
  91   0.0000      10.054165       273.5877 
  92   0.0000      10.054165       273.5877 
  93   0.0000      10.391751       282.7739 
  94   0.0000      58.659379      1596.2028 

                    ********************************
                    * MULLIKEN POPULATION ANALYSIS *
                    ********************************

--------------------------------------------
MULLIKEN ATOMIC CHARGES AND SPIN POPULATIONS
--------------------------------------------
   0 Fe:    0.686308    4.952443
   1 F :   -0.686308    0.047557
Sum of atomic charges         :   -0.0000000
Sum of atomic spin populations:    5.0000000

-----------------------------------------------------
MULLIKEN REDUCED ORBITAL CHARGES AND SPIN POPULATIONS
-----------------------------------------------------
CHARGE
  0 Fes       :     6.860092  s :     6.860092
      pz      :     4.280780  p :    12.342128
      px      :     4.030674
      py      :     4.030674
      dz2     :     1.041660  d :     6.104546
      dxz     :     1.031488
      dyz     :     1.031488
      dx2y2   :     0.999979
      dxy     :     1.999932
      f0      :     0.003378  f :     0.006821
      f+1     :     0.001477
      f-1     :     0.001477
      f+2     :     0.000003
      f-2     :     0.000004
      f+3     :     0.000241
      f-3     :     0.000241
      g0      :     0.000034  g :     0.000105
      g+1     :     0.000018
      g-1     :     0.000018
      g+2     :     0.000003
      g-2     :     0.000010
      g+3     :     0.000002
      g-3     :     0.000002
      g+4     :     0.000020
      g-4     :     0.000000
  1 F s       :     3.967657  s :     3.967657
      pz      :     1.843803  p :     5.712898
      px      :     1.934548
      py      :     1.934548
      dz2     :     0.002511  d :     0.005606
      dxz     :     0.001515
      dyz     :     0.001515
      dx2y2   :     0.000014
      dxy     :     0.000051
      f0      :     0.000066  f :     0.000148
      f+1     :     0.000039
      f-1     :     0.000039
      f+2     :     0.000001
      f-2     :     0.000004
      f+3     :     0.000000
      f-3     :     0.000000

SPIN
  0 Fes       :     0.798913  s :     0.798913
      pz      :     0.227952  p :     0.239235
      px      :     0.005642
      py      :     0.005642
      dz2     :     0.950586  d :     3.914740
      dxz     :     0.982085
      dyz     :     0.982085
      dx2y2   :     0.999979
      dxy     :     0.000006
      f0      :    -0.000003  f :    -0.000465
      f+1     :    -0.000014
      f-1     :    -0.000014
      f+2     :     0.000003
      f-2     :     0.000003
      f+3     :    -0.000220
      f-3     :    -0.000220
      g0      :     0.000002  g :     0.000021
      g+1     :     0.000005
      g-1     :     0.000005
      g+2     :     0.000003
      g-2     :     0.000007
      g+3     :     0.000002
      g-3     :     0.000002
      g+4     :    -0.000004
      g-4     :    -0.000000
  1 F s       :     0.001270  s :     0.001270
      pz      :     0.021342  p :     0.046477
      px      :     0.012568
      py      :     0.012568
      dz2     :    -0.000076  d :    -0.000235
      dxz     :    -0.000078
      dyz     :    -0.000078
      dx2y2   :     0.000014
      dxy     :    -0.000016
      f0      :     0.000019  f :     0.000044
      f+1     :     0.000013
      f-1     :     0.000013
      f+2     :     0.000001
      f-2     :    -0.000001
      f+3     :    -0.000000
      f-3     :    -0.000000


                     *******************************
                     * LOEWDIN POPULATION ANALYSIS *
                     *******************************

-------------------------------------------
LOEWDIN ATOMIC CHARGES AND SPIN POPULATIONS
-------------------------------------------
   0 Fe:    0.418470    4.926825
   1 F :   -0.418470    0.073175

----------------------------------------------------
LOEWDIN REDUCED ORBITAL CHARGES AND SPIN POPULATIONS
----------------------------------------------------
CHARGE
  0 Fes       :     6.829514  s :     6.829514
      pz      :     4.387018  p :    12.473419
      px      :     4.043201
      py      :     4.043201
      dz2     :     1.133087  d :     6.264654
      dxz     :     1.065880
      dyz     :     1.065880
      dx2y2   :     0.999952
      dxy     :     1.999855
      f0      :     0.008250  f :     0.013771
      f+1     :     0.002516
      f-1     :     0.002516
      f+2     :     0.000003
      f-2     :     0.000004
      f+3     :     0.000241
      f-3     :     0.000241
      g0      :     0.000082  g :     0.000171
      g+1     :     0.000027
      g-1     :     0.000027
      g+2     :     0.000003
      g-2     :     0.000010
      g+3     :     0.000002
      g-3     :     0.000002
      g+4     :     0.000020
      g-4     :     0.000000
  1 F s       :     3.787676  s :     3.787676
      pz      :     1.849344  p :     5.622080
      px      :     1.886368
      py      :     1.886368
      dz2     :     0.004856  d :     0.008416
      dxz     :     0.001701
      dyz     :     0.001701
      dx2y2   :     0.000038
      dxy     :     0.000120
      f0      :     0.000153  f :     0.000298
      f+1     :     0.000064
      f-1     :     0.000064
      f+2     :     0.000004
      f-2     :     0.000012
      f+3     :     0.000000
      f-3     :     0.000000

SPIN
  0 Fes       :     0.758838  s :     0.758838
      pz      :     0.257844  p :     0.269710
      px      :     0.005933
      py      :     0.005933
      dz2     :     0.943477  d :     3.898291
      dxz     :     0.977421
      dyz     :     0.977421
      dx2y2   :     0.999952
      dxy     :     0.000020
      f0      :     0.000358  f :    -0.000035
      f+1     :     0.000020
      f-1     :     0.000020
      f+2     :     0.000003
      f-2     :     0.000004
      f+3     :    -0.000220
      f-3     :    -0.000220
      g0      :     0.000003  g :     0.000021
      g+1     :     0.000005
      g-1     :     0.000005
      g+2     :     0.000003
      g-2     :     0.000007
      g+3     :     0.000002
      g-3     :     0.000002
      g+4     :    -0.000004
      g-4     :    -0.000000
  1 F s       :     0.007911  s :     0.007911
      pz      :     0.029681  p :     0.061805
      px      :     0.016062
      py      :     0.016062
      dz2     :     0.001796  d :     0.003261
      dxz     :     0.000728
      dyz     :     0.000728
      dx2y2   :     0.000038
      dxy     :    -0.000029
      f0      :     0.000097  f :     0.000198
      f+1     :     0.000049
      f-1     :     0.000049
      f+2     :     0.000004
      f-2     :    -0.000002
      f+3     :    -0.000000
      f-3     :    -0.000000


                      *****************************
                      * MAYER POPULATION ANALYSIS *
                      *****************************

  NA   - Mulliken gross atomic population
  ZA   - Total nuclear charge
  QA   - Mulliken gross atomic charge
  VA   - Mayer's total valence
  BVA  - Mayer's bonded valence
  FA   - Mayer's free valence

  ATOM       NA         ZA         QA         VA         BVA        FA
  0 Fe    25.3137    26.0000     0.6863     5.4817     0.5693     4.9124
  1 F      9.6863     9.0000    -0.6863     0.5713     0.5693     0.0020

  Mayer bond orders larger than 0.100000
B(  0-Fe,  1-F ) :   0.5693 

-------
TIMINGS
-------

Total SCF time: 0 days 0 hours 0 min 3 sec 

Total time                  ....       3.055 sec
Sum of individual times     ....       2.820 sec  ( 92.3%)

Fock matrix formation       ....       2.596 sec  ( 85.0%)
Diagonalization             ....       0.051 sec  (  1.7%)
Density matrix formation    ....       0.009 sec  (  0.3%)
Population analysis         ....       0.005 sec  (  0.2%)
Initial guess               ....       0.109 sec  (  3.6%)
Orbital Transformation      ....       0.000 sec  (  0.0%)
Orbital Orthonormalization  ....       0.000 sec  (  0.0%)
DIIS solution               ....       0.026 sec  (  0.8%)


           ************************************************************
           *        Program running with 24 parallel MPI-processes    *
           *              working on a common directory               *
           ************************************************************


------------------------------------------------------------------------------- 
                              ORCA-MATRIX DRIVEN CI                            
------------------------------------------------------------------------------- 

--------------------------------
AUTOMATIC CHOICE OF INCORE LEVEL
--------------------------------

Memory available                           ...   2500.00 MB
Memory needed for S+T                      ...     13.52 MB
Memory needed for J+K                      ...     27.16 MB
Memory needed for DIIS                     ...    189.26 MB
Memory needed for 3-ext                    ...     45.06 MB
Memory needed for 4-ext                    ...    122.31 MB
Memory needed for triples                  ...     16.09 MB
 -> Final InCoreLevel    ... 5
 -> check shows that triples correction can be computed


Wavefunction type
-----------------
Correlation treatment                      ...      CCSD     
Single excitations                         ... ON
Orbital optimization                       ... OFF
Calculation of Z vector                    ... OFF
Calculation of Brueckner orbitals          ... OFF
Perturbative triple excitations            ... ON
Calculation of F12 correction              ... OFF
Frozen core treatment                      ... chemical core (12 el)
Reference Wavefunction                     ... UHF
  Alpha-MOs occ    :     6 ...   19 ( 14 MO's/ 14 electrons)
  Beta-MOs occ     :     6 ...   14 (  9 MO's/  9 electrons)
  Alpha-MOs virt   :    20 ...   94 ( 75 MO's              )
  Beta-MOs virt    :    15 ...   94 ( 80 MO's              )
Number of AO's                             ...     95
Number of electrons                        ...     35
Number of correlated electrons             ...     23

Algorithmic settings
--------------------
Integral transformation                    ... AO direct full transformation
K(C) Formation                             ... FULL-MO TRAFO
Maximum number of iterations               ...        50
Convergence tolerance (max. residuum)      ... 1.000e-06
Level shift for amplitude update           ... 2.000e-01
Maximum number of DIIS vectors             ...         7
DIIS turned on at iteration                ...         0
Damping before turning on DIIS             ...     0.500
Damping after turning on DIIS              ...     0.000
Pair specific amplitude update             ... OFF
Natural orbital iterations                 ... OFF
Perturbative natural orbital generation    ... OFF
Printlevel                                 ... 2

Memory handling:
----------------
Maximum memory for working arrays          ...   2500 MB
Data storage in matrix containers          ... UNCOMPRESSED
Data type for integral storage             ... DOUBLE
In-Core Storage of quantities:
   Amplitudes+Sigma Vector      ... YES
   J+K operators                ... YES
   DIIS vectors                 ... YES
   3-external integrals         ... YES
   4-external integrals         ... YES


Initializing the integral package          ... done
Warning: reference  - re-canonicalizations have been set to INT 1 VIRT 1

--------------------------
UNRESTRICTED FOCK OPERATOR
--------------------------

<ss|ss>:         1953 b           18 skpd (  0.9%)    0.001 s ( 0.000 ms/b)
<ss|sp>:         5332 b           39 skpd (  0.7%)    0.001 s ( 0.000 ms/b)
<ss|sd>:         4030 b           58 skpd (  1.4%)    0.001 s ( 0.000 ms/b)
<ss|sf>:         1984 b           36 skpd (  1.8%)    0.000 s ( 0.000 ms/b)
<ss|sg>:          682 b           15 skpd (  2.2%)    0.001 s ( 0.002 ms/b)
<ss|pp>:         2232 b           11 skpd (  0.5%)    0.001 s ( 0.001 ms/b)
<ss|pd>:         2976 b           36 skpd (  1.2%)    0.001 s ( 0.000 ms/b)
<ss|pf>:         1488 b           14 skpd (  0.9%)    0.000 s ( 0.000 ms/b)
<ss|pg>:          496 b            4 skpd (  0.8%)    0.001 s ( 0.002 ms/b)
<ss|dd>:         1302 b            8 skpd (  0.6%)    0.001 s ( 0.001 ms/b)
<ss|df>:         1116 b           15 skpd (  1.3%)    0.001 s ( 0.001 ms/b)
<ss|dg>:          372 b            6 skpd (  1.6%)    0.001 s ( 0.002 ms/b)
<ss|ff>:          372 b            4 skpd (  1.1%)    0.000 s ( 0.001 ms/b)
<ss|fg>:          186 b            2 skpd (  1.1%)    0.000 s ( 0.002 ms/b)
<ss|gg>:           62 b            0 skpd (  0.0%)    0.001 s ( 0.009 ms/b)
<sp|sp>:         3741 b           29 skpd (  0.8%)    0.001 s ( 0.000 ms/b)
<sp|sd>:         5590 b          108 skpd (  1.9%)    0.002 s ( 0.000 ms/b)
<sp|sf>:         2752 b           61 skpd (  2.2%)    0.001 s ( 0.000 ms/b)
<sp|sg>:          946 b           21 skpd (  2.2%)    0.001 s ( 0.001 ms/b)
<sp|pp>:         3096 b            8 skpd (  0.3%)    0.002 s ( 0.001 ms/b)
<sp|pd>:         4128 b           32 skpd (  0.8%)    0.003 s ( 0.001 ms/b)
<sp|pf>:         2064 b           10 skpd (  0.5%)    0.001 s ( 0.001 ms/b)
<sp|pg>:          688 b            3 skpd (  0.4%)    0.002 s ( 0.003 ms/b)
<sp|dd>:         1806 b            8 skpd (  0.4%)    0.003 s ( 0.001 ms/b)
<sp|df>:         1548 b           11 skpd (  0.7%)    0.002 s ( 0.001 ms/b)
<sp|dg>:          516 b            4 skpd (  0.8%)    0.002 s ( 0.004 ms/b)
<sp|ff>:          516 b            3 skpd (  0.6%)    0.001 s ( 0.002 ms/b)
<sp|fg>:          258 b            1 skpd (  0.4%)    0.001 s ( 0.005 ms/b)
<sp|gg>:           86 b            0 skpd (  0.0%)    0.002 s ( 0.019 ms/b)
<sd|sd>:         2145 b           69 skpd (  3.2%)    0.001 s ( 0.001 ms/b)
<sd|sf>:         2080 b           92 skpd (  4.4%)    0.001 s ( 0.000 ms/b)
<sd|sg>:          715 b           35 skpd (  4.9%)    0.001 s ( 0.002 ms/b)
<sd|pp>:         2340 b           23 skpd (  1.0%)    0.002 s ( 0.001 ms/b)
<sd|pd>:         3120 b           69 skpd (  2.2%)    0.003 s ( 0.001 ms/b)
<sd|pf>:         1560 b           39 skpd (  2.5%)    0.001 s ( 0.001 ms/b)
<sd|pg>:          520 b           15 skpd (  2.9%)    0.002 s ( 0.004 ms/b)
<sd|dd>:         1365 b           20 skpd (  1.5%)    0.003 s ( 0.003 ms/b)
<sd|df>:         1170 b           31 skpd (  2.6%)    0.002 s ( 0.002 ms/b)
<sd|dg>:          390 b            9 skpd (  2.3%)    0.003 s ( 0.007 ms/b)
<sd|ff>:          390 b           13 skpd (  3.3%)    0.001 s ( 0.003 ms/b)
<sd|fg>:          195 b            6 skpd (  3.1%)    0.002 s ( 0.009 ms/b)
<sd|gg>:           65 b            1 skpd (  1.5%)    0.003 s ( 0.039 ms/b)
<sf|sf>:          528 b           34 skpd (  6.4%)    0.000 s ( 0.001 ms/b)
<sf|sg>:          352 b           23 skpd (  6.5%)    0.001 s ( 0.003 ms/b)
<sf|pp>:         1152 b           11 skpd (  1.0%)    0.002 s ( 0.002 ms/b)
<sf|pd>:         1536 b           50 skpd (  3.3%)    0.003 s ( 0.002 ms/b)
<sf|pf>:          768 b           26 skpd (  3.4%)    0.001 s ( 0.001 ms/b)
<sf|pg>:          256 b            9 skpd (  3.5%)    0.002 s ( 0.006 ms/b)
<sf|dd>:          672 b           15 skpd (  2.2%)    0.003 s ( 0.004 ms/b)
<sf|df>:          576 b           27 skpd (  4.7%)    0.002 s ( 0.003 ms/b)
<sf|dg>:          192 b            9 skpd (  4.7%)    0.002 s ( 0.012 ms/b)
<sf|ff>:          192 b            9 skpd (  4.7%)    0.001 s ( 0.006 ms/b)
<sf|fg>:           96 b            4 skpd (  4.2%)    0.002 s ( 0.017 ms/b)
<sf|gg>:           32 b            1 skpd (  3.1%)    0.002 s ( 0.066 ms/b)
<sg|sg>:           66 b            5 skpd (  7.6%)    0.000 s ( 0.004 ms/b)
<sg|pp>:          396 b            3 skpd (  0.8%)    0.001 s ( 0.003 ms/b)
<sg|pd>:          528 b           14 skpd (  2.7%)    0.002 s ( 0.004 ms/b)
<sg|pf>:          264 b            6 skpd (  2.3%)    0.001 s ( 0.003 ms/b)
<sg|pg>:           88 b            1 skpd (  1.1%)    0.001 s ( 0.016 ms/b)
<sg|dd>:          231 b            2 skpd (  0.9%)    0.002 s ( 0.008 ms/b)
<sg|df>:          198 b            7 skpd (  3.5%)    0.001 s ( 0.006 ms/b)
<sg|dg>:           66 b            3 skpd (  4.5%)    0.002 s ( 0.028 ms/b)
<sg|ff>:           66 b            2 skpd (  3.0%)    0.001 s ( 0.010 ms/b)
<sg|fg>:           33 b            2 skpd (  6.1%)    0.001 s ( 0.034 ms/b)
<sg|gg>:           11 b            0 skpd (  0.0%)    0.001 s ( 0.127 ms/b)
<pp|pp>:          666 b            1 skpd (  0.2%)    0.002 s ( 0.003 ms/b)
<pp|pd>:         1728 b            2 skpd (  0.1%)    0.003 s ( 0.002 ms/b)
<pp|pf>:          864 b            1 skpd (  0.1%)    0.001 s ( 0.001 ms/b)
<pp|pg>:          288 b            0 skpd (  0.0%)    0.002 s ( 0.006 ms/b)
<pp|dd>:          756 b            1 skpd (  0.1%)    0.003 s ( 0.004 ms/b)
<pp|df>:          648 b            1 skpd (  0.2%)    0.002 s ( 0.002 ms/b)
<pp|dg>:          216 b            0 skpd (  0.0%)    0.002 s ( 0.011 ms/b)
<pp|ff>:          216 b            0 skpd (  0.0%)    0.001 s ( 0.005 ms/b)
<pp|fg>:          108 b            0 skpd (  0.0%)    0.002 s ( 0.015 ms/b)
<pp|gg>:           36 b            0 skpd (  0.0%)    0.002 s ( 0.061 ms/b)
<pd|pd>:         1176 b            4 skpd (  0.3%)    0.005 s ( 0.004 ms/b)
<pd|pf>:         1152 b            4 skpd (  0.3%)    0.002 s ( 0.002 ms/b)
<pd|pg>:          384 b            2 skpd (  0.5%)    0.004 s ( 0.010 ms/b)
<pd|dd>:         1008 b            9 skpd (  0.9%)    0.006 s ( 0.006 ms/b)
<pd|df>:          864 b           12 skpd (  1.4%)    0.004 s ( 0.004 ms/b)
<pd|dg>:          288 b            4 skpd (  1.4%)    0.005 s ( 0.019 ms/b)
<pd|ff>:          288 b            3 skpd (  1.0%)    0.004 s ( 0.014 ms/b)
<pd|fg>:          144 b            1 skpd (  0.7%)    0.004 s ( 0.026 ms/b)
<pd|gg>:           48 b            1 skpd (  2.1%)    0.005 s ( 0.109 ms/b)
<pf|pf>:          300 b            0 skpd (  0.0%)    0.001 s ( 0.004 ms/b)
<pf|pg>:          192 b            0 skpd (  0.0%)    0.003 s ( 0.015 ms/b)
<pf|dd>:          504 b            0 skpd (  0.0%)    0.004 s ( 0.008 ms/b)
<pf|df>:          432 b            2 skpd (  0.5%)    0.003 s ( 0.006 ms/b)
<pf|dg>:          144 b            0 skpd (  0.0%)    0.004 s ( 0.027 ms/b)
<pf|ff>:          144 b            0 skpd (  0.0%)    0.004 s ( 0.025 ms/b)
<pf|fg>:           72 b            0 skpd (  0.0%)    0.003 s ( 0.042 ms/b)
<pf|gg>:           24 b            0 skpd (  0.0%)    0.004 s ( 0.163 ms/b)
<pg|pg>:           36 b            0 skpd (  0.0%)    0.001 s ( 0.029 ms/b)
<pg|dd>:          168 b            0 skpd (  0.0%)    0.003 s ( 0.016 ms/b)
<pg|df>:          144 b            0 skpd (  0.0%)    0.002 s ( 0.011 ms/b)
<pg|dg>:           48 b            0 skpd (  0.0%)    0.003 s ( 0.053 ms/b)
<pg|ff>:           48 b            0 skpd (  0.0%)    0.002 s ( 0.033 ms/b)
<pg|fg>:           24 b            0 skpd (  0.0%)    0.002 s ( 0.077 ms/b)
<pg|gg>:            8 b            0 skpd (  0.0%)    0.002 s ( 0.275 ms/b)
<dd|dd>:          231 b            0 skpd (  0.0%)    0.004 s ( 0.017 ms/b)
<dd|df>:          378 b            1 skpd (  0.3%)    0.003 s ( 0.007 ms/b)
<dd|dg>:          126 b            0 skpd (  0.0%)    0.004 s ( 0.031 ms/b)
<dd|ff>:          126 b            0 skpd (  0.0%)    0.002 s ( 0.016 ms/b)
<dd|fg>:           63 b            0 skpd (  0.0%)    0.003 s ( 0.046 ms/b)
<dd|gg>:           21 b            0 skpd (  0.0%)    0.004 s ( 0.189 ms/b)
<df|df>:          171 b            1 skpd (  0.6%)    0.003 s ( 0.018 ms/b)
<df|dg>:          108 b            1 skpd (  0.9%)    0.004 s ( 0.041 ms/b)
<df|ff>:          108 b            1 skpd (  0.9%)    0.003 s ( 0.028 ms/b)
<df|fg>:           54 b            0 skpd (  0.0%)    0.004 s ( 0.069 ms/b)
<df|gg>:           18 b            0 skpd (  0.0%)    0.005 s ( 0.277 ms/b)
<dg|dg>:           21 b            0 skpd (  0.0%)    0.002 s ( 0.105 ms/b)
<dg|ff>:           36 b            0 skpd (  0.0%)    0.001 s ( 0.035 ms/b)
<dg|fg>:           18 b            0 skpd (  0.0%)    0.002 s ( 0.120 ms/b)
<dg|gg>:            6 b            0 skpd (  0.0%)    0.003 s ( 0.429 ms/b)
<ff|ff>:           21 b            0 skpd (  0.0%)    0.001 s ( 0.052 ms/b)
<ff|fg>:           18 b            0 skpd (  0.0%)    0.002 s ( 0.108 ms/b)
<ff|gg>:            6 b            0 skpd (  0.0%)    0.003 s ( 0.503 ms/b)
<fg|fg>:            6 b            0 skpd (  0.0%)    0.001 s ( 0.244 ms/b)
<fg|gg>:            3 b            0 skpd (  0.0%)    0.002 s ( 0.698 ms/b)
<gg|gg>:            1 b            0 skpd (  0.0%)    0.001 s ( 1.246 ms/b)
Recanonicalizing the internal orbitals
Recanonicalizing the virtual orbitals
Time needed for Fock operator              ...            0.315 sec
Reference energy                           ...  -1361.970920313
Warning: for UHF the TrafoType has to be JK
Warning: for UHF the K(C)-option cannot be MO but must be AOX

-------------------------------
PARTIAL EXCHANGE TRANSFORMATION
-------------------------------

Transformation type                        ... two-operators
Generation of integrals (i,mue|j,nue)      ... ON
Generation of integrals (mue,kappa|nue,tau)... ON
Generation of integrals (i,mue|a,nue)      ... ON
Dimension of the basis                     ...   95
Number of internal alpha-MOs               ...   14 (   6-  19)
Number of internal beta-MOs                ...    9 (   6-  14)
Number of external alpha-MOs               ...   75 (  20-  94)
Number of external beta-MOs                ...   80 (  15-  94)
Pair cutoff                                ... 0.000e+00 Eh
Number of AO pairs in the trafo            ... 4560
Total Number of distinct AO pairs          ... 4560
Memory devoted for trafo                   ... 2500.0 MB 
Max. Number of MO pairs treated together   ... 36308      
Number Format for Storage                  ... Double (8 Byte)
Integral package used                      ... LIBINT

Starting integral evaluation:
    ... done with AO integral generation
Closing buffer AOK[aa] ( 0.00 GB; CompressionRatio= 0.99)
Closing buffer AOK[bb] ( 0.00 GB; CompressionRatio= 0.98)
Closing buffer AOK[ab] ( 0.00 GB; CompressionRatio= 0.99)
Closing buffer AOK[ba] ( 0.00 GB; CompressionRatio= 0.99)
Collecting buffer AOK 
Closing buffer IAAO1[aa] ( 0.00 GB; CompressionRatio= 1.00)
Closing buffer IAAO1[bb] ( 0.00 GB; CompressionRatio= 1.00)
Closing buffer IAAO1[ab] ( 0.00 GB; CompressionRatio= 1.00)
Closing buffer IAAO1[ba] ( 0.00 GB; CompressionRatio= 1.00)
Closing buffer IAAO2[aa] ( 0.00 GB; CompressionRatio= 1.00)
Closing buffer IAAO2[bb] ( 0.00 GB; CompressionRatio= 1.00)
Closing buffer IAAO2[ab] ( 0.00 GB; CompressionRatio= 1.00)
Closing buffer IAAO2[ba] ( 0.00 GB; CompressionRatio= 1.00)
Collecting buffer IAAO 
Closing buffer PRQS    ( 0.00 GB; CompressionRatio= 1.00)
Collecting buffer PRQS 
Number of alpha/alpha MO pairs in trafo    ...  105
Number of beta /beta  MO pairs in trafo    ...   45
Number of alpha/ beta MO pairs in trafo    ...  126
------------------------
SORTING OF (i,mue|j,nue)
------------------------

SORTING OF ALPHA/ALPHA PAIRS
IBATCH = 1 of  1
Closing buffer KAO[aa] ( 0.00 GB; CompressionRatio= 1.00)
Collecting buffer KAO 
SORTING OF BETA /BETA  PAIRS
IBATCH = 1 of  1
Closing buffer KAO[bb] ( 0.00 GB; CompressionRatio= 1.00)
Collecting buffer KAO 
SORTING OF ALPHA/BETA  PAIRS
IBATCH = 1 of  1
Closing buffer KAO[ab] ( 0.00 GB; CompressionRatio= 0.999833822633)
Collecting buffer KAO[ab] 
------------------------
SORTING OF (i,mue|a,nue)
------------------------

Number of alpha/alpha (i,a) pairs in trafo  ... 1050
Number of beta /beta  (i,a) pairs in trafo  ...  720
Number of alpha/ beta (i,a) pairs in trafo  ... 1120
Number of beta /alpha (i,a) pairs in trafo  ...  675
Setting up the alpha/alpha list             ... done
Setting up the beta /beta  list             ... done
Setting up the alpha/beta  list             ... done
Setting up the beta /alpha list             ... done
    ... Now sorting (i,mue|a,nue)integrals
    ... Integrals (i,b|a,c) will be made on the fly
SORTING OF ALPHA/ALPHA PAIRS
IBATCH = 1 of  1
Closing buffer IPAQ[aa]  0.00 GB; CompressionRatio= 1.00)
SORTING OF BETA /BETA  PAIRS
IBATCH = 1 of  1
Closing buffer IPAQ[bb]( 0.00 GB; CompressionRatio= 1.00)
SORTING OF ALPHA/BETA  PAIRS (NMatSort_ab=47)
IBATCH = 1 of  1
Closing buffer IPAQ[ab]( 0.00 GB; CompressionRatio= 1.00)
SORTING OF BETA/ALPHA  PAIRS
IBATCH = 1 of  1
Closing buffer IPAQ[ba]( 0.00 GB; CompressionRatio= 1.00)
N(AO-Batches) Done                         ...      4872 
N(AO-Batches) Skipped                      ...         0 
N(IJ)-pairs Skipped                        ...         0 
TOTAL TIME for half transformation         ...     1.172 sec
AO-integral generation                     ...     0.020 sec
Half transformation                        ...     0.005 sec
K-integral sorting                         ...     0.698 sec
<ss|**>: 
------------------------------
PARTIAL COULOMB TRANSFORMATION
------------------------------

Transformation type                        ... two-operators
Dimension of the basis                     ...   95
Number of internal alpha-MOs               ...   14 (6-19)
Number of internal beta-MOs                ...    9 (6-14)
Pair cutoff                                ... 0.000e+00 Eh
Number of AO pairs included in the trafo   ... 4560
Total Number of distinct AO pairs          ... 4560
Memory devoted for trafo                   ... 2500.0 MB 
Max. Number of MO pairs treated together   ... 71859      
Max. Number of MOs treated per batch       ...  756      
Number Format for Storage                  ... Double (8 Byte)
AO-integral source                         ... DIRECT
Integral package used                      ... LIBINT

Starting integral evaluation:
       26474 b        0 skpd     0.006 s (  0.000 ms/b)
<sp|**>: <sd|**>:        36722 b        0 skpd     0.015 s (  0.000 ms/b)
<sf|**>:        27755 b        0 skpd     0.019 s (  0.001 ms/b)
       13664 b        0 skpd     0.011 s (  0.001 ms/b)
<sg|**>:         4697 b        0 skpd     0.019 s (  0.004 ms/b)
<pp|**>:        15372 b        0 skpd     0.024 s (  0.002 ms/b)
<pd|**>:        20496 b        0 skpd     0.038 s (  0.002 ms/b)
<pf|**>:        10248 b        0 skpd     0.015 s (  0.001 ms/b)
<pg|**>:         3416 b        0 skpd     0.027 s (  0.008 ms/b)
<dd|**>:         8967 b        0 skpd     0.040 s (  0.004 ms/b)
<df|**>:         7686 b        0 skpd     0.021 s (  0.003 ms/b)
<dg|**>:         2562 b        0 skpd     0.034 s (  0.013 ms/b)
<ff|**>:         2562 b        0 skpd     0.015 s (  0.006 ms/b)
<fg|**>:         1281 b        0 skpd     0.022 s (  0.017 ms/b)
<gg|**>:          427 b        0 skpd     0.032 s (  0.076 ms/b)
Closing buffer AOJ[aa] ( 0.00 GB; CompressionRatio= 0.99)
Closing buffer AOJ[bb] ( 0.00 GB; CompressionRatio= 0.00)
Collecting buffer AOJ 
    ... done with AO integral generation
Number of Alpha-MO pairs included          ...  105
Number of Beta-MO pairs included           ...   45
    ... Now sorting integrals
SORTING ALPHA/ALPHA PAIRS
IBATCH = 1 of  1
Closing buffer JAO[aa] ( 0.00 GB; CompressionRatio= 1.00)
SORTING BETA/BETA PAIRS
IBATCH = 1 of  1
Closing buffer JAO[bb] ( 0.00 GB; CompressionRatio= 1.00)
Collecting buffer JAO 
TOTAL TIME for half transformation         ...     0.366 sec
AO-integral generation                     ...     0.336 sec
Half transformation                        ...     0.010 sec
J-integral sorting                         ...     0.016 sec

-------------------------- SECOND HALF TRANSFORMATION -------------------------
Formation of (ij|kl),(ij|ka), (ij|ab)      ... ok (     0.052 sec)
Formation of (ik|jl),(ik|ja), (ia|jb)      ... ok (     0.086 sec)


-----------------------
SPIN UNRESTRICTED GUESS
-----------------------

Entering MDCI_UHF_Guess, Tailored=0
Spin-components of the MP2 energy:
EMP2(aa)=     -0.168788619
EMP2(bb)=     -0.077524446
EMP2(ab)=     -0.512871913

Initial guess performed in     0.036 sec
E(0)                                       ...  -1361.970920313
E(MP2)                                     ...     -0.759184978
Initial E(tot)                             ...  -1362.730105291
<T|T>                                      ...      0.120706796
Number of pairs included                   ... 253

------------------------------------------------
                  UHF COUPLED CLUSTER ITERATIONS
------------------------------------------------

Number of amplitudes to be optimized       ...      1127977

Iter       E(tot)           E(Corr)          Delta-E          Residual     Time      <S|S>**1/2
  0  -1362.730105291     -0.759184978      0.000000000      0.025691644    0.89      0.000000029
                           *** Turning on DIIS ***
  1  -1362.704259875     -0.733339562      0.025845416      0.006752650    0.97      0.055580548
  2  -1362.718726631     -0.747806317     -0.014466756      0.007777897    1.00      0.060226751
  3  -1362.720950403     -0.750030089     -0.002223772      0.003155739    1.00      0.075710228
  4  -1362.722369994     -0.751449680     -0.001419591      0.002329048    1.02      0.083981950
  5  -1362.723424134     -0.752503821     -0.001054140      0.000672740    1.05      0.092680368
  6  -1362.723565017     -0.752644704     -0.000140883      0.000355011    1.05      0.094838037
  7  -1362.723633102     -0.752712789     -0.000068085      0.000154629    1.04      0.095466285
  8  -1362.723635871     -0.752715558     -0.000002769      0.000085716    1.07      0.095393967
  9  -1362.723631472     -0.752711159      0.000004399      0.000030650    1.03      0.095319030
 10  -1362.723635067     -0.752714753     -0.000003594      0.000011299    1.04      0.095307805
 11  -1362.723631770     -0.752711456      0.000003297      0.000004019    1.06      0.095285592
 12  -1362.723633048     -0.752712734     -0.000001278      0.000002442    1.02      0.095291915
 13  -1362.723632857     -0.752712544      0.000000191      0.000001274    1.01      0.095290623
 14  -1362.723633076     -0.752712762     -0.000000219      0.000000620    1.04      0.095291778
               --- The Coupled-Cluster iterations have converged ---

----------------------
COUPLED CLUSTER ENERGY
----------------------

E(0)                                       ...  -1361.970920313
E(CORR)                                    ...     -0.752712762
E(TOT)                                     ...  -1362.723633076
Singles norm <S|S>**1/2                    ...      0.095291778 ( 0.052907727, 0.042384051)  
T1 diagnostic                              ...      0.019869709                              

------------------
LARGEST AMPLITUDES
------------------
  12b-> 21b  -1b-> -1b       0.049936
  13b-> 20b  -1b-> -1b       0.049936
  11b-> 27b  -1b-> -1b       0.045269
  19a-> 23a  -1a-> -1a       0.037409
  16a-> 23a  -1a-> -1a       0.027485
  17a-> 20a  -1a-> -1a       0.026663
  18a-> 21a  -1a-> -1a       0.026663
  11b-> 18b  -1b-> -1b       0.026635
  11b-> 24b  -1b-> -1b       0.025230
  14b-> 23b  -1b-> -1b       0.024772
  13b-> 26b  -1b-> -1b       0.024021
  12b-> 25b  -1b-> -1b       0.024021
  15a-> 38a  14b-> 35b       0.023945
  18a-> 34a  12b-> 34b       0.023269
  17a-> 33a  13b-> 33b       0.023269
  16a-> 32a  11b-> 32b       0.021527

----------------------
UHF TRIPLES CORRECTION (Algorithm 1)
----------------------

Multiplier for the singles contribution    ...      1.000000000

SPIN-CASE Alpha-Alpha-Alpha:
10% done
20% done
30% done
40% done
50% done
60% done
70% done
80% done
90% done


SPIN-CASE Beta-Beta-Beta:
10% done
20% done
30% done
40% done
50% done
60% done
70% done
80% done
90% done


SPIN-CASE Alpha-Alpha-Beta:
10% done
20% done
30% done
40% done
50% done
60% done
70% done
80% done
90% done


SPIN-CASE Beta-Beta-Alpha:
10% done
20% done
30% done
40% done
50% done
60% done
70% done
80% done
90% done


Triples Correction (T)                     ...     -0.019773303
    alpha-alpha-alpha ... -0.001474112 (  7.5%)
    alpha-alpha-beta  ... -0.010569916 ( 53.5%)
    alpha-beta -beta  ... -0.007243721 ( 36.6%)
    beta -beta -beta  ... -0.000485555 (  2.5%)
Scaling of triples based on CCSD energies (Peterson et al. Molecular Physics 113, 1551 (2015))
E(T*) = f*E(T) where f = E(F12-CCSD)/E(CCSD) 
f = CCSD (with F12)/ CCSD (without F12)    ...      1.000000000
Scaled triples correction (T)              ...     -0.019773303

Final correlation energy                   ...     -0.772486066
E(CCSD)                                    ...  -1362.723633076
E(CCSD(T))                                 ...  -1362.743406379



        !!!!!!!!!!!!!!!!!!!!!!!!!!!!!!!!!!!!!!!!!!!!!!!!!!!!!!!!!!!!!!!!!!!!!!!!!! 
        !  Warning: Densities are linearized densities                           !
        !!!!!!!!!!!!!!!!!!!!!!!!!!!!!!!!!!!!!!!!!!!!!!!!!!!!!!!!!!!!!!!!!!!!!!!!!! 

NORM  =      1.142135108 sqrt=     1.068707213
W(HF) =      0.875553157
------------------------------------------------------------------------------
                           ORCA POPULATION ANALYSIS
------------------------------------------------------------------------------
Input electron density              ... 32_FeF.mdcip
Input spin density                  ... 32_FeF.mdcir
BaseName (.gbw .S,...)              ... 32_FeF

                    ********************************
                    * MULLIKEN POPULATION ANALYSIS *
                    ********************************

------------------------------------------
MULLIKEN ATOMIC CHARGES AND SPIN DENSITIES
------------------------------------------
   0 Fe:    0.551282    4.900062
   1 F :   -0.551282    0.099938
Sum of atomic charges       :   -0.0000000
Sum of atomic spin densities:    5.0000000

---------------------------------------------------
MULLIKEN REDUCED ORBITAL CHARGES AND SPIN DENSITIES
---------------------------------------------------
CHARGE
  0 Fes       :     6.897776  s :     6.897776
      pz      :     4.258191  p :    12.346566
      px      :     4.044187
      py      :     4.044187
      dz2     :     1.067100  d :     6.166972
      dxz     :     1.055756
      dyz     :     1.055756
      dx2y2   :     1.000931
      dxy     :     1.987429
      f0      :     0.006743  f :     0.034248
      f+1     :     0.005183
      f-1     :     0.005183
      f+2     :     0.003538
      f-2     :     0.004308
      f+3     :     0.004647
      f-3     :     0.004647
      g0      :     0.000359  g :     0.003157
      g+1     :     0.000344
      g-1     :     0.000344
      g+2     :     0.000304
      g-2     :     0.000366
      g+3     :     0.000346
      g-3     :     0.000346
      g+4     :     0.000374
      g-4     :     0.000375
  1 F s       :     3.957830  s :     3.957830
      pz      :     1.784852  p :     5.558353
      px      :     1.886750
      py      :     1.886750
      dz2     :     0.008106  d :     0.032517
      dxz     :     0.007023
      dyz     :     0.007023
      dx2y2   :     0.005152
      dxy     :     0.005213
      f0      :     0.000435  f :     0.002582
      f+1     :     0.000397
      f-1     :     0.000397
      f+2     :     0.000343
      f-2     :     0.000346
      f+3     :     0.000332
      f-3     :     0.000332

SPIN
  0 Fes       :     0.820928  s :     0.820928
      pz      :     0.219137  p :     0.254275
      px      :     0.017569
      py      :     0.017569
      dz2     :     0.907630  d :     3.809066
      dxz     :     0.952920
      dyz     :     0.952920
      dx2y2   :     0.991043
      dxy     :     0.004554
      f0      :     0.002514  f :     0.014338
      f+1     :     0.002415
      f-1     :     0.002415
      f+2     :     0.002694
      f-2     :     0.001722
      f+3     :     0.001289
      f-3     :     0.001289
      g0      :     0.000192  g :     0.001455
      g+1     :     0.000191
      g-1     :     0.000191
      g+2     :     0.000190
      g-2     :     0.000171
      g+3     :     0.000154
      g-3     :     0.000154
      g+4     :     0.000107
      g-4     :     0.000107
  1 F s       :     0.000401  s :     0.000401
      pz      :     0.044725  p :     0.099271
      px      :     0.027273
      py      :     0.027273
      dz2     :     0.000021  d :     0.000179
      dxz     :     0.000008
      dyz     :     0.000008
      dx2y2   :     0.000096
      dxy     :     0.000046
      f0      :     0.000025  f :     0.000087
      f+1     :     0.000019
      f-1     :     0.000019
      f+2     :     0.000008
      f-2     :     0.000005
      f+3     :     0.000006
      f-3     :     0.000006


                     *******************************
                     * LOEWDIN POPULATION ANALYSIS *
                     *******************************

-----------------------------------------
LOEWDIN ATOMIC CHARGES AND SPIN DENSITIES
-----------------------------------------
   0 Fe:    0.310324    4.871781
   1 F :   -0.310324    0.128219

--------------------------------------------------
LOEWDIN REDUCED ORBITAL CHARGES AND SPIN DENSITIES
--------------------------------------------------
CHARGE
  0 Fes       :     6.851412  s :     6.851412
      pz      :     4.363718  p :    12.475319
      px      :     4.055800
      py      :     4.055800
      dz2     :     1.154980  d :     6.319132
      dxz     :     1.087958
      dyz     :     1.087958
      dx2y2   :     1.000902
      dxy     :     1.987335
      f0      :     0.011182  f :     0.040597
      f+1     :     0.006138
      f-1     :     0.006138
      f+2     :     0.003538
      f-2     :     0.004308
      f+3     :     0.004647
      f-3     :     0.004647
      g0      :     0.000402  g :     0.003216
      g+1     :     0.000352
      g-1     :     0.000352
      g+2     :     0.000304
      g-2     :     0.000366
      g+3     :     0.000346
      g-3     :     0.000346
      g+4     :     0.000374
      g-4     :     0.000375
  1 F s       :     3.782241  s :     3.782241
      pz      :     1.805890  p :     5.489186
      px      :     1.841648
      py      :     1.841648
      dz2     :     0.011031  d :     0.036136
      dxz     :     0.007316
      dyz     :     0.007316
      dx2y2   :     0.005177
      dxy     :     0.005297
      f0      :     0.000536  f :     0.002761
      f+1     :     0.000429
      f-1     :     0.000429
      f+2     :     0.000346
      f-2     :     0.000356
      f+3     :     0.000332
      f-3     :     0.000332

SPIN
  0 Fes       :     0.771161  s :     0.771161
      pz      :     0.254122  p :     0.290511
      px      :     0.018194
      py      :     0.018194
      dz2     :     0.902502  d :     3.793728
      dxz     :     0.947823
      dyz     :     0.947823
      dx2y2   :     0.991008
      dxy     :     0.004571
      f0      :     0.002986  f :     0.014924
      f+1     :     0.002472
      f-1     :     0.002472
      f+2     :     0.002694
      f-2     :     0.001722
      f+3     :     0.001289
      f-3     :     0.001289
      g0      :     0.000194  g :     0.001457
      g+1     :     0.000190
      g-1     :     0.000190
      g+2     :     0.000190
      g-2     :     0.000171
      g+3     :     0.000154
      g-3     :     0.000154
      g+4     :     0.000107
      g-4     :     0.000107
  1 F s       :     0.009016  s :     0.009016
      pz      :     0.053528  p :     0.114976
      px      :     0.030724
      py      :     0.030724
      dz2     :     0.001959  d :     0.003976
      dxz     :     0.000930
      dyz     :     0.000930
      dx2y2   :     0.000127
      dxy     :     0.000030
      f0      :     0.000103  f :     0.000251
      f+1     :     0.000061
      f-1     :     0.000061
      f+2     :     0.000012
      f-2     :     0.000004
      f+3     :     0.000006
      f-3     :     0.000006


                      *****************************
                      * MAYER POPULATION ANALYSIS *
                      *****************************

  NA   - Mulliken gross atomic population
  ZA   - Total nuclear charge
  QA   - Mulliken gross atomic charge
  VA   - Mayer's total valence
  BVA  - Mayer's bonded valence
  FA   - Mayer's free valence

  ATOM       NA         ZA         QA         VA         BVA        FA
  0 Fe    25.4487    26.0000     0.5513     5.9657     0.7350     5.2307
  1 F      9.5513     9.0000    -0.5513     1.1432     0.7350     0.4082

  Mayer bond orders larger than 0.100000
B(  0-Fe,  1-F ) :   0.7350 



------------------------------------------------------------------------------- 
                                     TIMINGS                                   
------------------------------------------------------------------------------- 


Total execution time                   ...       20.335 sec

Fock Matrix Formation                  ...        0.315 sec (  1.5%)
Initial Guess                          ...        0.036 sec (  0.2%)
DIIS Solver                            ...        1.475 sec (  7.3%)
State Vector Update                    ...        0.068 sec (  0.3%)
Sigma-vector construction              ...       13.752 sec ( 67.6%)
  <0|H|D>                              ...        0.004 sec (  0.0% of sigma)
  <D|H|D>(0-ext Fock)                  ...        0.034 sec (  0.2% of sigma)
  <D|H|D>(0-ext)                       ...        0.192 sec (  1.4% of sigma)
  <D|H|D>(2-ext Fock)                  ...        0.010 sec (  0.1% of sigma)
  <D|H|D>(2-ext)                       ...        0.440 sec (  3.2% of sigma)
  <D|H|D>(4-ext)                       ...        5.701 sec ( 41.5% of sigma)
  <S|H|0>                              ...        0.708 sec (  5.2% of sigma)
  <S|H|S>                              ...        0.002 sec (  0.0% of sigma)
  <S|H|D>(1-ext)                       ...        0.009 sec (  0.1% of sigma)
  <D|H|S>(1-ext)                       ...        0.116 sec (  0.8% of sigma)
  Fock-dressing                        ...        2.484 sec ( 18.1% of sigma)
  (ik|jl)-dressing                     ...        0.266 sec (  1.9% of sigma)
  (ij|ab),(ia|jb)-dressing             ...        2.987 sec ( 21.7% of sigma)
  Pair energies                        ...        0.005 sec (  0.0% of sigma)
Total Time for computing (T)           ...        2.412 sec ( 11.9% of ALL)
  I/O of integral and amplitudes       ...        0.440 sec ( 18.2% of (T))
  External N**7 contributions          ...        0.655 sec ( 27.2% of (T))
  Internal N**7 contributions          ...        0.368 sec ( 15.3% of (T))
  N**6 triples energy contributions    ...        0.920 sec ( 38.2% of (T))

----- Orbital basis set information -----
Your calculation utilizes the basis: def2-QZVPP
   F. Weigend and R. Ahlrichs, Phys. Chem. Chem. Phys. 7, 3297 (2005).

----- AuxJ basis set information -----
Your calculation utilizes the auxiliary basis: def2/J
   F. Weigend, Phys. Chem. Chem. Phys. 8, 1057 (2006).

----- AuxC basis set information -----
Your calculation utilizes the auxiliary basis: def2-QZVPP/C
  H-La, Hf-Rn : A. Hellweg, C. Hattig, S. Hofener and W. Klopper, Theor. Chem. Acc. 117, 587 (2007).
        Ce-Lu : J. Chmela and M. E. Harding, Mol. Phys. (2018).

----- AuxJK basis set information -----
Your calculation utilizes the auxiliary basis: def2/JK
   H-Ba, Hf-Rn: F. Weigend, J. Comput. Chem. 29, 167 (2008).

All done

                     -----------------------------------------
                     Extrapolated Energy 2 Basis=  def2-QZVPP
                     -----------------------------------------

---------------------------------
CARTESIAN COORDINATES (ANGSTROEM)
---------------------------------
  Fe     0.000000    0.000000    0.109643
  F      0.000000    0.000000    1.890357

----------------------------
CARTESIAN COORDINATES (A.U.)
----------------------------
  NO LB      ZA    FRAG     MASS         X           Y           Z
   0 Fe   26.0000    0    55.850    0.000000    0.000000    0.207195
   1 F     9.0000    0    18.998    0.000000    0.000000    3.572258

--------------------------------
INTERNAL COORDINATES (ANGSTROEM)
--------------------------------
 Fe     0   0   0     0.000000000000     0.00000000     0.00000000
 F      1   0   0     1.780714524226     0.00000000     0.00000000

---------------------------
INTERNAL COORDINATES (A.U.)
---------------------------
 Fe     0   0   0     0.000000000000     0.00000000     0.00000000
 F      1   0   0     3.365062773484     0.00000000     0.00000000

---------------------
BASIS SET INFORMATION
---------------------
There are 2 groups of distinct atoms

 Group   1 Type Fe  : 24s18p10d4f2g contracted to 11s6p5d4f2g pattern {114111111111/951111/61111/1111/11}
 Group   2 Type F   : 15s8p3d2f1g contracted to 7s4p3d2f1g pattern {8211111/5111/111/11/1}

Atom   0Fe   basis set group =>   1
Atom   1F    basis set group =>   2
---------------------------------
AUXILIARY/J BASIS SET INFORMATION
---------------------------------
There are 2 groups of distinct atoms

 Group   1 Type Fe  : 19s5p5d3f3g contracted to 8s5p5d2f3g pattern {121111111/11111/11111/21/111}
 Group   2 Type F   : 12s5p4d2f1g contracted to 6s4p3d1f1g pattern {711111/2111/211/2/1}

Atom   0Fe   basis set group =>   1
Atom   1F    basis set group =>   2
---------------------------------
AUXILIARY/C BASIS SET INFORMATION
---------------------------------
There are 2 groups of distinct atoms

 Group   1 Type Fe  : 15s13p11d8f7g5h2i contracted to 15s13p11d8f7g5h2i pattern {111111111111111/1111111111111/11111111111/11111111/1111111/11111/11}
 Group   2 Type F   : 9s8p7d5f3g1h contracted to 9s8p7d5f3g1h pattern {111111111/11111111/1111111/11111/111/1}

Atom   0Fe   basis set group =>   1
Atom   1F    basis set group =>   2
----------------------------------
AUXILIARY/JK BASIS SET INFORMATION
----------------------------------
There are 2 groups of distinct atoms

 Group   1 Type Fe  : 19s14p12d10f7g3h1i contracted to 16s13p11d9f5g3h1i pattern {4111111111111111/2111111111111/21111111111/211111111/31111/111/1}
 Group   2 Type F   : 14s10p6d2f1g contracted to 10s8p4d2f1g pattern {5111111111/31111111/3111/11/1}

Atom   0Fe   basis set group =>   1
Atom   1F    basis set group =>   2

Checking for AutoStart:
The File: 32_FeF.gbw exists
Trying to determine its content:
     ... Fine, the file contains calculation information
     ... Fine, the calculation information was read
     ... Fine, the file contains a basis set
     ... Fine, the basis set was read
     ... Fine, the file contains a geometry
     ... Fine, the geometry was read
     ... Fine, the file contains a set of orbitals
     ... Fine, the orbitals can be read
     => possible old guess file was deleted
     => GBW file was renamed to GES file
     => GES file is set as startup file
     => Guess is set to MORead
     ... now leaving AutoStart



           ************************************************************
           *        Program running with 24 parallel MPI-processes    *
           *              working on a common directory               *
           ************************************************************
------------------------------------------------------------------------------
                           ORCA GTO INTEGRAL CALCULATION
------------------------------------------------------------------------------

                         BASIS SET STATISTICS AND STARTUP INFO

 # of primitive gaussian shells          ...   87
 # of primitive gaussian functions       ...  251
 # of contracted shells                  ...   45
 # of contracted basis functions         ...  157
 Highest angular momentum                ...    4
 Maximum contraction depth               ...   11
 Integral package used                   ... LIBINT
 Integral threshhold            Thresh   ...  1.000e-12
 Primitive cut-off              TCut     ...  1.000e-14


------------------------------ INTEGRAL EVALUATION ----------------------------


 * One electron integrals 
 Pre-screening matrix                    ... done
 Shell pair data                         ... done (   0.000 sec)



           ************************************************************
           *        Program running with 24 parallel MPI-processes    *
           *              working on a common directory               *
           ************************************************************
-------------------------------------------------------------------------------
                                 ORCA SCF
-------------------------------------------------------------------------------

------------
SCF SETTINGS
------------
Hamiltonian:
 Ab initio Hamiltonian  Method          .... Hartree-Fock(GTOs)


General Settings:
 Integral files         IntName         .... 32_FeF
 Hartree-Fock type      HFTyp           .... UHF
 Total Charge           Charge          ....    0
 Multiplicity           Mult            ....    6
 Number of Electrons    NEL             ....   35
 Basis Dimension        Dim             ....  157
 Nuclear Repulsion      ENuc            ....     69.5380787080 Eh

Convergence Acceleration:
 DIIS                   CNVDIIS         .... on
   Start iteration      DIISMaxIt       ....    12
   Startup error        DIISStart       ....  0.200000
   # of expansion vecs  DIISMaxEq       ....     5
   Bias factor          DIISBfac        ....   1.050
   Max. coefficient     DIISMaxC        ....  10.000
 Newton-Raphson         CNVNR           .... off
 SOSCF                  CNVSOSCF        .... off
 Level Shifting         CNVShift        .... on
   Level shift para.    LevelShift      ....    0.2500
   Turn off err/grad.   ShiftErr        ....    0.0010
 Zerner damping         CNVZerner       .... off
 Static damping         CNVDamp         .... on
   Fraction old density DampFac         ....    0.7000
   Max. Damping (<1)    DampMax         ....    0.9800
[...]
  6  -1362.799029811     -0.796072208     -0.000145853      0.000361751    4.86      0.096355109
  7  -1362.799102530     -0.796144927     -0.000072719      0.000133998    4.97      0.097082467
  8  -1362.799107392     -0.796149789     -0.000004861      0.000076195    4.94      0.097045611
  9  -1362.799102278     -0.796144675      0.000005114      0.000027113    4.89      0.096955365
 10  -1362.799105919     -0.796148316     -0.000003641      0.000010497    4.93      0.096937956
 11  -1362.799102267     -0.796144664      0.000003652      0.000003165    4.98      0.096908266
 12  -1362.799103362     -0.796145759     -0.000001095      0.000002374    4.89      0.096912393
 13  -1362.799103154     -0.796145551      0.000000208      0.000001178    4.84      0.096910295
 14  -1362.799103383     -0.796145780     -0.000000229      0.000000638    4.82      0.096911351
               --- The Coupled-Cluster iterations have converged ---

----------------------
COUPLED CLUSTER ENERGY
----------------------

E(0)                                       ...  -1362.002957603
E(CORR)                                    ...     -0.796145780
E(TOT)                                     ...  -1362.799103383
Singles norm <S|S>**1/2                    ...      0.096911351 ( 0.054968135, 0.041943216)  
T1 diagnostic                              ...      0.020207414                              

------------------
LARGEST AMPLITUDES
------------------
  11b-> 31b  -1b-> -1b       0.044901
  12b-> 29b  -1b-> -1b       0.033332
  13b-> 28b  -1b-> -1b       0.033332
  13b-> 29b  -1b-> -1b       0.031061
  12b-> 28b  -1b-> -1b       0.031061
  13b-> 25b  -1b-> -1b       0.025192
  12b-> 26b  -1b-> -1b       0.025192
  19a-> 22a  -1a-> -1a       0.024618
  16a-> 28a  -1a-> -1a       0.023953
  11b-> 23b  -1b-> -1b       0.022478
  11b-> 43b  -1b-> -1b       0.022286
  14b-> 36b  -1b-> -1b       0.021747
  14b-> 24b  -1b-> -1b       0.021154
  19a-> 32a  -1a-> -1a       0.020842
  11b-> 27b  -1b-> -1b       0.020017
  19a-> 23a  -1a-> -1a       0.019904

----------------------
UHF TRIPLES CORRECTION (Algorithm 1)
----------------------

Multiplier for the singles contribution    ...      1.000000000

SPIN-CASE Alpha-Alpha-Alpha:
10% done
20% done
30% done
40% done
50% done
60% done
70% done
80% done
90% done


SPIN-CASE Beta-Beta-Beta:
10% done
20% done
30% done
40% done
50% done
60% done
70% done
80% done
90% done


SPIN-CASE Alpha-Alpha-Beta:
10% done
20% done
30% done
40% done
50% done
60% done
70% done
80% done
90% done


SPIN-CASE Beta-Beta-Alpha:
10% done
20% done
30% done
40% done
50% done
60% done
70% done
80% done
90% done


Triples Correction (T)                     ...     -0.023970411
    alpha-alpha-alpha ... -0.001894798 (  7.9%)
    alpha-alpha-beta  ... -0.012871592 ( 53.7%)
    alpha-beta -beta  ... -0.008645863 ( 36.1%)
    beta -beta -beta  ... -0.000558158 (  2.3%)
Scaling of triples based on CCSD energies (Peterson et al. Molecular Physics 113, 1551 (2015))
E(T*) = f*E(T) where f = E(F12-CCSD)/E(CCSD) 
f = CCSD (with F12)/ CCSD (without F12)    ...      1.000000000
Scaled triples correction (T)              ...     -0.023970411

Final correlation energy                   ...     -0.820116191
E(CCSD)                                    ...  -1362.799103383
E(CCSD(T))                                 ...  -1362.823073794



        !!!!!!!!!!!!!!!!!!!!!!!!!!!!!!!!!!!!!!!!!!!!!!!!!!!!!!!!!!!!!!!!!!!!!!!!!! 
        !  Warning: Densities are linearized densities                           !
        !!!!!!!!!!!!!!!!!!!!!!!!!!!!!!!!!!!!!!!!!!!!!!!!!!!!!!!!!!!!!!!!!!!!!!!!!! 

NORM  =      1.146824428 sqrt=     1.070898888
W(HF) =      0.871973055
------------------------------------------------------------------------------
                           ORCA POPULATION ANALYSIS
------------------------------------------------------------------------------
Input electron density              ... 32_FeF.mdcip
Input spin density                  ... 32_FeF.mdcir
BaseName (.gbw .S,...)              ... 32_FeF

                    ********************************
                    * MULLIKEN POPULATION ANALYSIS *
                    ********************************

------------------------------------------
MULLIKEN ATOMIC CHARGES AND SPIN DENSITIES
------------------------------------------
   0 Fe:    0.559925    4.900291
   1 F :   -0.559925    0.099709
Sum of atomic charges       :    0.0000000
Sum of atomic spin densities:    5.0000000

---------------------------------------------------
MULLIKEN REDUCED ORBITAL CHARGES AND SPIN DENSITIES
---------------------------------------------------
CHARGE
  0 Fes       :     6.890079  s :     6.890079
      pz      :     4.247144  p :    12.327299
      px      :     4.040077
      py      :     4.040077
      dz2     :     1.056210  d :     6.152938
      dxz     :     1.055125
      dyz     :     1.055125
      dx2y2   :     1.000525
      dxy     :     1.985954
      f0      :     0.010048  f :     0.064964
      f+1     :     0.017572
      f-1     :     0.017572
      f+2     :     0.004104
      f-2     :     0.005054
      f+3     :     0.005307
      f-3     :     0.005307
      g0      :     0.000699  g :     0.004795
      g+1     :     0.000603
      g-1     :     0.000603
      g+2     :     0.000406
      g-2     :     0.000506
      g+3     :     0.000471
      g-3     :     0.000471
      g+4     :     0.000518
      g-4     :     0.000518
  1 F s       :     3.964134  s :     3.964134
      pz      :     1.800495  p :     5.552768
      px      :     1.876136
      py      :     1.876136
      dz2     :     0.009225  d :     0.038266
      dxz     :     0.008641
      dyz     :     0.008641
      dx2y2   :     0.005823
      dxy     :     0.005935
      f0      :     0.000792  f :     0.004241
      f+1     :     0.000702
      f-1     :     0.000702
      f+2     :     0.000528
      f-2     :     0.000542
      f+3     :     0.000487
      f-3     :     0.000487
      g0      :     0.000064  g :     0.000515
      g+1     :     0.000061
      g-1     :     0.000061
      g+2     :     0.000056
      g-2     :     0.000057
      g+3     :     0.000055
      g-3     :     0.000055
      g+4     :     0.000054
      g-4     :     0.000054

SPIN
  0 Fes       :     0.823999  s :     0.823999
      pz      :     0.218446  p :     0.252559
      px      :     0.017056
      py      :     0.017056
      dz2     :     0.908113  d :     3.806506
      dxz     :     0.951586
      dyz     :     0.951586
      dx2y2   :     0.990454
      dxy     :     0.004767
      f0      :     0.003157  f :     0.015360
      f+1     :     0.002403
      f-1     :     0.002403
      f+2     :     0.002920
      f-2     :     0.001847
      f+3     :     0.001315
      f-3     :     0.001315
      g0      :     0.000234  g :     0.001867
      g+1     :     0.000238
      g-1     :     0.000238
      g+2     :     0.000248
      g-2     :     0.000223
      g+3     :     0.000202
      g-3     :     0.000202
      g+4     :     0.000142
      g-4     :     0.000141
  1 F s       :    -0.000642  s :    -0.000642
      pz      :     0.041447  p :     0.100181
      px      :     0.029367
      py      :     0.029367
      dz2     :    -0.000035  d :     0.000044
      dxz     :    -0.000032
      dyz     :    -0.000032
      dx2y2   :     0.000116
      dxy     :     0.000028
      f0      :     0.000035  f :     0.000119
      f+1     :     0.000026
      f-1     :     0.000026
      f+2     :     0.000015
      f-2     :     0.000003
      f+3     :     0.000007
      f-3     :     0.000007
      g0      :     0.000002  g :     0.000007
      g+1     :     0.000002
      g-1     :     0.000002
      g+2     :     0.000000
      g-2     :     0.000000
      g+3     :     0.000000
      g-3     :     0.000000
      g+4     :     0.000000
      g-4     :     0.000000


                     *******************************
                     * LOEWDIN POPULATION ANALYSIS *
                     *******************************

-----------------------------------------
LOEWDIN ATOMIC CHARGES AND SPIN DENSITIES
-----------------------------------------
   0 Fe:    0.070788    4.862770
   1 F :   -0.070788    0.137230

--------------------------------------------------
LOEWDIN REDUCED ORBITAL CHARGES AND SPIN DENSITIES
--------------------------------------------------
CHARGE
  0 Fes       :     6.851128  s :     6.851128
      pz      :     4.382101  p :    12.493408
      px      :     4.055654
      py      :     4.055654
      dz2     :     1.174735  d :     6.339650
      dxz     :     1.089450
      dyz     :     1.089450
      dx2y2   :     1.000411
      dxy     :     1.985603
      f0      :     0.096897  f :     0.238288
      f+1     :     0.060766
      f-1     :     0.060766
      f+2     :     0.004147
      f-2     :     0.005097
      f+3     :     0.005307
      f-3     :     0.005307
      g0      :     0.001924  g :     0.006739
      g+1     :     0.000961
      g-1     :     0.000961
      g+2     :     0.000407
      g-2     :     0.000507
      g+3     :     0.000471
      g-3     :     0.000471
      g+4     :     0.000518
      g-4     :     0.000518
  1 F s       :     3.643794  s :     3.643794
      pz      :     1.807460  p :     5.370587
      px      :     1.781563
      py      :     1.781563
      dz2     :     0.018665  d :     0.049539
      dxz     :     0.009427
      dyz     :     0.009427
      dx2y2   :     0.005862
      dxy     :     0.006158
      f0      :     0.002094  f :     0.006301
      f+1     :     0.001026
      f-1     :     0.001026
      f+2     :     0.000557
      f-2     :     0.000624
      f+3     :     0.000487
      f-3     :     0.000487
      g0      :     0.000093  g :     0.000567
      g+1     :     0.000070
      g-1     :     0.000070
      g+2     :     0.000057
      g-2     :     0.000060
      g+3     :     0.000055
      g-3     :     0.000055
      g+4     :     0.000054
      g-4     :     0.000054

SPIN
  0 Fes       :     0.767582  s :     0.767582
      pz      :     0.252394  p :     0.289356
      px      :     0.018481
      py      :     0.018481
      dz2     :     0.898883  d :     3.783289
      dxz     :     0.944620
      dyz     :     0.944620
      dx2y2   :     0.990328
      dxy     :     0.004838
      f0      :     0.004690  f :     0.020570
      f+1     :     0.004240
      f-1     :     0.004240
      f+2     :     0.002920
      f-2     :     0.001849
      f+3     :     0.001315
      f-3     :     0.001315
      g0      :     0.000311  g :     0.001973
      g+1     :     0.000253
      g-1     :     0.000253
      g+2     :     0.000248
      g-2     :     0.000222
      g+3     :     0.000202
      g-3     :     0.000202
      g+4     :     0.000142
      g-4     :     0.000141
  1 F s       :     0.008402  s :     0.008402
      pz      :     0.058753  p :     0.119187
      px      :     0.030217
      py      :     0.030217
      dz2     :     0.003086  d :     0.008095
      dxz     :     0.002415
      dyz     :     0.002415
      dx2y2   :     0.000210
      dxy     :    -0.000032
      f0      :     0.000637  f :     0.001503
      f+1     :     0.000408
      f-1     :     0.000408
      f+2     :     0.000047
      f-2     :    -0.000009
      f+3     :     0.000007
      f-3     :     0.000007
      g0      :     0.000018  g :     0.000043
      g+1     :     0.000011
      g-1     :     0.000011
      g+2     :     0.000002
      g-2     :    -0.000000
      g+3     :     0.000000
      g-3     :     0.000000
      g+4     :     0.000000
      g-4     :     0.000000


                      *****************************
                      * MAYER POPULATION ANALYSIS *
                      *****************************

  NA   - Mulliken gross atomic population
  ZA   - Total nuclear charge
  QA   - Mulliken gross atomic charge
  VA   - Mayer's total valence
  BVA  - Mayer's bonded valence
  FA   - Mayer's free valence

  ATOM       NA         ZA         QA         VA         BVA        FA
  0 Fe    25.4401    26.0000     0.5599     5.9847     0.7316     5.2531
  1 F      9.5599     9.0000    -0.5599     1.1562     0.7316     0.4245

  Mayer bond orders larger than 0.100000
B(  0-Fe,  1-F ) :   0.7316 



------------------------------------------------------------------------------- 
                                     TIMINGS                                   
------------------------------------------------------------------------------- 


Total execution time                   ...      102.710 sec

Fock Matrix Formation                  ...        1.014 sec (  1.0%)
Initial Guess                          ...        0.109 sec (  0.1%)
DIIS Solver                            ...        5.028 sec (  4.9%)
State Vector Update                    ...        0.227 sec (  0.2%)
Sigma-vector construction              ...       66.973 sec ( 65.2%)
  <0|H|D>                              ...        0.011 sec (  0.0% of sigma)
  <D|H|D>(0-ext Fock)                  ...        0.128 sec (  0.2% of sigma)
  <D|H|D>(0-ext)                       ...        0.738 sec (  1.1% of sigma)
  <D|H|D>(2-ext Fock)                  ...        0.034 sec (  0.1% of sigma)
  <D|H|D>(2-ext)                       ...        2.031 sec (  3.0% of sigma)
  <D|H|D>(4-ext)                       ...       35.506 sec ( 53.0% of sigma)
  <S|H|0>                              ...        4.428 sec (  6.6% of sigma)
  <S|H|S>                              ...        0.005 sec (  0.0% of sigma)
  <S|H|D>(1-ext)                       ...        0.028 sec (  0.0% of sigma)
  <D|H|S>(1-ext)                       ...        0.377 sec (  0.6% of sigma)
  Fock-dressing                        ...        9.248 sec ( 13.8% of sigma)
  (ik|jl)-dressing                     ...        0.849 sec (  1.3% of sigma)
  (ij|ab),(ia|jb)-dressing             ...       11.191 sec ( 16.7% of sigma)
  Pair energies                        ...        0.015 sec (  0.0% of sigma)
Total Time for computing (T)           ...       19.555 sec ( 19.0% of ALL)
  I/O of integral and amplitudes       ...        3.600 sec ( 18.4% of (T))
  External N**7 contributions          ...        6.989 sec ( 35.7% of (T))
  Internal N**7 contributions          ...        2.403 sec ( 12.3% of (T))
  N**6 triples energy contributions    ...        6.408 sec ( 32.8% of (T))


-------------------
EXTRAPOLATED ENERGY
-------------------


-----------------------------------------------------------------
                      EP1 - MDCI extrapolation:
-----------------------------------------------------------------
NOTE: We use as reference SCF energy, for the extrapolation, the one from the MDCI module and not the one 
from the SCF calculation. In case the first step is a DFT calculation these two might be different.

NOTE: For the SCF part we extrapolate based on the scheme proposed in J. Chem. Phys. 2008, 129, 184116
using the exponents from J. Chem. Theory Comput., 7, 33-43 (2011)

NOTE: For the correlation part we extrapolate based on the scheme proposed in J. Chem. Phys. 1997, 106, 9639
using the exponents from J. Chem. Theory Comput., 7, 33-43 (2011)


Alpha(3/4)     :  7.880 (SCF Extrapolation)
Beta(3/4)      :  2.970 (correlation extrapolation)

SCF energy with basis def2-TZVPP:                     -1361.970920313
SCF energy with basis def2-QZVPP:                     -1362.002957603
Extrapolated CBS SCF energy (3/4) :                   -1362.007370377 (-0.004412774) 

MDCI energy with basis def2-TZVPP:                       -0.772486065
MDCI energy with basis def2-QZVPP:                       -0.820116191
Extrapolated CBS correlation energy (3/4) :              -0.855397739 (-0.035281548)

Estimated CBS total energy (3/4) :                    -1362.862768116



-------------------------   --------------------
FINAL SINGLE POINT ENERGY     -1362.862768116296
-------------------------   --------------------


                            ***************************************
                            *     ORCA property calculations      *
                            ***************************************

                                    ---------------------
                                    Active property flags
                                    ---------------------
   (+) Dipole Moment


------------------------------------------------------------------------------
                       ORCA ELECTRIC PROPERTIES CALCULATION
------------------------------------------------------------------------------

Dipole Moment Calculation                       ... on
Quadrupole Moment Calculation                   ... off
Polarizability Calculation                      ... off
GBWName                                         ... 32_FeF.gbw
Electron density file                           ... 32_FeF.scfp
The origin for moment calculation is the CENTER OF MASS  = ( 0.000000,  0.000000  1.061319)

-------------
DIPOLE MOMENT
-------------
                                X             Y             Z
Electronic contribution:      0.00000      -0.00000      -1.40257
Nuclear contribution   :      0.00000       0.00000       0.39123
                        -----------------------------------------
Total Dipole Moment    :      0.00000      -0.00000      -1.01134
                        -----------------------------------------
Magnitude (a.u.)       :      1.01134
Magnitude (Debye)      :      2.57062



--------------------
Rotational spectrum 
--------------------
 
Rotational constants in cm-1:     0.000000     0.375023     0.375023 
Rotational constants in MHz :     0.000000 11242.894653 11242.894653 

 Dipole components along the rotational axes: 
x,y,z [a.u.] :    -1.011338    -0.000000     0.000000 
x,y,z [Debye]:    -2.570616    -0.000000     0.000000 

 

                           *** MDCI DENSITY ***

------------------------------------------------------------------------------
                       ORCA ELECTRIC PROPERTIES CALCULATION
------------------------------------------------------------------------------

Dipole Moment Calculation                       ... on
Quadrupole Moment Calculation                   ... off
Polarizability Calculation                      ... off
GBWName                                         ... 32_FeF.gbw
Electron density file                           ... 32_FeF.mdcip
The origin for moment calculation is the CENTER OF MASS  = ( 0.000000,  0.000000  1.061319)

-------------
DIPOLE MOMENT
-------------
                                X             Y             Z
Electronic contribution:      0.00000       0.00000      -1.24540
Nuclear contribution   :      0.00000       0.00000       0.39123
                        -----------------------------------------
Total Dipole Moment    :      0.00000       0.00000      -0.85417
                        -----------------------------------------
Magnitude (a.u.)       :      0.85417
Magnitude (Debye)      :      2.17114



--------------------
Rotational spectrum 
--------------------
 
Rotational constants in cm-1:     0.000000     0.375023     0.375023 
Rotational constants in MHz :     0.000000 11242.894653 11242.894653 

 Dipole components along the rotational axes: 
x,y,z [a.u.] :    -0.854174     0.000000     0.000000 
x,y,z [Debye]:    -2.171138     0.000000     0.000000 

 

Timings for individual modules:

Sum of individual times         ...      137.269 sec (=   2.288 min)
GTO integral calculation        ...        1.836 sec (=   0.031 min)   1.3 %
SCF iterations                  ...       10.381 sec (=   0.173 min)   7.6 %
MDCI module                     ...      125.053 sec (=   2.084 min)  91.1 %
                             ****ORCA TERMINATED NORMALLY****
TOTAL RUN TIME: 0 days 0 hours 2 minutes 18 seconds 378 msec
