
                                 *****************
                                 * O   R   C   A *
                                 *****************

           --- An Ab Initio, DFT and Semiempirical electronic structure package ---

                  #######################################################
                  #                        -***-                        #
                  #          Department of theory and spectroscopy      #
                  #               Directorship: Frank Neese             #
                  #        Max Planck Institute fuer Kohlenforschung    #
                  #                Kaiser Wilhelm Platz 1               #
                  #                 D-45470 Muelheim/Ruhr               #
                  #                      Germany                        #
                  #                                                     #
                  #                  All rights reserved                #
                  #                        -***-                        #
                  #######################################################


                         Program Version 4.2.0 -  RELEASE  -


 With contributions from (in alphabetic order):
   Daniel Aravena         : Magnetic Suceptibility
   Michael Atanasov       : Ab Initio Ligand Field Theory (pilot matlab implementation)
   Alexander A. Auer      : GIAO ZORA, VPT2
   Ute Becker             : Parallelization
   Giovanni Bistoni       : ED, misc. LED, open-shell LED, HFLED
   Martin Brehm           : Molecular dynamics
   Dmytro Bykov           : SCF Hessian
   Vijay G. Chilkuri      : MRCI spin determinant printing, contributions to CSF-ICE
   Dipayan Datta          : RHF DLPNO-CCSD density
   Achintya Kumar Dutta   : EOM-CC, STEOM-CC
   Dmitry Ganyushin       : Spin-Orbit,Spin-Spin,Magnetic field MRCI
   Miquel Garcia          : C-PCM Hessian, Gaussian charge scheme
   Yang Guo               : DLPNO-NEVPT2, CIM, IAO-localization
   Andreas Hansen         : Spin unrestricted coupled pair/coupled cluster methods
   Benjamin Helmich-Paris : CASSCF linear response (MC-RPA)
   Lee Huntington         : MR-EOM, pCC
   Robert Izsak           : Overlap fitted RIJCOSX, COSX-SCS-MP3, EOM
   Christian Kollmar      : KDIIS, OOCD, Brueckner-CCSD(T), CCSD density
   Simone Kossmann        : Meta GGA functionals, TD-DFT gradient, OOMP2, MP2 Hessian
   Martin Krupicka        : AUTO-CI
   Lucas Lang             : DCDCAS
   Dagmar Lenk            : GEPOL surface, SMD
   Dimitrios Liakos       : Extrapolation schemes; Compound Job, initial MDCI parallelization
   Dimitrios Manganas     : Further ROCIS development; embedding schemes
   Dimitrios Pantazis     : SARC Basis sets
   Taras Petrenko         : DFT Hessian,TD-DFT gradient, ASA, ECA, R-Raman, ABS, FL, XAS/XES, NRVS
   Peter Pinski           : DLPNO-MP2, DLPNO-MP2 Gradient
   Christoph Reimann      : Effective Core Potentials
   Marius Retegan         : Local ZFS, SOC
   Christoph Riplinger    : Optimizer, TS searches, QM/MM, DLPNO-CCSD(T), (RO)-DLPNO pert. Triples
   Tobias Risthaus        : Range-separated hybrids, TD-DFT gradient, RPA, STAB
   Michael Roemelt        : Original ROCIS implementation
   Masaaki Saitow         : Open-shell DLPNO-CCSD energy and density
   Barbara Sandhoefer     : DKH picture change effects
   Avijit Sen             : IP-ROCIS
   Kantharuban Sivalingam : CASSCF convergence, NEVPT2, FIC-MRCI
   Bernardo de Souza      : ESD, SOC TD-DFT
   Georgi Stoychev        : AutoAux, RI-MP2 NMR
   Willem Van den Heuvel  : Paramagnetic NMR
   Boris Wezisla          : Elementary symmetry handling
   Frank Wennmohs         : Technical directorship


 We gratefully acknowledge several colleagues who have allowed us to
 interface, adapt or use parts of their codes:
   Stefan Grimme, W. Hujo, H. Kruse,             : VdW corrections, initial TS optimization,
                  C. Bannwarth                     DFT functionals, gCP, sTDA/sTD-DF
   Ed Valeev, F. Pavosevic, A. Kumar             : LibInt (2-el integral package), F12 methods
   Garnet Chan, S. Sharma, J. Yang, R. Olivares  : DMRG
   Ulf Ekstrom                                   : XCFun DFT Library
   Mihaly Kallay                                 : mrcc  (arbitrary order and MRCC methods)
   Andreas Klamt, Michael Diedenhofen            : otool_cosmo (COSMO solvation model)
   Jiri Pittner, Ondrej Demel                    : Mk-CCSD
   Frank Weinhold                                : gennbo (NPA and NBO analysis)
   Christopher J. Cramer and Donald G. Truhlar   : smd solvation model
   Lars Goerigk                                  : TD-DFT with DH, B97 family of functionals
   V. Asgeirsson, H. Jonsson                     : NEB implementation
   FAccTs GmbH                                   : IRC, NEB, NEB-TS, Multilevel, MM, QM/MM, CI optimization
   S Lehtola, MJT Oliveira, MAL Marques          : LibXC Library


 Your calculation uses the libint2 library for the computation of 2-el integrals
 For citations please refer to: http://libint.valeyev.net

 Your ORCA version has been built with support for libXC version: 4.2.3
 For citations please refer to: https://tddft.org/programs/libxc/

 This ORCA versions uses:
   CBLAS   interface :  Fast vector & matrix operations
   LAPACKE interface :  Fast linear algebra routines
   SCALAPACK package :  Parallel linear algebra routines


----- Orbital basis set information -----
Your calculation utilizes the basis: def2-TZVPP
   F. Weigend and R. Ahlrichs, Phys. Chem. Chem. Phys. 7, 3297 (2005).

================================================================================
                                        WARNINGS
                       Please study these warnings very carefully!
================================================================================


WARNING: your system is open-shell and RHF/RKS was chosen
  ===> : WILL SWITCH to UHF/UKS


WARNING: MDCI localization with Augmented Hessian Foster-Boys
  ===> : Switching off randomization!

WARNING: Post HF methods need fully converged wavefunctions
  ===> : Setting SCFConvForced true
         You can overwrite this default with %scf ConvForced false 


INFO   : the flag for use of LIBINT has been found!

================================================================================
                                       INPUT FILE
================================================================================
NAME = 33_FeCl.in
|  1> #
|  2> # 33_FeCl ccsd(t)/cbs
|  3> #
|  4> ! ccsd(t) extrapolate(3/4,def2) verytightscf
|  5> 
|  6> *xyz 0 6
|  7>   Fe  0.00000000000000      0.00000000000000     -0.08894892709089
|  8>   Cl  0.00000000000000      0.00000000000000      2.08894892709089
|  9> *
| 10> 
| 11> %maxcore 5000
| 12> %pal
| 13> nprocs 24
| 14> end
| 15> 
| 16> 
| 17>                          ****END OF INPUT****
================================================================================

                   *****************************************
                   * Extrapolated Single Point Calculation *
                   *****************************************

----- Orbital basis set information -----
Your calculation utilizes the basis: def2-TZVPP
   F. Weigend and R. Ahlrichs, Phys. Chem. Chem. Phys. 7, 3297 (2005).

----- AuxJ basis set information -----
Your calculation utilizes the auxiliary basis: def2/J
   F. Weigend, Phys. Chem. Chem. Phys. 8, 1057 (2006).

----- AuxC basis set information -----
Your calculation utilizes the auxiliary basis: def2-TZVPP/C
  H-La, Hf-Rn : A. Hellweg, C. Hattig, S. Hofener and W. Klopper, Theor. Chem. Acc. 117, 587 (2007).
        Ce-Lu : J. Chmela and M. E. Harding, Mol. Phys. (2018).

----- AuxJK basis set information -----
Your calculation utilizes the auxiliary basis: def2/JK
   H-Ba, Hf-Rn: F. Weigend, J. Comput. Chem. 29, 167 (2008).

All done

                     -----------------------------------------
                     Extrapolated Energy 1 Basis=  def2-TZVPP
                     -----------------------------------------

---------------------------------
CARTESIAN COORDINATES (ANGSTROEM)
---------------------------------
  Fe     0.000000    0.000000   -0.088949
  Cl     0.000000    0.000000    2.088949

----------------------------
CARTESIAN COORDINATES (A.U.)
----------------------------
  NO LB      ZA    FRAG     MASS         X           Y           Z
   0 Fe   26.0000    0    55.850    0.000000    0.000000   -0.168089
   1 Cl   17.0000    0    35.453    0.000000    0.000000    3.947541

--------------------------------
INTERNAL COORDINATES (ANGSTROEM)
--------------------------------
 Fe     0   0   0     0.000000000000     0.00000000     0.00000000
 Cl     1   0   0     2.177897854182     0.00000000     0.00000000

---------------------------
INTERNAL COORDINATES (A.U.)
---------------------------
 Fe     0   0   0     0.000000000000     0.00000000     0.00000000
 Cl     1   0   0     4.115630492058     0.00000000     0.00000000

---------------------
BASIS SET INFORMATION
---------------------
There are 2 groups of distinct atoms

 Group   1 Type Fe  : 17s12p7d2f1g contracted to 6s5p4d2f1g pattern {842111/63111/4111/11/1}
 Group   2 Type Cl  : 14s9p3d1f contracted to 5s5p3d1f pattern {73211/51111/111/1}

Atom   0Fe   basis set group =>   1
Atom   1Cl   basis set group =>   2
---------------------------------
AUXILIARY/J BASIS SET INFORMATION
---------------------------------
There are 2 groups of distinct atoms

 Group   1 Type Fe  : 19s5p5d3f3g contracted to 8s5p5d2f3g pattern {121111111/11111/11111/21/111}
 Group   2 Type Cl  : 14s5p5d2f1g contracted to 8s4p3d1f1g pattern {71111111/2111/311/2/1}

Atom   0Fe   basis set group =>   1
Atom   1Cl   basis set group =>   2
---------------------------------
AUXILIARY/C BASIS SET INFORMATION
---------------------------------
There are 2 groups of distinct atoms

 Group   1 Type Fe  : 9s9p8d7f5g3h1i contracted to 9s9p8d7f5g3h1i pattern {111111111/111111111/11111111/1111111/11111/111/1}
 Group   2 Type Cl  : 11s8p7d5f2g contracted to 11s8p7d5f2g pattern {11111111111/11111111/1111111/11111/11}

Atom   0Fe   basis set group =>   1
Atom   1Cl   basis set group =>   2
----------------------------------
AUXILIARY/JK BASIS SET INFORMATION
----------------------------------
There are 2 groups of distinct atoms

 Group   1 Type Fe  : 19s14p12d10f7g3h1i contracted to 16s13p11d9f5g3h1i pattern {4111111111111111/2111111111111/21111111111/211111111/31111/111/1}
 Group   2 Type Cl  : 16s12p10d4f1g contracted to 13s11p9d4f1g pattern {4111111111111/21111111111/211111111/1111/1}

Atom   0Fe   basis set group =>   1
Atom   1Cl   basis set group =>   2


           ************************************************************
           *        Program running with 24 parallel MPI-processes    *
           *              working on a common directory               *
           ************************************************************
------------------------------------------------------------------------------
                           ORCA GTO INTEGRAL CALCULATION
------------------------------------------------------------------------------

                         BASIS SET STATISTICS AND STARTUP INFO

 # of primitive gaussian shells          ...   66
 # of primitive gaussian functions       ...  174
 # of contracted shells                  ...   32
 # of contracted basis functions         ...  106
 Highest angular momentum                ...    4
 Maximum contraction depth               ...    8
 Integral package used                   ... LIBINT
 Integral threshhold            Thresh   ...  1.000e-12
 Primitive cut-off              TCut     ...  1.000e-14


------------------------------ INTEGRAL EVALUATION ----------------------------


 * One electron integrals 
 Pre-screening matrix                    ... done
 Shell pair data                         ... done (   0.000 sec)



           ************************************************************
           *        Program running with 24 parallel MPI-processes    *
           *              working on a common directory               *
           ************************************************************
-------------------------------------------------------------------------------
                                 ORCA SCF
-------------------------------------------------------------------------------

------------
SCF SETTINGS
------------
Hamiltonian:
 Ab initio Hamiltonian  Method          .... Hartree-Fock(GTOs)


General Settings:
 Integral files         IntName         .... 33_FeCl
 Hartree-Fock type      HFTyp           .... UHF
 Total Charge           Charge          ....    0
 Multiplicity           Mult            ....    6
 Number of Electrons    NEL             ....   43
 Basis Dimension        Dim             ....  106
 Nuclear Repulsion      ENuc            ....    107.3954527387 Eh

Convergence Acceleration:
 DIIS                   CNVDIIS         .... on
   Start iteration      DIISMaxIt       ....    12
   Startup error        DIISStart       ....  0.200000
   # of expansion vecs  DIISMaxEq       ....     5
   Bias factor          DIISBfac        ....   1.050
   Max. coefficient     DIISMaxC        ....  10.000
 Newton-Raphson         CNVNR           .... off
 SOSCF                  CNVSOSCF        .... off
 Level Shifting         CNVShift        .... on
   Level shift para.    LevelShift      ....    0.2500
   Turn off err/grad.   ShiftErr        ....    0.0010
 Zerner damping         CNVZerner       .... off
 Static damping         CNVDamp         .... on
   Fraction old density DampFac         ....    0.7000
   Max. Damping (<1)    DampMax         ....    0.9800
   Min. Damping (>=0)   DampMin         ....    0.0000
   Turn off err/grad.   DampErr         ....    0.1000
 Fernandez-Rico         CNVRico         .... off

SCF Procedure:
 Maximum # iterations   MaxIter         ....   125
 SCF integral mode      SCFMode         .... Direct
   Integral package                     .... LIBINT
 Reset frequency        DirectResetFreq ....    20
 Integral Threshold     Thresh          ....  1.000e-12 Eh
 Primitive CutOff       TCut            ....  1.000e-14 Eh

Convergence Tolerance:
 Convergence Check Mode ConvCheckMode   .... Total+1el-Energy
 Convergence forced     ConvForced      .... 1
 Energy Change          TolE            ....  1.000e-09 Eh
 1-El. energy change                    ....  1.000e-06 Eh
 DIIS Error             TolErr          ....  1.000e-08


Diagonalization of the overlap matrix:
Smallest eigenvalue                        ... 1.213e-02
Time for diagonalization                   ...    0.003 sec
Threshold for overlap eigenvalues          ... 1.000e-08
Number of eigenvalues below threshold      ... 0
Time for construction of square roots      ...    0.002 sec
Total time needed                          ...    0.005 sec

-------------------
DFT GRID GENERATION
-------------------

General Integration Accuracy     IntAcc      ...  4.340
Radial Grid Type                 RadialGrid  ... Gauss-Chebyshev
Angular Grid (max. acc.)         AngularGrid ... Lebedev-110
Angular grid pruning method      GridPruning ... 3 (G Style)
Weight generation scheme         WeightScheme... Becke
Basis function cutoff            BFCut       ...    1.0000e-12
Integration weight cutoff        WCut        ...    1.0000e-14
Grids for H and He will be reduced by one unit

# of grid points (after initial pruning)     ...   4756 (   0.0 sec)
# of grid points (after weights+screening)   ...   4731 (   0.0 sec)
nearest neighbour list constructed           ...    0.0 sec
Grid point re-assignment to atoms done       ...    0.0 sec
Grid point division into batches done        ...    0.0 sec
Reduced shell lists constructed in    0.0 sec

Total number of grid points                  ...     4731
Total number of batches                      ...       75
Average number of points per batch           ...       63
Average number of grid points per atom       ...     2366
Average number of shells per batch           ...     8.40 (26.25%)
Average number of basis functions per batch  ...    25.20 (23.77%)
Average number of large shells per batch     ...     6.40 (76.19%)
Average number of large basis fcns per batch ...    17.60 (69.84%)
Maximum spatial batch extension              ...  18.98, 28.73, 16.15 au
Average spatial batch extension              ...   0.95,  1.29,  0.86 au

Time for grid setup =    0.021 sec

------------------------------
INITIAL GUESS: MODEL POTENTIAL
------------------------------
Loading Hartree-Fock densities                     ... done
Calculating cut-offs                               ... done
Setting up the integral package                    ... done
Initializing the effective Hamiltonian             ... done
Starting the Coulomb interaction                   ... done (   0.0 sec)
Reading the grid                                   ... done
Mapping shells                                     ... done
Starting the XC term evaluation                    ... done (   0.0 sec)
Transforming the Hamiltonian                       ... done (   0.0 sec)
Diagonalizing the Hamiltonian                      ... done (   0.0 sec)
Back transforming the eigenvectors                 ... done (   0.0 sec)
Now organizing SCF variables                       ... done
                      ------------------
                      INITIAL GUESS DONE (   0.1 sec)
                      ------------------
--------------
SCF ITERATIONS
--------------
ITER       Energy         Delta-E        Max-DP      RMS-DP      [F,P]     Damp
               ***  Starting incremental Fock matrix formation  ***
  0  -1721.8619363703   0.000000000000 0.02388441  0.00052866  0.1394616 0.7000
  1  -1721.8954750542  -0.033538683872 0.01880390  0.00046837  0.1007712 0.7000
                               ***Turning on DIIS***
  2  -1721.9229794778  -0.027504423664 0.04438321  0.00127466  0.0723534 0.0000
  3  -1721.9947480052  -0.071768527336 0.01790584  0.00048301  0.0328805 0.0000
  4  -1722.0369034713  -0.042155466111 0.01287606  0.00030058  0.0140574 0.0000
  5  -1722.0508357824  -0.013932311059 0.01003629  0.00019588  0.0092991 0.0000
  6  -1722.0163672594   0.034468522946 0.00582688  0.00010070  0.0030655 0.0000
  7  -1722.0273334176  -0.010966158182 0.00353124  0.00006008  0.0016203 0.0000
  8  -1722.0222053294   0.005128088143 0.00339547  0.00005494  0.0008815 0.0000
  9  -1722.0193273527   0.002877976721 0.00075758  0.00001350  0.0002557 0.0000
 10  -1722.0193090114   0.000018341347 0.00018940  0.00000437  0.0001161 0.0000
 11  -1722.0194395144  -0.000130503053 0.00004775  0.00000151  0.0000320 0.0000
 12  -1722.0192676980   0.000171816380 0.00002306  0.00000065  0.0000203 0.0000
 13  -1722.0193843049  -0.000116606890 0.00000889  0.00000025  0.0000042 0.0000
 14  -1722.0193352568   0.000049048091 0.00000546  0.00000015  0.0000015 0.0000
 15  -1722.0193427578  -0.000007500960 0.00000245  0.00000007  0.0000006 0.0000
 16  -1722.0193391669   0.000003590946 0.00000112  0.00000003  0.0000002 0.0000
 17  -1722.0193395326  -0.000000365765 0.00000034  0.00000001  0.0000001 0.0000
 18  -1722.0193399851  -0.000000452475 0.00000012  0.00000000  0.0000000 0.0000
                            ***DIIS convergence achieved***

               *****************************************************
               *                     SUCCESS                       *
               *           SCF CONVERGED AFTER  19 CYCLES          *
               *****************************************************


----------------
TOTAL SCF ENERGY
----------------

Total Energy       :        -1722.01933970 Eh          -46858.52847 eV

Components:
Nuclear Repulsion  :          107.39545274 Eh            2922.37884 eV
Electronic Energy  :        -1829.41479244 Eh          -49780.90731 eV
One Electron Energy:        -2594.72164462 Eh          -70605.96549 eV
Two Electron Energy:          765.30685218 Eh           20825.05817 eV

Virial components:
Potential Energy   :        -3444.07947447 Eh          -93718.16704 eV
Kinetic Energy     :         1722.06013476 Eh           46859.63856 eV
Virial Ratio       :            1.99997631


---------------
SCF CONVERGENCE
---------------

  Last Energy change         ...    2.8240e-07  Tolerance :   1.0000e-09
  Last MAX-Density change    ...    3.6881e-08  Tolerance :   1.0000e-08
  Last RMS-Density change    ...    1.0358e-09  Tolerance :   1.0000e-09
  Last DIIS Error            ...    1.5930e-08  Tolerance :   1.0000e-08

             **** THE GBW FILE WAS UPDATED (33_FeCl.gbw) ****
             **** DENSITY FILE WAS UPDATED (33_FeCl.scfp) ****
             **** ENERGY FILE WAS UPDATED (33_FeCl.en.tmp) ****
----------------------
UHF SPIN CONTAMINATION
----------------------

Expectation value of <S**2>     :     8.756103
Ideal value S*(S+1) for S=2.5   :     8.750000
Deviation                       :     0.006103

             **** THE GBW FILE WAS UPDATED (33_FeCl.gbw) ****
             **** DENSITY FILE WAS UPDATED (33_FeCl.scfp) ****
----------------
ORBITAL ENERGIES
----------------
                 SPIN UP ORBITALS
  NO   OCC          E(Eh)            E(eV) 
   0   1.0000    -261.406140     -7113.2227 
   1   1.0000    -104.782074     -2851.2652 
   2   1.0000     -32.027881      -871.5230 
   3   1.0000     -27.527607      -749.0643 
   4   1.0000     -27.494423      -748.1613 
   5   1.0000     -27.494423      -748.1613 
   6   1.0000     -10.512206      -286.0517 
   7   1.0000      -7.979097      -217.1223 
   8   1.0000      -7.978163      -217.0969 
   9   1.0000      -7.978163      -217.0969 
  10   1.0000      -4.378400      -119.1423 
  11   1.0000      -3.039419       -82.7068 
  12   1.0000      -2.964176       -80.6593 
  13   1.0000      -2.964176       -80.6593 
  14   1.0000      -1.044866       -28.4322 
  15   1.0000      -0.744905       -20.2699 
  16   1.0000      -0.739481       -20.1223 
  17   1.0000      -0.739481       -20.1223 
  18   1.0000      -0.710765       -19.3409 
  19   1.0000      -0.661098       -17.9894 
  20   1.0000      -0.480492       -13.0749 
  21   1.0000      -0.433208       -11.7882 
  22   1.0000      -0.433208       -11.7882 
  23   1.0000      -0.297945        -8.1075 
  24   0.0000       0.060801         1.6545 
  25   0.0000       0.060801         1.6545 
  26   0.0000       0.132623         3.6089 
  27   0.0000       0.189622         5.1599 
  28   0.0000       0.234912         6.3923 
  29   0.0000       0.237550         6.4641 
  30   0.0000       0.277512         7.5515 
  31   0.0000       0.277512         7.5515 
  32   0.0000       0.308502         8.3948 
  33   0.0000       0.466679        12.6990 
  34   0.0000       0.495697        13.4886 
  35   0.0000       0.495697        13.4886 
  36   0.0000       0.572942        15.5905 
  37   0.0000       0.582885        15.8611 
  38   0.0000       0.582885        15.8611 
  39   0.0000       0.673428        18.3249 
  40   0.0000       0.673531        18.3277 
  41   0.0000       0.735556        20.0155 
  42   0.0000       0.735556        20.0155 
  43   0.0000       0.837284        22.7836 
  44   0.0000       0.996241        27.1091 
  45   0.0000       1.010882        27.5075 
  46   0.0000       1.064971        28.9793 
  47   0.0000       1.064971        28.9793 
  48   0.0000       1.164722        31.6937 
  49   0.0000       1.352215        36.7956 
  50   0.0000       2.106513        57.3211 
  51   0.0000       2.106818        57.3294 
  52   0.0000       2.138293        58.1859 
  53   0.0000       2.138293        58.1859 
  54   0.0000       2.173950        59.1562 
  55   0.0000       2.287535        62.2470 
  56   0.0000       2.325202        63.2720 
  57   0.0000       2.325202        63.2720 
  58   0.0000       2.394804        65.1659 
  59   0.0000       2.399140        65.2839 
  60   0.0000       2.442913        66.4751 
  61   0.0000       2.442913        66.4751 
  62   0.0000       2.515060        68.4383 
  63   0.0000       2.515060        68.4383 
  64   0.0000       2.543683        69.2171 
  65   0.0000       2.545610        69.2696 
  66   0.0000       2.547837        69.3302 
  67   0.0000       2.547837        69.3302 
  68   0.0000       2.556566        69.5677 
  69   0.0000       2.622539        71.3629 
  70   0.0000       2.622539        71.3629 
  71   0.0000       2.650100        72.1129 
  72   0.0000       2.860453        77.8369 
  73   0.0000       2.860453        77.8369 
  74   0.0000       2.974896        80.9510 
  75   0.0000       3.546606        96.5081 
  76   0.0000       3.797676       103.3400 
  77   0.0000       3.830751       104.2400 
  78   0.0000       3.832196       104.2793 
  79   0.0000       3.832196       104.2793 
  80   0.0000       3.912010       106.4512 
  81   0.0000       8.688356       236.4222 
  82   0.0000       8.688443       236.4245 
  83   0.0000       8.735421       237.7029 
  84   0.0000       8.735421       237.7029 
  85   0.0000       8.832631       240.3481 
  86   0.0000       8.897322       242.1084 
  87   0.0000       8.906257       242.3516 
  88   0.0000       8.906257       242.3516 
  89   0.0000       8.922142       242.7838 
  90   0.0000       8.928903       242.9678 
  91   0.0000       8.930556       243.0128 
  92   0.0000       8.930556       243.0128 
  93   0.0000       8.951330       243.5781 
  94   0.0000       8.955139       243.6817 
  95   0.0000       9.642444       262.3842 
  96   0.0000       9.675750       263.2905 
  97   0.0000       9.679202       263.3845 
  98   0.0000       9.679202       263.3845 
  99   0.0000       9.708669       264.1863 
 100   0.0000       9.708669       264.1863 
 101   0.0000       9.829921       267.4857 
 102   0.0000      11.537331       313.9467 
 103   0.0000      11.537331       313.9467 
 104   0.0000      11.762313       320.0688 
 105   0.0000      25.698590       699.2942 

                 SPIN DOWN ORBITALS
  NO   OCC          E(Eh)            E(eV) 
   0   1.0000    -261.401161     -7113.0872 
   1   1.0000    -104.781145     -2851.2399 
   2   1.0000     -31.902781      -868.1188 
   3   1.0000     -27.384448      -745.1687 
   4   1.0000     -27.384448      -745.1687 
   5   1.0000     -27.382745      -745.1224 
   6   1.0000     -10.511218      -286.0248 
   7   1.0000      -7.977278      -217.0728 
   8   1.0000      -7.976978      -217.0646 
   9   1.0000      -7.976978      -217.0646 
  10   1.0000      -4.021374      -109.4271 
  11   1.0000      -2.584275       -70.3217 
  12   1.0000      -2.584275       -70.3217 
  13   1.0000      -2.522757       -68.6477 
  14   1.0000      -1.034344       -28.1459 
  15   1.0000      -0.516863       -14.0646 
  16   1.0000      -0.482443       -13.1279 
  17   1.0000      -0.435317       -11.8456 
  18   1.0000      -0.435317       -11.8456 
  19   0.0000       0.011206         0.3049 
  20   0.0000       0.119745         3.2584 
  21   0.0000       0.119745         3.2584 
  22   0.0000       0.151621         4.1258 
  23   0.0000       0.185553         5.0491 
  24   0.0000       0.196166         5.3380 
  25   0.0000       0.196166         5.3380 
  26   0.0000       0.219071         5.9612 
  27   0.0000       0.255548         6.9538 
  28   0.0000       0.293107         7.9758 
  29   0.0000       0.347012         9.4427 
  30   0.0000       0.358050         9.7430 
  31   0.0000       0.359886         9.7930 
  32   0.0000       0.359886         9.7930 
  33   0.0000       0.501644        13.6504 
  34   0.0000       0.524823        14.2812 
  35   0.0000       0.524823        14.2812 
  36   0.0000       0.617563        16.8047 
  37   0.0000       0.617563        16.8047 
  38   0.0000       0.618772        16.8376 
  39   0.0000       0.676269        18.4022 
  40   0.0000       0.676363        18.4048 
  41   0.0000       0.762401        20.7460 
  42   0.0000       0.762401        20.7460 
  43   0.0000       0.902213        24.5505 
  44   0.0000       1.058986        28.8165 
  45   0.0000       1.159989        31.5649 
  46   0.0000       1.206585        32.8328 
  47   0.0000       1.206585        32.8328 
  48   0.0000       1.231734        33.5172 
  49   0.0000       1.414519        38.4910 
  50   0.0000       2.109989        57.4157 
  51   0.0000       2.110318        57.4247 
  52   0.0000       2.158462        58.7347 
  53   0.0000       2.158462        58.7347 
  54   0.0000       2.211284        60.1721 
  55   0.0000       2.340093        63.6772 
  56   0.0000       2.373188        64.5777 
  57   0.0000       2.373188        64.5777 
  58   0.0000       2.418096        65.7997 
  59   0.0000       2.421156        65.8830 
  60   0.0000       2.445061        66.5335 
  61   0.0000       2.445061        66.5335 
  62   0.0000       2.563275        69.7503 
  63   0.0000       2.598759        70.7158 
  64   0.0000       2.598759        70.7158 
  65   0.0000       2.625796        71.4515 
  66   0.0000       2.625796        71.4515 
  67   0.0000       2.660112        72.3853 
  68   0.0000       2.675749        72.8108 
  69   0.0000       2.675749        72.8108 
  70   0.0000       2.693388        73.2908 
  71   0.0000       2.782032        75.7029 
  72   0.0000       2.954928        80.4077 
  73   0.0000       2.954928        80.4077 
  74   0.0000       3.076310        83.7107 
  75   0.0000       3.629670        98.7683 
  76   0.0000       3.902989       106.2057 
  77   0.0000       4.004672       108.9727 
  78   0.0000       4.031015       109.6895 
  79   0.0000       4.031015       109.6895 
  80   0.0000       4.105211       111.7085 
  81   0.0000       8.689269       236.4470 
  82   0.0000       8.689298       236.4478 
  83   0.0000       8.740891       237.8517 
  84   0.0000       8.740891       237.8517 
  85   0.0000       8.844638       240.6748 
  86   0.0000       9.045802       246.1488 
  87   0.0000       9.049867       246.2594 
  88   0.0000       9.049867       246.2594 
  89   0.0000       9.052985       246.3442 
  90   0.0000       9.053835       246.3674 
  91   0.0000       9.057193       246.4587 
  92   0.0000       9.060345       246.5445 
  93   0.0000       9.060345       246.5445 
  94   0.0000       9.072396       246.8725 
  95   0.0000       9.887823       269.0613 
  96   0.0000       9.887823       269.0613 
  97   0.0000       9.893020       269.2028 
  98   0.0000       9.945024       270.6179 
  99   0.0000       9.969867       271.2939 
 100   0.0000       9.969867       271.2939 
 101   0.0000      10.097995       274.7804 
 102   0.0000      11.538609       313.9815 
 103   0.0000      11.538609       313.9815 
 104   0.0000      11.768895       320.2479 
 105   0.0000      25.700050       699.3339 

                    ********************************
                    * MULLIKEN POPULATION ANALYSIS *
                    ********************************

--------------------------------------------
MULLIKEN ATOMIC CHARGES AND SPIN POPULATIONS
--------------------------------------------
   0 Fe:    0.573161    4.962256
   1 Cl:   -0.573161    0.037744
Sum of atomic charges         :   -0.0000000
Sum of atomic spin populations:    5.0000000

-----------------------------------------------------
MULLIKEN REDUCED ORBITAL CHARGES AND SPIN POPULATIONS
-----------------------------------------------------
CHARGE
  0 Fes       :     6.884038  s :     6.884038
      pz      :     4.349590  p :    12.436880
      px      :     4.043645
      py      :     4.043645
      dz2     :     1.039766  d :     6.102843
      dxz     :     1.031714
      dyz     :     1.031714
      dx2y2   :     0.999929
      dxy     :     1.999719
      f0      :     0.001328  f :     0.003003
      f+1     :     0.000595
      f-1     :     0.000595
      f+2     :     0.000001
      f-2     :     0.000002
      f+3     :     0.000241
      f-3     :     0.000241
      g0      :     0.000016  g :     0.000075
      g+1     :     0.000011
      g-1     :     0.000011
      g+2     :     0.000003
      g-2     :     0.000011
      g+3     :     0.000002
      g-3     :     0.000002
      g+4     :     0.000020
      g-4     :     0.000000
  1 Cls       :     5.948853  s :     5.948853
      pz      :     3.765341  p :    11.602085
      px      :     3.918372
      py      :     3.918372
      dz2     :     0.010346  d :     0.020847
      dxz     :     0.005104
      dyz     :     0.005104
      dx2y2   :     0.000058
      dxy     :     0.000236
      f0      :     0.000702  f :     0.001376
      f+1     :     0.000316
      f-1     :     0.000316
      f+2     :     0.000009
      f-2     :     0.000033
      f+3     :     0.000000
      f-3     :     0.000000

SPIN
  0 Fes       :     0.760583  s :     0.760583
      pz      :     0.265876  p :     0.281937
      px      :     0.008030
      py      :     0.008030
      dz2     :     0.956239  d :     3.920199
      dxz     :     0.981971
      dyz     :     0.981971
      dx2y2   :     0.999929
      dxy     :     0.000088
      f0      :    -0.000036  f :    -0.000497
      f+1     :    -0.000010
      f-1     :    -0.000010
      f+2     :     0.000001
      f-2     :    -0.000000
      f+3     :    -0.000221
      f-3     :    -0.000221
      g0      :     0.000007  g :     0.000034
      g+1     :     0.000008
      g-1     :     0.000008
      g+2     :     0.000003
      g-2     :     0.000009
      g+3     :     0.000002
      g-3     :     0.000002
      g+4     :    -0.000004
      g-4     :    -0.000000
  1 Cls       :     0.001142  s :     0.001142
      pz      :     0.016810  p :     0.037952
      px      :     0.010571
      py      :     0.010571
      dz2     :    -0.000795  d :    -0.001628
      dxz     :    -0.000402
      dyz     :    -0.000402
      dx2y2   :     0.000058
      dxy     :    -0.000087
      f0      :     0.000178  f :     0.000278
      f+1     :     0.000050
      f-1     :     0.000050
      f+2     :     0.000009
      f-2     :    -0.000010
      f+3     :    -0.000000
      f-3     :    -0.000000


                     *******************************
                     * LOEWDIN POPULATION ANALYSIS *
                     *******************************

-------------------------------------------
LOEWDIN ATOMIC CHARGES AND SPIN POPULATIONS
-------------------------------------------
   0 Fe:    0.072579    4.932211
   1 Cl:   -0.072579    0.067789

----------------------------------------------------
LOEWDIN REDUCED ORBITAL CHARGES AND SPIN POPULATIONS
----------------------------------------------------
CHARGE
  0 Fes       :     6.891193  s :     6.891193
      pz      :     4.529080  p :    12.662754
      px      :     4.066837
      py      :     4.066837
      dz2     :     1.176362  d :     6.367089
      dxz     :     1.095622
      dyz     :     1.095622
      dx2y2   :     0.999887
      dxy     :     1.999595
      f0      :     0.003562  f :     0.006291
      f+1     :     0.001122
      f-1     :     0.001122
      f+2     :     0.000001
      f-2     :     0.000002
      f+3     :     0.000241
      f-3     :     0.000241
      g0      :     0.000029  g :     0.000094
      g+1     :     0.000014
      g-1     :     0.000014
      g+2     :     0.000003
      g-2     :     0.000011
      g+3     :     0.000002
      g-3     :     0.000002
      g+4     :     0.000020
      g-4     :     0.000000
  1 Cls       :     5.653052  s :     5.653052
      pz      :     3.729200  p :    11.392027
      px      :     3.831413
      py      :     3.831413
      dz2     :     0.016253  d :     0.025205
      dxz     :     0.004274
      dyz     :     0.004274
      dx2y2   :     0.000086
      dxy     :     0.000318
      f0      :     0.001248  f :     0.002294
      f+1     :     0.000474
      f-1     :     0.000474
      f+2     :     0.000024
      f-2     :     0.000075
      f+3     :     0.000000
      f-3     :     0.000000

SPIN
  0 Fes       :     0.711325  s :     0.711325
      pz      :     0.299570  p :     0.316199
      px      :     0.008315
      py      :     0.008315
      dz2     :     0.949822  d :     3.905018
      dxz     :     0.977600
      dyz     :     0.977600
      dx2y2   :     0.999887
      dxy     :     0.000110
      f0      :     0.000085  f :    -0.000363
      f+1     :    -0.000004
      f-1     :    -0.000004
      f+2     :     0.000001
      f-2     :    -0.000000
      f+3     :    -0.000221
      f-3     :    -0.000221
      g0      :     0.000006  g :     0.000032
      g+1     :     0.000007
      g-1     :     0.000007
      g+2     :     0.000003
      g-2     :     0.000009
      g+3     :     0.000002
      g-3     :     0.000002
      g+4     :    -0.000004
      g-4     :    -0.000000
  1 Cls       :     0.004846  s :     0.004846
      pz      :     0.029657  p :     0.054923
      px      :     0.012633
      py      :     0.012633
      dz2     :     0.003954  d :     0.006611
      dxz     :     0.001336
      dyz     :     0.001336
      dx2y2   :     0.000086
      dxy     :    -0.000101
      f0      :     0.000739  f :     0.001410
      f+1     :     0.000332
      f-1     :     0.000332
      f+2     :     0.000024
      f-2     :    -0.000017
      f+3     :    -0.000000
      f-3     :    -0.000000


                      *****************************
                      * MAYER POPULATION ANALYSIS *
                      *****************************

  NA   - Mulliken gross atomic population
  ZA   - Total nuclear charge
  QA   - Mulliken gross atomic charge
  VA   - Mayer's total valence
  BVA  - Mayer's bonded valence
  FA   - Mayer's free valence

  ATOM       NA         ZA         QA         VA         BVA        FA
  0 Fe    25.4268    26.0000     0.5732     5.6871     0.7855     4.9016
  1 Cl    17.5732    17.0000    -0.5732     0.7876     0.7855     0.0021

  Mayer bond orders larger than 0.100000
B(  0-Fe,  1-Cl) :   0.7855 

-------
TIMINGS
-------

Total SCF time: 0 days 0 hours 0 min 2 sec 

Total time                  ....       2.933 sec
Sum of individual times     ....       2.726 sec  ( 92.9%)

Fock matrix formation       ....       2.496 sec  ( 85.1%)
Diagonalization             ....       0.057 sec  (  1.9%)
Density matrix formation    ....       0.009 sec  (  0.3%)
Population analysis         ....       0.005 sec  (  0.2%)
Initial guess               ....       0.110 sec  (  3.7%)
Orbital Transformation      ....       0.000 sec  (  0.0%)
Orbital Orthonormalization  ....       0.000 sec  (  0.0%)
DIIS solution               ....       0.027 sec  (  0.9%)


           ************************************************************
           *        Program running with 24 parallel MPI-processes    *
           *              working on a common directory               *
           ************************************************************


------------------------------------------------------------------------------- 
                              ORCA-MATRIX DRIVEN CI                            
------------------------------------------------------------------------------- 

--------------------------------
AUTOMATIC CHOICE OF INCORE LEVEL
--------------------------------

Memory available                           ...   2500.00 MB
Memory needed for S+T                      ...     16.16 MB
Memory needed for J+K                      ...     32.45 MB
Memory needed for DIIS                     ...    226.23 MB
Memory needed for 3-ext                    ...     58.89 MB
Memory needed for 4-ext                    ...    174.57 MB
Memory needed for triples                  ...     21.03 MB
 -> Final InCoreLevel    ... 5
 -> check shows that triples correction can be computed


Wavefunction type
-----------------
Correlation treatment                      ...      CCSD     
Single excitations                         ... ON
Orbital optimization                       ... OFF
Calculation of Z vector                    ... OFF
Calculation of Brueckner orbitals          ... OFF
Perturbative triple excitations            ... ON
Calculation of F12 correction              ... OFF
Frozen core treatment                      ... chemical core (20 el)
Reference Wavefunction                     ... UHF
  Alpha-MOs occ    :    10 ...   23 ( 14 MO's/ 14 electrons)
  Beta-MOs occ     :    10 ...   18 (  9 MO's/  9 electrons)
  Alpha-MOs virt   :    24 ...  105 ( 82 MO's              )
  Beta-MOs virt    :    19 ...  105 ( 87 MO's              )
Number of AO's                             ...    106
Number of electrons                        ...     43
Number of correlated electrons             ...     23

Algorithmic settings
--------------------
Integral transformation                    ... AO direct full transformation
K(C) Formation                             ... FULL-MO TRAFO
Maximum number of iterations               ...        50
Convergence tolerance (max. residuum)      ... 1.000e-06
Level shift for amplitude update           ... 2.000e-01
Maximum number of DIIS vectors             ...         7
DIIS turned on at iteration                ...         0
Damping before turning on DIIS             ...     0.500
Damping after turning on DIIS              ...     0.000
Pair specific amplitude update             ... OFF
Natural orbital iterations                 ... OFF
Perturbative natural orbital generation    ... OFF
Printlevel                                 ... 2

Memory handling:
----------------
Maximum memory for working arrays          ...   2500 MB
Data storage in matrix containers          ... UNCOMPRESSED
Data type for integral storage             ... DOUBLE
In-Core Storage of quantities:
   Amplitudes+Sigma Vector      ... YES
   J+K operators                ... YES
   DIIS vectors                 ... YES
   3-external integrals         ... YES
   4-external integrals         ... YES


Initializing the integral package          ... done
Warning: reference  - re-canonicalizations have been set to INT 1 VIRT 1

--------------------------
UNRESTRICTED FOCK OPERATOR
--------------------------

<ss|ss>:         1830 b           71 skpd (  3.9%)    0.001 s ( 0.000 ms/b)
<ss|sp>:         6240 b          280 skpd (  4.5%)    0.002 s ( 0.000 ms/b)
<ss|sd>:         4440 b          198 skpd (  4.5%)    0.001 s ( 0.000 ms/b)
<ss|sf>:         1860 b           63 skpd (  3.4%)    0.001 s ( 0.000 ms/b)
<ss|sg>:          660 b           91 skpd ( 13.8%)    0.000 s ( 0.001 ms/b)
<ss|pp>:         3180 b           99 skpd (  3.1%)    0.001 s ( 0.000 ms/b)
<ss|pd>:         4140 b          195 skpd (  4.7%)    0.002 s ( 0.000 ms/b)
<ss|pf>:         1740 b           77 skpd (  4.4%)    0.001 s ( 0.000 ms/b)
<ss|pg>:          600 b           39 skpd (  6.5%)    0.001 s ( 0.001 ms/b)
<ss|dd>:         1680 b           64 skpd (  3.8%)    0.001 s ( 0.001 ms/b)
<ss|df>:         1260 b           79 skpd (  6.3%)    0.001 s ( 0.000 ms/b)
<ss|dg>:          420 b           21 skpd (  5.0%)    0.001 s ( 0.002 ms/b)
<ss|ff>:          360 b           12 skpd (  3.3%)    0.000 s ( 0.001 ms/b)
<ss|fg>:          180 b            6 skpd (  3.3%)    0.000 s ( 0.002 ms/b)
<ss|gg>:           60 b            2 skpd (  3.3%)    0.001 s ( 0.010 ms/b)
<sp|sp>:         5460 b          252 skpd (  4.6%)    0.002 s ( 0.000 ms/b)
<sp|sd>:         7696 b          369 skpd (  4.8%)    0.002 s ( 0.000 ms/b)
<sp|sf>:         3224 b          121 skpd (  3.8%)    0.001 s ( 0.000 ms/b)
<sp|sg>:         1144 b          188 skpd ( 16.4%)    0.001 s ( 0.001 ms/b)
<sp|pp>:         5512 b          121 skpd (  2.2%)    0.003 s ( 0.001 ms/b)
<sp|pd>:         7176 b          297 skpd (  4.1%)    0.003 s ( 0.000 ms/b)
<sp|pf>:         3016 b          117 skpd (  3.9%)    0.002 s ( 0.001 ms/b)
<sp|pg>:         1040 b           62 skpd (  6.0%)    0.002 s ( 0.002 ms/b)
<sp|dd>:         2912 b          103 skpd (  3.5%)    0.004 s ( 0.001 ms/b)
<sp|df>:         2184 b          172 skpd (  7.9%)    0.001 s ( 0.001 ms/b)
<sp|dg>:          728 b           40 skpd (  5.5%)    0.002 s ( 0.003 ms/b)
<sp|ff>:          624 b           17 skpd (  2.7%)    0.001 s ( 0.002 ms/b)
<sp|fg>:          312 b           10 skpd (  3.2%)    0.001 s ( 0.005 ms/b)
<sp|gg>:          104 b            2 skpd (  1.9%)    0.002 s ( 0.019 ms/b)
<sd|sd>:         2775 b          109 skpd (  3.9%)    0.001 s ( 0.000 ms/b)
<sd|sf>:         2294 b           70 skpd (  3.1%)    0.001 s ( 0.000 ms/b)
<sd|sg>:          814 b          139 skpd ( 17.1%)    0.001 s ( 0.002 ms/b)
<sd|pp>:         3922 b           88 skpd (  2.2%)    0.003 s ( 0.001 ms/b)
<sd|pd>:         5106 b          184 skpd (  3.6%)    0.004 s ( 0.001 ms/b)
<sd|pf>:         2146 b           82 skpd (  3.8%)    0.002 s ( 0.001 ms/b)
<sd|pg>:          740 b           56 skpd (  7.6%)    0.002 s ( 0.004 ms/b)
<sd|dd>:         2072 b           56 skpd (  2.7%)    0.005 s ( 0.002 ms/b)
<sd|df>:         1554 b          103 skpd (  6.6%)    0.002 s ( 0.001 ms/b)
<sd|dg>:          518 b           28 skpd (  5.4%)    0.003 s ( 0.006 ms/b)
<sd|ff>:          444 b            9 skpd (  2.0%)    0.001 s ( 0.003 ms/b)
<sd|fg>:          222 b            4 skpd (  1.8%)    0.002 s ( 0.009 ms/b)
<sd|gg>:           74 b            1 skpd (  1.4%)    0.003 s ( 0.039 ms/b)
<sf|sf>:          496 b           10 skpd (  2.0%)    0.000 s ( 0.001 ms/b)
<sf|sg>:          341 b           63 skpd ( 18.5%)    0.001 s ( 0.003 ms/b)
<sf|pp>:         1643 b           22 skpd (  1.3%)    0.002 s ( 0.001 ms/b)
<sf|pd>:         2139 b           57 skpd (  2.7%)    0.003 s ( 0.001 ms/b)
<sf|pf>:          899 b           25 skpd (  2.8%)    0.001 s ( 0.002 ms/b)
<sf|pg>:          310 b           26 skpd (  8.4%)    0.002 s ( 0.007 ms/b)
<sf|dd>:          868 b           20 skpd (  2.3%)    0.004 s ( 0.004 ms/b)
<sf|df>:          651 b           34 skpd (  5.2%)    0.002 s ( 0.003 ms/b)
<sf|dg>:          217 b           15 skpd (  6.9%)    0.002 s ( 0.012 ms/b)
<sf|ff>:          186 b            1 skpd (  0.5%)    0.001 s ( 0.007 ms/b)
<sf|fg>:           93 b            1 skpd (  1.1%)    0.002 s ( 0.017 ms/b)
<sf|gg>:           31 b            0 skpd (  0.0%)    0.002 s ( 0.069 ms/b)
<sg|sg>:           66 b           22 skpd ( 33.3%)    0.000 s ( 0.005 ms/b)
<sg|pp>:          583 b           73 skpd ( 12.5%)    0.001 s ( 0.002 ms/b)
<sg|pd>:          759 b          134 skpd ( 17.7%)    0.002 s ( 0.003 ms/b)
<sg|pf>:          319 b           62 skpd ( 19.4%)    0.001 s ( 0.002 ms/b)
<sg|pg>:          110 b           27 skpd ( 24.5%)    0.001 s ( 0.012 ms/b)
<sg|dd>:          308 b           54 skpd ( 17.5%)    0.002 s ( 0.008 ms/b)
<sg|df>:          231 b           52 skpd ( 22.5%)    0.001 s ( 0.004 ms/b)
<sg|dg>:           77 b           19 skpd ( 24.7%)    0.001 s ( 0.022 ms/b)
<sg|ff>:           66 b           12 skpd ( 18.2%)    0.000 s ( 0.009 ms/b)
<sg|fg>:           33 b            6 skpd ( 18.2%)    0.001 s ( 0.031 ms/b)
<sg|gg>:           11 b            2 skpd ( 18.2%)    0.001 s ( 0.119 ms/b)
<pp|pp>:         1431 b            5 skpd (  0.3%)    0.002 s ( 0.002 ms/b)
<pp|pd>:         3657 b           51 skpd (  1.4%)    0.004 s ( 0.001 ms/b)
<pp|pf>:         1537 b           11 skpd (  0.7%)    0.002 s ( 0.001 ms/b)
<pp|pg>:          530 b           11 skpd (  2.1%)    0.002 s ( 0.004 ms/b)
<pp|dd>:         1484 b           12 skpd (  0.8%)    0.005 s ( 0.003 ms/b)
<pp|df>:         1113 b           41 skpd (  3.7%)    0.002 s ( 0.002 ms/b)
<pp|dg>:          371 b            5 skpd (  1.3%)    0.003 s ( 0.008 ms/b)
<pp|ff>:          318 b            1 skpd (  0.3%)    0.002 s ( 0.005 ms/b)
<pp|fg>:          159 b            0 skpd (  0.0%)    0.002 s ( 0.013 ms/b)
<pp|gg>:           53 b            0 skpd (  0.0%)    0.003 s ( 0.055 ms/b)
<pd|pd>:         2415 b           74 skpd (  3.1%)    0.006 s ( 0.002 ms/b)
<pd|pf>:         2001 b           50 skpd (  2.5%)    0.004 s ( 0.002 ms/b)
<pd|pg>:          690 b           29 skpd (  4.2%)    0.005 s ( 0.007 ms/b)
<pd|dd>:         1932 b           38 skpd (  2.0%)    0.010 s ( 0.005 ms/b)
<pd|df>:         1449 b           90 skpd (  6.2%)    0.004 s ( 0.003 ms/b)
<pd|dg>:          483 b           20 skpd (  4.1%)    0.006 s ( 0.014 ms/b)
<pd|ff>:          414 b            6 skpd (  1.4%)    0.003 s ( 0.008 ms/b)
<pd|fg>:          207 b            3 skpd (  1.4%)    0.005 s ( 0.023 ms/b)
<pd|gg>:           69 b            1 skpd (  1.4%)    0.007 s ( 0.099 ms/b)
<pf|pf>:          435 b           11 skpd (  2.5%)    0.001 s ( 0.003 ms/b)
<pf|pg>:          290 b           11 skpd (  3.8%)    0.003 s ( 0.011 ms/b)
<pf|dd>:          812 b           22 skpd (  2.7%)    0.006 s ( 0.007 ms/b)
<pf|df>:          609 b           41 skpd (  6.7%)    0.003 s ( 0.005 ms/b)
<pf|dg>:          203 b           10 skpd (  4.9%)    0.004 s ( 0.022 ms/b)
<pf|ff>:          174 b            5 skpd (  2.9%)    0.003 s ( 0.015 ms/b)
<pf|fg>:           87 b            3 skpd (  3.4%)    0.003 s ( 0.039 ms/b)
<pf|gg>:           29 b            1 skpd (  3.4%)    0.004 s ( 0.153 ms/b)
<pg|pg>:           55 b            5 skpd (  9.1%)    0.001 s ( 0.024 ms/b)
<pg|dd>:          280 b           12 skpd (  4.3%)    0.004 s ( 0.014 ms/b)
<pg|df>:          210 b           20 skpd (  9.5%)    0.002 s ( 0.009 ms/b)
<pg|dg>:           70 b            8 skpd ( 11.4%)    0.003 s ( 0.047 ms/b)
<pg|ff>:           60 b            4 skpd (  6.7%)    0.001 s ( 0.021 ms/b)
<pg|fg>:           30 b            3 skpd ( 10.0%)    0.002 s ( 0.069 ms/b)
<pg|gg>:           10 b            1 skpd ( 10.0%)    0.002 s ( 0.237 ms/b)
<dd|dd>:          406 b            4 skpd (  1.0%)    0.005 s ( 0.011 ms/b)
<dd|df>:          588 b           30 skpd (  5.1%)    0.003 s ( 0.005 ms/b)
<dd|dg>:          196 b            7 skpd (  3.6%)    0.005 s ( 0.024 ms/b)
<dd|ff>:          168 b            3 skpd (  1.8%)    0.002 s ( 0.015 ms/b)
<dd|fg>:           84 b            1 skpd (  1.2%)    0.004 s ( 0.042 ms/b)
<dd|gg>:           28 b            0 skpd (  0.0%)    0.005 s ( 0.177 ms/b)
<df|df>:          231 b           21 skpd (  9.1%)    0.003 s ( 0.015 ms/b)
<df|dg>:          147 b           12 skpd (  8.2%)    0.005 s ( 0.035 ms/b)
<df|ff>:          126 b            6 skpd (  4.8%)    0.003 s ( 0.026 ms/b)
<df|fg>:           63 b            3 skpd (  4.8%)    0.004 s ( 0.067 ms/b)
<df|gg>:           21 b            1 skpd (  4.8%)    0.005 s ( 0.267 ms/b)
<dg|dg>:           28 b            3 skpd ( 10.7%)    0.002 s ( 0.098 ms/b)
<dg|ff>:           42 b            1 skpd (  2.4%)    0.001 s ( 0.034 ms/b)
<dg|fg>:           21 b            2 skpd (  9.5%)    0.002 s ( 0.118 ms/b)
<dg|gg>:            7 b            0 skpd (  0.0%)    0.003 s ( 0.408 ms/b)
<ff|ff>:           21 b            0 skpd (  0.0%)    0.001 s ( 0.052 ms/b)
<ff|fg>:           18 b            0 skpd (  0.0%)    0.002 s ( 0.106 ms/b)
<ff|gg>:            6 b            0 skpd (  0.0%)    0.003 s ( 0.432 ms/b)
<fg|fg>:            6 b            0 skpd (  0.0%)    0.001 s ( 0.240 ms/b)
<fg|gg>:            3 b            0 skpd (  0.0%)    0.002 s ( 0.709 ms/b)
<gg|gg>:            1 b            0 skpd (  0.0%)    0.002 s ( 1.629 ms/b)
Recanonicalizing the internal orbitals
Recanonicalizing the virtual orbitals
Time needed for Fock operator              ...            0.297 sec
Reference energy                           ...  -1722.019339806
Warning: for UHF the TrafoType has to be JK
Warning: for UHF the K(C)-option cannot be MO but must be AOX

-------------------------------
PARTIAL EXCHANGE TRANSFORMATION
-------------------------------

Transformation type                        ... two-operators
Generation of integrals (i,mue|j,nue)      ... ON
Generation of integrals (mue,kappa|nue,tau)... ON
Generation of integrals (i,mue|a,nue)      ... ON
Dimension of the basis                     ...  106
Number of internal alpha-MOs               ...   14 (  10-  23)
Number of internal beta-MOs                ...    9 (  10-  18)
Number of external alpha-MOs               ...   82 (  24- 105)
Number of external beta-MOs                ...   87 (  19- 105)
Pair cutoff                                ... 0.000e+00 Eh
Number of AO pairs in the trafo            ... 5671
Total Number of distinct AO pairs          ... 5671
Memory devoted for trafo                   ... 2500.0 MB 
Max. Number of MO pairs treated together   ... 29163      
Number Format for Storage                  ... Double (8 Byte)
Integral package used                      ... LIBINT

Starting integral evaluation:
    ... done with AO integral generation
Closing buffer AOK[aa] ( 0.00 GB; CompressionRatio= 0.99)
Closing buffer AOK[bb] ( 0.00 GB; CompressionRatio= 0.98)
Closing buffer AOK[ab] ( 0.00 GB; CompressionRatio= 0.99)
Closing buffer AOK[ba] ( 0.00 GB; CompressionRatio= 0.99)
Collecting buffer AOK 
Closing buffer IAAO1[aa] ( 0.00 GB; CompressionRatio= 1.00)
Closing buffer IAAO1[bb] ( 0.00 GB; CompressionRatio= 1.00)
Closing buffer IAAO1[ab] ( 0.00 GB; CompressionRatio= 1.00)
Closing buffer IAAO1[ba] ( 0.00 GB; CompressionRatio= 1.00)
Closing buffer IAAO2[aa] ( 0.00 GB; CompressionRatio= 1.00)
Closing buffer IAAO2[bb] ( 0.00 GB; CompressionRatio= 1.00)
Closing buffer IAAO2[ab] ( 0.00 GB; CompressionRatio= 1.00)
Closing buffer IAAO2[ba] ( 0.00 GB; CompressionRatio= 1.00)
Collecting buffer IAAO 
Closing buffer PRQS    ( 0.01 GB; CompressionRatio= 1.00)
Collecting buffer PRQS 
Number of alpha/alpha MO pairs in trafo    ...  105
Number of beta /beta  MO pairs in trafo    ...   45
Number of alpha/ beta MO pairs in trafo    ...  126
------------------------
SORTING OF (i,mue|j,nue)
------------------------

SORTING OF ALPHA/ALPHA PAIRS
IBATCH = 1 of  1
Closing buffer KAO[aa] ( 0.00 GB; CompressionRatio= 1.00)
Collecting buffer KAO 
SORTING OF BETA /BETA  PAIRS
IBATCH = 1 of  1
Closing buffer KAO[bb] ( 0.00 GB; CompressionRatio= 1.00)
Collecting buffer KAO 
SORTING OF ALPHA/BETA  PAIRS
IBATCH = 1 of  1
Closing buffer KAO[ab] ( 0.00 GB; CompressionRatio= 0.999866518354)
Collecting buffer KAO[ab] 
------------------------
SORTING OF (i,mue|a,nue)
------------------------

Number of alpha/alpha (i,a) pairs in trafo  ... 1148
Number of beta /beta  (i,a) pairs in trafo  ...  783
Number of alpha/ beta (i,a) pairs in trafo  ... 1218
Number of beta /alpha (i,a) pairs in trafo  ...  738
Setting up the alpha/alpha list             ... done
Setting up the beta /beta  list             ... done
Setting up the alpha/beta  list             ... done
Setting up the beta /alpha list             ... done
    ... Now sorting (i,mue|a,nue)integrals
    ... Integrals (i,b|a,c) will be made on the fly
SORTING OF ALPHA/ALPHA PAIRS
IBATCH = 1 of  1
Closing buffer IPAQ[aa]  0.00 GB; CompressionRatio= 1.00)
SORTING OF BETA /BETA  PAIRS
IBATCH = 1 of  1
Closing buffer IPAQ[bb]( 0.00 GB; CompressionRatio= 1.00)
SORTING OF ALPHA/BETA  PAIRS (NMatSort_ab=51)
IBATCH = 1 of  1
Closing buffer IPAQ[ab]( 0.00 GB; CompressionRatio= 1.00)
SORTING OF BETA/ALPHA  PAIRS
IBATCH = 1 of  1
Closing buffer IPAQ[ba]( 0.00 GB; CompressionRatio= 1.00)
N(AO-Batches) Done                         ...      8391 
N(AO-Batches) Skipped                      ...         0 
N(IJ)-pairs Skipped                        ...         0 
TOTAL TIME for half transformation         ...     1.476 sec
AO-integral generation                     ...     0.049 sec
Half transformation                        ...     0.015 sec
K-integral sorting                         ...     0.899 sec
<ss|**>: 
------------------------------
PARTIAL COULOMB TRANSFORMATION
------------------------------

Transformation type                        ... two-operators
Dimension of the basis                     ...  106
Number of internal alpha-MOs               ...   14 (10-23)
Number of internal beta-MOs                ...    9 (10-18)
Pair cutoff                                ... 0.000e+00 Eh
Number of AO pairs included in the trafo   ... 5671
Total Number of distinct AO pairs          ... 5671
Memory devoted for trafo                   ... 2500.0 MB 
Max. Number of MO pairs treated together   ... 57781      
Max. Number of MOs treated per batch       ...  545      
Number Format for Storage                  ... Double (8 Byte)
AO-integral source                         ... DIRECT
Integral package used                      ... LIBINT

Starting integral evaluation:
<sp|**>:        30420 b        0 skpd     0.008 s (  0.000 ms/b)
<sd|**>:        52728 b        0 skpd     0.020 s (  0.000 ms/b)
<sf|**>:        37518 b        0 skpd     0.022 s (  0.001 ms/b)
       15717 b        0 skpd     0.012 s (  0.001 ms/b)
<sg|**>:         5577 b        0 skpd     0.019 s (  0.003 ms/b)
<pp|**>:        26871 b        0 skpd     0.029 s (  0.001 ms/b)
<pd|**>:        34983 b        0 skpd     0.043 s (  0.001 ms/b)
<pf|**>:        14703 b        0 skpd     0.020 s (  0.001 ms/b)
<pg|**>:         5070 b        0 skpd     0.029 s (  0.006 ms/b)
<dd|**>:        14196 b        0 skpd     0.056 s (  0.004 ms/b)
<df|**>:        10647 b        0 skpd     0.024 s (  0.002 ms/b)
<dg|**>:         3549 b        0 skpd     0.038 s (  0.011 ms/b)
<ff|**>:         3042 b        0 skpd     0.016 s (  0.005 ms/b)
<fg|**>:         1521 b        0 skpd     0.025 s (  0.016 ms/b)
<gg|**>:          507 b        0 skpd     0.036 s (  0.071 ms/b)
Closing buffer AOJ[aa] ( 0.00 GB; CompressionRatio= 0.99)
Closing buffer AOJ[bb] ( 0.00 GB; CompressionRatio= 0.00)
Collecting buffer AOJ 
    ... done with AO integral generation
Number of Alpha-MO pairs included          ...  105
Number of Beta-MO pairs included           ...   45
    ... Now sorting integrals
SORTING ALPHA/ALPHA PAIRS
IBATCH = 1 of  1
Closing buffer JAO[aa] ( 0.00 GB; CompressionRatio= 1.00)
SORTING BETA/BETA PAIRS
IBATCH = 1 of  1
Closing buffer JAO[bb] ( 0.00 GB; CompressionRatio= 1.00)
Collecting buffer JAO 
TOTAL TIME for half transformation         ...     0.438 sec
AO-integral generation                     ...     0.394 sec
Half transformation                        ...     0.013 sec
J-integral sorting                         ...     0.024 sec

-------------------------- SECOND HALF TRANSFORMATION -------------------------
Formation of (ij|kl),(ij|ka), (ij|ab)      ... ok (     0.059 sec)
Formation of (ik|jl),(ik|ja), (ia|jb)      ... ok (     0.097 sec)


-----------------------
SPIN UNRESTRICTED GUESS
-----------------------

Entering MDCI_UHF_Guess, Tailored=0
Spin-components of the MP2 energy:
EMP2(aa)=     -0.159732879
EMP2(bb)=     -0.066249695
EMP2(ab)=     -0.463405939

Initial guess performed in     0.043 sec
E(0)                                       ...  -1722.019339806
E(MP2)                                     ...     -0.689388513
Initial E(tot)                             ...  -1722.708728319
<T|T>                                      ...      0.143367516
Number of pairs included                   ... 253

------------------------------------------------
                  UHF COUPLED CLUSTER ITERATIONS
------------------------------------------------

Number of amplitudes to be optimized       ...      1342015

Iter       E(tot)           E(Corr)          Delta-E          Residual     Time      <S|S>**1/2
  0  -1722.708728319     -0.689388513      0.000000000      0.022033489    1.16      0.000000021
                           *** Turning on DIIS ***
  1  -1722.701175734     -0.681835928      0.007552585      0.006568567    1.24      0.045250735
  2  -1722.714327848     -0.694988042     -0.013152113      0.005805288    1.24      0.052478928
  3  -1722.717119779     -0.697779973     -0.002791931      0.003289194    1.29      0.066917711
  4  -1722.718510468     -0.699170662     -0.001390689      0.002115048    1.29      0.076250323
  5  -1722.719421919     -0.700082113     -0.000911451      0.000777627    1.28      0.086412550
  6  -1722.719600866     -0.700261060     -0.000178947      0.000372991    1.30      0.089538083
  7  -1722.719668156     -0.700328350     -0.000067290      0.000225852    1.32      0.090346638
  8  -1722.719681939     -0.700342133     -0.000013783      0.000113333    1.28      0.090438448
  9  -1722.719678376     -0.700338570      0.000003563      0.000048830    1.29      0.090387214
 10  -1722.719682705     -0.700342899     -0.000004329      0.000015624    1.34      0.090402921
 11  -1722.719678858     -0.700339052      0.000003847      0.000005950    1.31      0.090380384
 12  -1722.719680215     -0.700340409     -0.000001358      0.000003625    1.28      0.090391290
 13  -1722.719680102     -0.700340296      0.000000113      0.000001516    1.31      0.090391348
 14  -1722.719680477     -0.700340671     -0.000000374      0.000000997    1.26      0.090394608
               --- The Coupled-Cluster iterations have converged ---

----------------------
COUPLED CLUSTER ENERGY
----------------------

E(0)                                       ...  -1722.019339806
E(CORR)                                    ...     -0.700340671
E(TOT)                                     ...  -1722.719680477
Singles norm <S|S>**1/2                    ...      0.090394608 ( 0.048035242, 0.042359365)  
T1 diagnostic                              ...      0.018848579                              

------------------
LARGEST AMPLITUDES
------------------
  16b-> 28b  -1b-> -1b       0.043634
  23a-> 27a  -1a-> -1a       0.041362
  22a-> 39a  17b-> 40b       0.036761
  21a-> 39a  18b-> 40b       0.036761
  22a-> 40a  17b-> 39b       0.036744
  21a-> 40a  18b-> 39b       0.036744
  17b-> 25b  -1b-> -1b       0.035853
  18b-> 24b  -1b-> -1b       0.035853
  22a-> 40a  21a-> 39a       0.035280
  22a-> 39a  21a-> 40a       0.035280
  16b-> 22b  -1b-> -1b       0.035158
  18b-> 39b  17b-> 40b       0.034395
  18b-> 40b  17b-> 39b       0.034395
  17b-> 24b  -1b-> -1b       0.029782
  18b-> 25b  -1b-> -1b       0.029782
  15b-> 27b  -1b-> -1b       0.025683

----------------------
UHF TRIPLES CORRECTION (Algorithm 1)
----------------------

Multiplier for the singles contribution    ...      1.000000000

SPIN-CASE Alpha-Alpha-Alpha:
10% done
20% done
30% done
40% done
50% done
60% done
70% done
80% done
90% done


SPIN-CASE Beta-Beta-Beta:
10% done
20% done
30% done
40% done
50% done
60% done
70% done
80% done
90% done


SPIN-CASE Alpha-Alpha-Beta:
10% done
20% done
30% done
40% done
50% done
60% done
70% done
80% done
90% done


SPIN-CASE Beta-Beta-Alpha:
10% done
20% done
30% done
40% done
50% done
60% done
70% done
80% done
90% done


Triples Correction (T)                     ...     -0.021055036
    alpha-alpha-alpha ... -0.001570021 (  7.5%)
    alpha-alpha-beta  ... -0.011273511 ( 53.5%)
    alpha-beta -beta  ... -0.007724578 ( 36.7%)
    beta -beta -beta  ... -0.000486926 (  2.3%)
Scaling of triples based on CCSD energies (Peterson et al. Molecular Physics 113, 1551 (2015))
E(T*) = f*E(T) where f = E(F12-CCSD)/E(CCSD) 
f = CCSD (with F12)/ CCSD (without F12)    ...      1.000000000
Scaled triples correction (T)              ...     -0.021055036

Final correlation energy                   ...     -0.721395707
E(CCSD)                                    ...  -1722.719680477
E(CCSD(T))                                 ...  -1722.740735513



        !!!!!!!!!!!!!!!!!!!!!!!!!!!!!!!!!!!!!!!!!!!!!!!!!!!!!!!!!!!!!!!!!!!!!!!!!! 
        !  Warning: Densities are linearized densities                           !
        !!!!!!!!!!!!!!!!!!!!!!!!!!!!!!!!!!!!!!!!!!!!!!!!!!!!!!!!!!!!!!!!!!!!!!!!!! 

NORM  =      1.178213361 sqrt=     1.085455370
W(HF) =      0.848742709
------------------------------------------------------------------------------
                           ORCA POPULATION ANALYSIS
------------------------------------------------------------------------------
Input electron density              ... 33_FeCl.mdcip
Input spin density                  ... 33_FeCl.mdcir
BaseName (.gbw .S,...)              ... 33_FeCl

                    ********************************
                    * MULLIKEN POPULATION ANALYSIS *
                    ********************************

------------------------------------------
MULLIKEN ATOMIC CHARGES AND SPIN DENSITIES
------------------------------------------
   0 Fe:    0.455404    4.895374
   1 Cl:   -0.455404    0.104626
Sum of atomic charges       :   -0.0000000
Sum of atomic spin densities:    5.0000000

---------------------------------------------------
MULLIKEN REDUCED ORBITAL CHARGES AND SPIN DENSITIES
---------------------------------------------------
CHARGE
  0 Fes       :     6.933396  s :     6.933396
      pz      :     4.315459  p :    12.420419
      px      :     4.052480
      py      :     4.052480
      dz2     :     1.064614  d :     6.156913
      dxz     :     1.052110
      dyz     :     1.052110
      dx2y2   :     1.001021
      dxy     :     1.987060
      f0      :     0.004904  f :     0.030748
      f+1     :     0.004318
      f-1     :     0.004318
      f+2     :     0.003551
      f-2     :     0.004335
      f+3     :     0.004662
      f-3     :     0.004662
      g0      :     0.000340  g :     0.003120
      g+1     :     0.000335
      g-1     :     0.000335
      g+2     :     0.000303
      g-2     :     0.000366
      g+3     :     0.000346
      g-3     :     0.000346
      g+4     :     0.000375
      g-4     :     0.000375
  1 Cls       :     5.928175  s :     5.928175
      pz      :     3.680672  p :    11.387158
      px      :     3.853243
      py      :     3.853243
      dz2     :     0.031280  d :     0.128135
      dxz     :     0.027122
      dyz     :     0.027122
      dx2y2   :     0.021160
      dxy     :     0.021450
      f0      :     0.002360  f :     0.011936
      f+1     :     0.001931
      f-1     :     0.001931
      f+2     :     0.001469
      f-2     :     0.001505
      f+3     :     0.001369
      f-3     :     0.001369

SPIN
  0 Fes       :     0.781027  s :     0.781027
      pz      :     0.247253  p :     0.282850
      px      :     0.017799
      py      :     0.017799
      dz2     :     0.914021  d :     3.815569
      dxz     :     0.953033
      dyz     :     0.953033
      dx2y2   :     0.990773
      dxy     :     0.004708
      f0      :     0.002511  f :     0.014458
      f+1     :     0.002456
      f-1     :     0.002456
      f+2     :     0.002711
      f-2     :     0.001729
      f+3     :     0.001297
      f-3     :     0.001297
      g0      :     0.000198  g :     0.001471
      g+1     :     0.000194
      g-1     :     0.000194
      g+2     :     0.000190
      g-2     :     0.000172
      g+3     :     0.000154
      g-3     :     0.000154
      g+4     :     0.000108
      g-4     :     0.000107
  1 Cls       :     0.001779  s :     0.001779
      pz      :     0.047798  p :     0.101888
      px      :     0.027045
      py      :     0.027045
      dz2     :    -0.000122  d :     0.000550
      dxz     :     0.000110
      dyz     :     0.000110
      dx2y2   :     0.000346
      dxy     :     0.000106
      f0      :     0.000184  f :     0.000410
      f+1     :     0.000074
      f-1     :     0.000074
      f+2     :     0.000035
      f-2     :     0.000006
      f+3     :     0.000018
      f-3     :     0.000018


                     *******************************
                     * LOEWDIN POPULATION ANALYSIS *
                     *******************************

-----------------------------------------
LOEWDIN ATOMIC CHARGES AND SPIN DENSITIES
-----------------------------------------
   0 Fe:    0.004366    4.864799
   1 Cl:   -0.004366    0.135201

--------------------------------------------------
LOEWDIN REDUCED ORBITAL CHARGES AND SPIN DENSITIES
--------------------------------------------------
CHARGE
  0 Fes       :     6.916018  s :     6.916018
      pz      :     4.487982  p :    12.635309
      px      :     4.073664
      py      :     4.073664
      dz2     :     1.196349  d :     6.407299
      dxz     :     1.111491
      dyz     :     1.111491
      dx2y2   :     1.001027
      dxy     :     1.986940
      f0      :     0.007027  f :     0.033870
      f+1     :     0.004815
      f-1     :     0.004815
      f+2     :     0.003553
      f-2     :     0.004336
      f+3     :     0.004662
      f-3     :     0.004662
      g0      :     0.000352  g :     0.003138
      g+1     :     0.000338
      g-1     :     0.000338
      g+2     :     0.000303
      g-2     :     0.000366
      g+3     :     0.000346
      g-3     :     0.000346
      g+4     :     0.000375
      g-4     :     0.000375
  1 Cls       :     5.645402  s :     5.645402
      pz      :     3.665178  p :    11.210644
      px      :     3.772733
      py      :     3.772733
      dz2     :     0.039816  d :     0.135158
      dxz     :     0.026347
      dyz     :     0.026347
      dx2y2   :     0.021134
      dxy     :     0.021514
      f0      :     0.003077  f :     0.013162
      f+1     :     0.002150
      f-1     :     0.002150
      f+2     :     0.001487
      f-2     :     0.001560
      f+3     :     0.001369
      f-3     :     0.001369

SPIN
  0 Fes       :     0.721627  s :     0.721627
      pz      :     0.288771  p :     0.325617
      px      :     0.018423
      py      :     0.018423
      dz2     :     0.909968  d :     3.801360
      dxz     :     0.947969
      dyz     :     0.947969
      dx2y2   :     0.990711
      dxy     :     0.004743
      f0      :     0.002746  f :     0.014725
      f+1     :     0.002472
      f-1     :     0.002472
      f+2     :     0.002711
      f-2     :     0.001729
      f+3     :     0.001297
      f-3     :     0.001297
      g0      :     0.000198  g :     0.001469
      g+1     :     0.000194
      g-1     :     0.000194
      g+2     :     0.000190
      g-2     :     0.000172
      g+3     :     0.000154
      g-3     :     0.000154
      g+4     :     0.000108
      g-4     :     0.000107
  1 Cls       :     0.006425  s :     0.006425
      pz      :     0.058735  p :     0.116878
      px      :     0.029071
      py      :     0.029071
      dz2     :     0.005393  d :     0.010215
      dxz     :     0.002176
      dyz     :     0.002176
      dx2y2   :     0.000389
      dxy     :     0.000080
      f0      :     0.000782  f :     0.001683
      f+1     :     0.000407
      f-1     :     0.000407
      f+2     :     0.000056
      f-2     :    -0.000003
      f+3     :     0.000018
      f-3     :     0.000018


                      *****************************
                      * MAYER POPULATION ANALYSIS *
                      *****************************

  NA   - Mulliken gross atomic population
  ZA   - Total nuclear charge
  QA   - Mulliken gross atomic charge
  VA   - Mayer's total valence
  BVA  - Mayer's bonded valence
  FA   - Mayer's free valence

  ATOM       NA         ZA         QA         VA         BVA        FA
  0 Fe    25.5446    26.0000     0.4554     6.1288     0.8955     5.2333
  1 Cl    17.4554    17.0000    -0.4554     1.5639     0.8955     0.6684

  Mayer bond orders larger than 0.100000
B(  0-Fe,  1-Cl) :   0.8955 



------------------------------------------------------------------------------- 
                                     TIMINGS                                   
------------------------------------------------------------------------------- 


Total execution time                   ...       25.373 sec

Fock Matrix Formation                  ...        0.297 sec (  1.2%)
Initial Guess                          ...        0.043 sec (  0.2%)
DIIS Solver                            ...        1.742 sec (  6.9%)
State Vector Update                    ...        0.082 sec (  0.3%)
Sigma-vector construction              ...       17.355 sec ( 68.4%)
  <0|H|D>                              ...        0.004 sec (  0.0% of sigma)
  <D|H|D>(0-ext Fock)                  ...        0.038 sec (  0.2% of sigma)
  <D|H|D>(0-ext)                       ...        0.214 sec (  1.2% of sigma)
  <D|H|D>(2-ext Fock)                  ...        0.009 sec (  0.1% of sigma)
  <D|H|D>(2-ext)                       ...        0.516 sec (  3.0% of sigma)
  <D|H|D>(4-ext)                       ...        8.098 sec ( 46.7% of sigma)
  <S|H|0>                              ...        0.914 sec (  5.3% of sigma)
  <S|H|S>                              ...        0.002 sec (  0.0% of sigma)
  <S|H|D>(1-ext)                       ...        0.010 sec (  0.1% of sigma)
  <D|H|S>(1-ext)                       ...        0.133 sec (  0.8% of sigma)
  Fock-dressing                        ...        2.623 sec ( 15.1% of sigma)
  (ik|jl)-dressing                     ...        0.292 sec (  1.7% of sigma)
  (ij|ab),(ia|jb)-dressing             ...        3.576 sec ( 20.6% of sigma)
  Pair energies                        ...        0.008 sec (  0.0% of sigma)
Total Time for computing (T)           ...        3.259 sec ( 12.8% of ALL)
  I/O of integral and amplitudes       ...        0.661 sec ( 20.3% of (T))
  External N**7 contributions          ...        0.891 sec ( 27.3% of (T))
  Internal N**7 contributions          ...        0.458 sec ( 14.1% of (T))
  N**6 triples energy contributions    ...        1.223 sec ( 37.5% of (T))

----- Orbital basis set information -----
Your calculation utilizes the basis: def2-QZVPP
   F. Weigend and R. Ahlrichs, Phys. Chem. Chem. Phys. 7, 3297 (2005).

----- AuxJ basis set information -----
Your calculation utilizes the auxiliary basis: def2/J
   F. Weigend, Phys. Chem. Chem. Phys. 8, 1057 (2006).

----- AuxC basis set information -----
Your calculation utilizes the auxiliary basis: def2-QZVPP/C
  H-La, Hf-Rn : A. Hellweg, C. Hattig, S. Hofener and W. Klopper, Theor. Chem. Acc. 117, 587 (2007).
        Ce-Lu : J. Chmela and M. E. Harding, Mol. Phys. (2018).

----- AuxJK basis set information -----
Your calculation utilizes the auxiliary basis: def2/JK
   H-Ba, Hf-Rn: F. Weigend, J. Comput. Chem. 29, 167 (2008).

All done

                     -----------------------------------------
                     Extrapolated Energy 2 Basis=  def2-QZVPP
                     -----------------------------------------

---------------------------------
CARTESIAN COORDINATES (ANGSTROEM)
---------------------------------
  Fe     0.000000    0.000000   -0.088949
  Cl     0.000000    0.000000    2.088949

----------------------------
CARTESIAN COORDINATES (A.U.)
----------------------------
  NO LB      ZA    FRAG     MASS         X           Y           Z
   0 Fe   26.0000    0    55.850    0.000000    0.000000   -0.168089
   1 Cl   17.0000    0    35.453    0.000000    0.000000    3.947541

--------------------------------
INTERNAL COORDINATES (ANGSTROEM)
--------------------------------
 Fe     0   0   0     0.000000000000     0.00000000     0.00000000
 Cl     1   0   0     2.177897854182     0.00000000     0.00000000

---------------------------
INTERNAL COORDINATES (A.U.)
---------------------------
 Fe     0   0   0     0.000000000000     0.00000000     0.00000000
 Cl     1   0   0     4.115630492058     0.00000000     0.00000000

---------------------
BASIS SET INFORMATION
---------------------
There are 2 groups of distinct atoms

 Group   1 Type Fe  : 24s18p10d4f2g contracted to 11s6p5d4f2g pattern {114111111111/951111/61111/1111/11}
 Group   2 Type Cl  : 20s14p4d2f1g contracted to 9s6p4d2f1g pattern {1031111111/821111/1111/11/1}

Atom   0Fe   basis set group =>   1
Atom   1Cl   basis set group =>   2
---------------------------------
AUXILIARY/J BASIS SET INFORMATION
---------------------------------
There are 2 groups of distinct atoms

 Group   1 Type Fe  : 19s5p5d3f3g contracted to 8s5p5d2f3g pattern {121111111/11111/11111/21/111}
 Group   2 Type Cl  : 14s5p5d2f1g contracted to 8s4p3d1f1g pattern {71111111/2111/311/2/1}

Atom   0Fe   basis set group =>   1
Atom   1Cl   basis set group =>   2
---------------------------------
AUXILIARY/C BASIS SET INFORMATION
---------------------------------
There are 2 groups of distinct atoms

 Group   1 Type Fe  : 15s13p11d8f7g5h2i contracted to 15s13p11d8f7g5h2i pattern {111111111111111/1111111111111/11111111111/11111111/1111111/11111/11}
 Group   2 Type Cl  : 12s10p9d6f3g1h contracted to 12s10p9d6f3g1h pattern {111111111111/1111111111/111111111/111111/111/1}

Atom   0Fe   basis set group =>   1
Atom   1Cl   basis set group =>   2
----------------------------------
AUXILIARY/JK BASIS SET INFORMATION
----------------------------------
There are 2 groups of distinct atoms

 Group   1 Type Fe  : 19s14p12d10f7g3h1i contracted to 16s13p11d9f5g3h1i pattern {4111111111111111/2111111111111/21111111111/211111111/31111/111/1}
 Group   2 Type Cl  : 16s12p10d4f1g contracted to 13s11p9d4f1g pattern {4111111111111/21111111111/211111111/1111/1}

Atom   0Fe   basis set group =>   1
Atom   1Cl   basis set group =>   2

Checking for AutoStart:
The File: 33_FeCl.gbw exists
Trying to determine its content:
     ... Fine, the file contains calculation information
     ... Fine, the calculation information was read
     ... Fine, the file contains a basis set
     ... Fine, the basis set was read
     ... Fine, the file contains a geometry
     ... Fine, the geometry was read
     ... Fine, the file contains a set of orbitals
     ... Fine, the orbitals can be read
     => possible old guess file was deleted
     => GBW file was renamed to GES file
     => GES file is set as startup file
     => Guess is set to MORead
     ... now leaving AutoStart



           ************************************************************
           *        Program running with 24 parallel MPI-processes    *
           *              working on a common directory               *
           ************************************************************
------------------------------------------------------------------------------
                           ORCA GTO INTEGRAL CALCULATION
------------------------------------------------------------------------------

                         BASIS SET STATISTICS AND STARTUP INFO

 # of primitive gaussian shells          ...   99
 # of primitive gaussian functions       ...  279
 # of contracted shells                  ...   50
 # of contracted basis functions         ...  170
 Highest angular momentum                ...    4
 Maximum contraction depth               ...   11
 Integral package used                   ... LIBINT
 Integral threshhold            Thresh   ...  1.000e-12
 Primitive cut-off              TCut     ...  1.000e-14


------------------------------ INTEGRAL EVALUATION ----------------------------


 * One electron integrals 
 Pre-screening matrix                    ... done
 Shell pair data                         ... done (   0.000 sec)



           ************************************************************
           *        Program running with 24 parallel MPI-processes    *
           *              working on a common directory               *
           ************************************************************
-------------------------------------------------------------------------------
                                 ORCA SCF
-------------------------------------------------------------------------------

------------
SCF SETTINGS
------------
Hamiltonian:
 Ab initio Hamiltonian  Method          .... Hartree-Fock(GTOs)


General Settings:
 Integral files         IntName         .... 33_FeCl
 Hartree-Fock type      HFTyp           .... UHF
 Total Charge           Charge          ....    0
 Multiplicity           Mult            ....    6
 Number of Electrons    NEL             ....   43
 Basis Dimension        Dim             ....  170
 Nuclear Repulsion      ENuc            ....    107.3954527387 Eh

Convergence Acceleration:
[...]
  6  -1722.797966589     -0.739107088     -0.000186009      0.000398548    5.61      0.092837603
  7  -1722.798035441     -0.739175940     -0.000068852      0.000195933    5.70      0.093747173
  8  -1722.798051958     -0.739192457     -0.000016517      0.000102392    5.62      0.093866400
  9  -1722.798047293     -0.739187792      0.000004664      0.000043573    5.63      0.093775388
 10  -1722.798051911     -0.739192410     -0.000004617      0.000013978    5.57      0.093779543
 11  -1722.798047751     -0.739188250      0.000004159      0.000004644    5.60      0.093744126
 12  -1722.798048750     -0.739189248     -0.000000998      0.000003404    5.57      0.093751085
 13  -1722.798048644     -0.739189142      0.000000106      0.000001577    5.53      0.093750034
 14  -1722.798049029     -0.739189527     -0.000000385      0.000000911    5.50      0.093752881
               --- The Coupled-Cluster iterations have converged ---

----------------------
COUPLED CLUSTER ENERGY
----------------------

E(0)                                       ...  -1722.058859501
E(CORR)                                    ...     -0.739189527
E(TOT)                                     ...  -1722.798049029
Singles norm <S|S>**1/2                    ...      0.093752881 ( 0.051191508, 0.042561373)  
T1 diagnostic                              ...      0.019548827                              

------------------
LARGEST AMPLITUDES
------------------
  16b-> 35b  -1b-> -1b       0.038960
  16b-> 27b  -1b-> -1b       0.036464
  17b-> 33b  -1b-> -1b       0.035658
  18b-> 32b  -1b-> -1b       0.035658
  18b-> 30b  -1b-> -1b       0.033876
  17b-> 29b  -1b-> -1b       0.033876
  23a-> 26a  -1a-> -1a       0.028331
  16b-> 36b  -1b-> -1b       0.025789
  23a-> 39a  -1a-> -1a       0.025274
  18b-> 43b  17b-> 42b       0.025175
  18b-> 42b  17b-> 43b       0.025175
  23a-> 32a  -1a-> -1a       0.024883
  22a-> 43a  21a-> 44a       0.024285
  22a-> 44a  21a-> 43a       0.024285
  21a-> 43a  17b-> 43b       0.022780
  22a-> 43a  18b-> 43b       0.022780

----------------------
UHF TRIPLES CORRECTION (Algorithm 1)
----------------------

Multiplier for the singles contribution    ...      1.000000000

SPIN-CASE Alpha-Alpha-Alpha:
10% done
20% done
30% done
40% done
50% done
60% done
70% done
80% done
90% done


SPIN-CASE Beta-Beta-Beta:
10% done
20% done
30% done
40% done
50% done
60% done
70% done
80% done
90% done


SPIN-CASE Alpha-Alpha-Beta:
10% done
20% done
30% done
40% done
50% done
60% done
70% done
80% done
90% done


SPIN-CASE Beta-Beta-Alpha:
10% done
20% done
30% done
40% done
50% done
60% done
70% done
80% done
90% done


Triples Correction (T)                     ...     -0.025480169
    alpha-alpha-alpha ... -0.001997791 (  7.8%)
    alpha-alpha-beta  ... -0.013712390 ( 53.8%)
    alpha-beta -beta  ... -0.009214925 ( 36.2%)
    beta -beta -beta  ... -0.000555063 (  2.2%)
Scaling of triples based on CCSD energies (Peterson et al. Molecular Physics 113, 1551 (2015))
E(T*) = f*E(T) where f = E(F12-CCSD)/E(CCSD) 
f = CCSD (with F12)/ CCSD (without F12)    ...      1.000000000
Scaled triples correction (T)              ...     -0.025480169

Final correlation energy                   ...     -0.764669697
E(CCSD)                                    ...  -1722.798049029
E(CCSD(T))                                 ...  -1722.823529198



        !!!!!!!!!!!!!!!!!!!!!!!!!!!!!!!!!!!!!!!!!!!!!!!!!!!!!!!!!!!!!!!!!!!!!!!!!! 
        !  Warning: Densities are linearized densities                           !
        !!!!!!!!!!!!!!!!!!!!!!!!!!!!!!!!!!!!!!!!!!!!!!!!!!!!!!!!!!!!!!!!!!!!!!!!!! 

NORM  =      1.185478801 sqrt=     1.088796951
W(HF) =      0.843541023
------------------------------------------------------------------------------
                           ORCA POPULATION ANALYSIS
------------------------------------------------------------------------------
Input electron density              ... 33_FeCl.mdcip
Input spin density                  ... 33_FeCl.mdcir
BaseName (.gbw .S,...)              ... 33_FeCl

                    ********************************
                    * MULLIKEN POPULATION ANALYSIS *
                    ********************************

------------------------------------------
MULLIKEN ATOMIC CHARGES AND SPIN DENSITIES
------------------------------------------
   0 Fe:    0.453562    4.899406
   1 Cl:   -0.453562    0.100594
Sum of atomic charges       :   -0.0000000
Sum of atomic spin densities:    5.0000000

---------------------------------------------------
MULLIKEN REDUCED ORBITAL CHARGES AND SPIN DENSITIES
---------------------------------------------------
CHARGE
  0 Fes       :     6.940091  s :     6.940091
      pz      :     4.300204  p :    12.396260
      px      :     4.048028
      py      :     4.048028
      dz2     :     1.060073  d :     6.150353
      dxz     :     1.052230
      dyz     :     1.052230
      dx2y2   :     1.000489
      dxy     :     1.985330
      f0      :     0.009125  f :     0.055301
      f+1     :     0.013004
      f-1     :     0.013004
      f+2     :     0.004241
      f-2     :     0.005221
      f+3     :     0.005353
      f-3     :     0.005353
      g0      :     0.000542  g :     0.004433
      g+1     :     0.000499
      g-1     :     0.000499
      g+2     :     0.000406
      g-2     :     0.000506
      g+3     :     0.000472
      g-3     :     0.000472
      g+4     :     0.000519
      g-4     :     0.000519
  1 Cls       :     5.938301  s :     5.938301
      pz      :     3.672814  p :    11.360273
      px      :     3.843729
      py      :     3.843729
      dz2     :     0.032604  d :     0.135070
      dxz     :     0.029130
      dyz     :     0.029130
      dx2y2   :     0.021918
      dxy     :     0.022288
      f0      :     0.003212  f :     0.017159
      f+1     :     0.003168
      f-1     :     0.003168
      f+2     :     0.001990
      f-2     :     0.002109
      f+3     :     0.001755
      f-3     :     0.001755
      g0      :     0.000402  g :     0.002757
      g+1     :     0.000369
      g-1     :     0.000369
      g+2     :     0.000288
      g-2     :     0.000300
      g+3     :     0.000262
      g-3     :     0.000262
      g+4     :     0.000252
      g-4     :     0.000252

SPIN
  0 Fes       :     0.798652  s :     0.798652
      pz      :     0.237914  p :     0.272958
      px      :     0.017522
      py      :     0.017522
      dz2     :     0.913514  d :     3.810738
      dxz     :     0.951068
      dyz     :     0.951068
      dx2y2   :     0.990129
      dxy     :     0.004959
      f0      :     0.003060  f :     0.015138
      f+1     :     0.002322
      f-1     :     0.002322
      f+2     :     0.002932
      f-2     :     0.001840
      f+3     :     0.001331
      f-3     :     0.001331
      g0      :     0.000252  g :     0.001921
      g+1     :     0.000252
      g-1     :     0.000252
      g+2     :     0.000251
      g-2     :     0.000227
      g+3     :     0.000202
      g-3     :     0.000202
      g+4     :     0.000142
      g-4     :     0.000142
  1 Cls       :    -0.001945  s :    -0.001945
      pz      :     0.041931  p :     0.100206
      px      :     0.029137
      py      :     0.029137
      dz2     :     0.000148  d :     0.001379
      dxz     :     0.000367
      dyz     :     0.000367
      dx2y2   :     0.000397
      dxy     :     0.000100
      f0      :     0.000298  f :     0.000851
      f+1     :     0.000223
      f-1     :     0.000223
      f+2     :     0.000080
      f-2     :    -0.000013
      f+3     :     0.000020
      f-3     :     0.000020
      g0      :     0.000042  g :     0.000102
      g+1     :     0.000028
      g-1     :     0.000028
      g+2     :     0.000007
      g-2     :    -0.000002
      g+3     :    -0.000000
      g-3     :    -0.000000
      g+4     :    -0.000000
      g-4     :    -0.000000


                     *******************************
                     * LOEWDIN POPULATION ANALYSIS *
                     *******************************

-----------------------------------------
LOEWDIN ATOMIC CHARGES AND SPIN DENSITIES
-----------------------------------------
   0 Fe:   -0.270586    4.846544
   1 Cl:    0.270586    0.153456

--------------------------------------------------
LOEWDIN REDUCED ORBITAL CHARGES AND SPIN DENSITIES
--------------------------------------------------
CHARGE
  0 Fes       :     6.890604  s :     6.890604
      pz      :     4.515187  p :    12.679291
      px      :     4.082052
      py      :     4.082052
      dz2     :     1.218804  d :     6.444236
      dxz     :     1.120301
      dyz     :     1.120301
      dx2y2   :     1.000296
      dxy     :     1.984535
      f0      :     0.084289  f :     0.251435
      f+1     :     0.073236
      f-1     :     0.073236
      f+2     :     0.004497
      f-2     :     0.005468
      f+3     :     0.005354
      f-3     :     0.005354
      g0      :     0.000872  g :     0.005020
      g+1     :     0.000626
      g-1     :     0.000626
      g+2     :     0.000406
      g-2     :     0.000507
      g+3     :     0.000472
      g-3     :     0.000472
      g+4     :     0.000519
      g-4     :     0.000519
  1 Cls       :     5.529055  s :     5.529055
      pz      :     3.657282  p :    11.020083
      px      :     3.681401
      py      :     3.681401
      dz2     :     0.050091  d :     0.149016
      dxz     :     0.027421
      dyz     :     0.027421
      dx2y2   :     0.021717
      dxy     :     0.022367
      f0      :     0.010291  f :     0.027600
      f+1     :     0.004579
      f-1     :     0.004579
      f+2     :     0.002111
      f-2     :     0.002530
      f+3     :     0.001754
      f-3     :     0.001754
      g0      :     0.000893  g :     0.003660
      g+1     :     0.000541
      g-1     :     0.000541
      g+2     :     0.000306
      g-2     :     0.000348
      g+3     :     0.000262
      g-3     :     0.000262
      g+4     :     0.000252
      g-4     :     0.000252

SPIN
  0 Fes       :     0.704536  s :     0.704536
      pz      :     0.292147  p :     0.331000
      px      :     0.019427
      py      :     0.019427
      dz2     :     0.908344  d :     3.789050
      dxz     :     0.942858
      dyz     :     0.942858
      dx2y2   :     0.989830
      dxy     :     0.005159
      f0      :     0.004725  f :     0.020016
      f+1     :     0.003923
      f-1     :     0.003923
      f+2     :     0.002933
      f-2     :     0.001850
      f+3     :     0.001331
      f-3     :     0.001331
      g0      :     0.000274  g :     0.001942
      g+1     :     0.000252
      g-1     :     0.000252
      g+2     :     0.000250
      g-2     :     0.000226
      g+3     :     0.000202
      g-3     :     0.000202
      g+4     :     0.000142
      g-4     :     0.000142
  1 Cls       :     0.008753  s :     0.008753
      pz      :     0.065676  p :     0.121789
      px      :     0.028057
      py      :     0.028057
      dz2     :     0.006948  d :     0.015559
      dxz     :     0.004053
      dyz     :     0.004053
      dx2y2   :     0.000516
      dxy     :    -0.000011
      f0      :     0.002149  f :     0.006603
      f+1     :     0.002139
      f-1     :     0.002139
      f+2     :     0.000240
      f-2     :    -0.000103
      f+3     :     0.000020
      f-3     :     0.000020
      g0      :     0.000316  g :     0.000752
      g+1     :     0.000210
      g-1     :     0.000210
      g+2     :     0.000026
      g-2     :    -0.000010
      g+3     :    -0.000000
      g-3     :    -0.000000
      g+4     :    -0.000000
      g-4     :    -0.000000


                      *****************************
                      * MAYER POPULATION ANALYSIS *
                      *****************************

  NA   - Mulliken gross atomic population
  ZA   - Total nuclear charge
  QA   - Mulliken gross atomic charge
  VA   - Mayer's total valence
  BVA  - Mayer's bonded valence
  FA   - Mayer's free valence

  ATOM       NA         ZA         QA         VA         BVA        FA
  0 Fe    25.5464    26.0000     0.4536     6.1477     0.8861     5.2617
  1 Cl    17.4536    17.0000    -0.4536     1.5868     0.8861     0.7007

  Mayer bond orders larger than 0.100000
B(  0-Fe,  1-Cl) :   0.8861 



------------------------------------------------------------------------------- 
                                     TIMINGS                                   
------------------------------------------------------------------------------- 


Total execution time                   ...      118.987 sec

Fock Matrix Formation                  ...        1.241 sec (  1.0%)
Initial Guess                          ...        0.124 sec (  0.1%)
DIIS Solver                            ...        5.429 sec (  4.6%)
State Vector Update                    ...        0.243 sec (  0.2%)
Sigma-vector construction              ...       76.947 sec ( 64.7%)
  <0|H|D>                              ...        0.013 sec (  0.0% of sigma)
  <D|H|D>(0-ext Fock)                  ...        0.140 sec (  0.2% of sigma)
  <D|H|D>(0-ext)                       ...        0.803 sec (  1.0% of sigma)
  <D|H|D>(2-ext Fock)                  ...        0.044 sec (  0.1% of sigma)
  <D|H|D>(2-ext)                       ...        2.369 sec (  3.1% of sigma)
  <D|H|D>(4-ext)                       ...       40.218 sec ( 52.3% of sigma)
  <S|H|0>                              ...        5.144 sec (  6.7% of sigma)
  <S|H|S>                              ...        0.005 sec (  0.0% of sigma)
  <S|H|D>(1-ext)                       ...        0.028 sec (  0.0% of sigma)
  <D|H|S>(1-ext)                       ...        0.417 sec (  0.5% of sigma)
  Fock-dressing                        ...       11.312 sec ( 14.7% of sigma)
  (ik|jl)-dressing                     ...        0.915 sec (  1.2% of sigma)
  (ij|ab),(ia|jb)-dressing             ...       12.886 sec ( 16.7% of sigma)
  Pair energies                        ...        0.017 sec (  0.0% of sigma)
Total Time for computing (T)           ...       23.155 sec ( 19.5% of ALL)
  I/O of integral and amplitudes       ...        3.921 sec ( 16.9% of (T))
  External N**7 contributions          ...        8.762 sec ( 37.8% of (T))
  Internal N**7 contributions          ...        2.690 sec ( 11.6% of (T))
  N**6 triples energy contributions    ...        7.609 sec ( 32.9% of (T))


-------------------
EXTRAPOLATED ENERGY
-------------------


-----------------------------------------------------------------
                      EP1 - MDCI extrapolation:
-----------------------------------------------------------------
NOTE: We use as reference SCF energy, for the extrapolation, the one from the MDCI module and not the one 
from the SCF calculation. In case the first step is a DFT calculation these two might be different.

NOTE: For the SCF part we extrapolate based on the scheme proposed in J. Chem. Phys. 2008, 129, 184116
using the exponents from J. Chem. Theory Comput., 7, 33-43 (2011)

NOTE: For the correlation part we extrapolate based on the scheme proposed in J. Chem. Phys. 1997, 106, 9639
using the exponents from J. Chem. Theory Comput., 7, 33-43 (2011)


Alpha(3/4)     :  7.880 (SCF Extrapolation)
Beta(3/4)      :  2.970 (correlation extrapolation)

SCF energy with basis def2-TZVPP:                     -1722.019339806
SCF energy with basis def2-QZVPP:                     -1722.058859501
Extrapolated CBS SCF energy (3/4) :                   -1722.064302892 (-0.005443391) 

MDCI energy with basis def2-TZVPP:                       -0.721395707
MDCI energy with basis def2-QZVPP:                       -0.764669697
Extrapolated CBS correlation energy (3/4) :              -0.796724480 (-0.032054784)

Estimated CBS total energy (3/4) :                    -1722.861027372



-------------------------   --------------------
FINAL SINGLE POINT ENERGY     -1722.861027372478
-------------------------   --------------------


                            ***************************************
                            *     ORCA property calculations      *
                            ***************************************

                                    ---------------------
                                    Active property flags
                                    ---------------------
   (+) Dipole Moment


------------------------------------------------------------------------------
                       ORCA ELECTRIC PROPERTIES CALCULATION
------------------------------------------------------------------------------

Dipole Moment Calculation                       ... on
Quadrupole Moment Calculation                   ... off
Polarizability Calculation                      ... off
GBWName                                         ... 33_FeCl.gbw
Electron density file                           ... 33_FeCl.scfp
The origin for moment calculation is the CENTER OF MASS  = ( 0.000000,  0.000000  1.430012)

-------------
DIPOLE MOMENT
-------------
                                X             Y             Z
Electronic contribution:      0.00000      -0.00000      -2.33379
Nuclear contribution   :      0.00000       0.00000       1.24736
                        -----------------------------------------
Total Dipole Moment    :      0.00000      -0.00000      -1.08643
                        -----------------------------------------
Magnitude (a.u.)       :      1.08643
Magnitude (Debye)      :      2.76148



--------------------
Rotational spectrum 
--------------------
 
Rotational constants in cm-1:     0.000000     0.163882     0.163882 
Rotational constants in MHz :     0.000000  4913.053230  4913.053230 

 Dipole components along the rotational axes: 
x,y,z [a.u.] :    -1.086429    -0.000000     0.000000 
x,y,z [Debye]:    -2.761482    -0.000000     0.000000 

 

                           *** MDCI DENSITY ***

------------------------------------------------------------------------------
                       ORCA ELECTRIC PROPERTIES CALCULATION
------------------------------------------------------------------------------

Dipole Moment Calculation                       ... on
Quadrupole Moment Calculation                   ... off
Polarizability Calculation                      ... off
GBWName                                         ... 33_FeCl.gbw
Electron density file                           ... 33_FeCl.mdcip
The origin for moment calculation is the CENTER OF MASS  = ( 0.000000,  0.000000  1.430012)

-------------
DIPOLE MOMENT
-------------
                                X             Y             Z
Electronic contribution:     -0.00000      -0.00000      -2.17009
Nuclear contribution   :      0.00000       0.00000       1.24736
                        -----------------------------------------
Total Dipole Moment    :     -0.00000      -0.00000      -0.92273
                        -----------------------------------------
Magnitude (a.u.)       :      0.92273
Magnitude (Debye)      :      2.34539



--------------------
Rotational spectrum 
--------------------
 
Rotational constants in cm-1:     0.000000     0.163882     0.163882 
Rotational constants in MHz :     0.000000  4913.053230  4913.053230 

 Dipole components along the rotational axes: 
x,y,z [a.u.] :    -0.922727    -0.000000    -0.000000 
x,y,z [Debye]:    -2.345386    -0.000000    -0.000000 

 

Timings for individual modules:

Sum of individual times         ...      158.399 sec (=   2.640 min)
GTO integral calculation        ...        1.503 sec (=   0.025 min)   0.9 %
SCF iterations                  ...       10.572 sec (=   0.176 min)   6.7 %
MDCI module                     ...      146.325 sec (=   2.439 min)  92.4 %
                             ****ORCA TERMINATED NORMALLY****
TOTAL RUN TIME: 0 days 0 hours 2 minutes 39 seconds 390 msec
