
                                 *****************
                                 * O   R   C   A *
                                 *****************

           --- An Ab Initio, DFT and Semiempirical electronic structure package ---

                  #######################################################
                  #                        -***-                        #
                  #          Department of theory and spectroscopy      #
                  #               Directorship: Frank Neese             #
                  #        Max Planck Institute fuer Kohlenforschung    #
                  #                Kaiser Wilhelm Platz 1               #
                  #                 D-45470 Muelheim/Ruhr               #
                  #                      Germany                        #
                  #                                                     #
                  #                  All rights reserved                #
                  #                        -***-                        #
                  #######################################################


                         Program Version 4.2.0 -  RELEASE  -


 With contributions from (in alphabetic order):
   Daniel Aravena         : Magnetic Suceptibility
   Michael Atanasov       : Ab Initio Ligand Field Theory (pilot matlab implementation)
   Alexander A. Auer      : GIAO ZORA, VPT2
   Ute Becker             : Parallelization
   Giovanni Bistoni       : ED, misc. LED, open-shell LED, HFLED
   Martin Brehm           : Molecular dynamics
   Dmytro Bykov           : SCF Hessian
   Vijay G. Chilkuri      : MRCI spin determinant printing, contributions to CSF-ICE
   Dipayan Datta          : RHF DLPNO-CCSD density
   Achintya Kumar Dutta   : EOM-CC, STEOM-CC
   Dmitry Ganyushin       : Spin-Orbit,Spin-Spin,Magnetic field MRCI
   Miquel Garcia          : C-PCM Hessian, Gaussian charge scheme
   Yang Guo               : DLPNO-NEVPT2, CIM, IAO-localization
   Andreas Hansen         : Spin unrestricted coupled pair/coupled cluster methods
   Benjamin Helmich-Paris : CASSCF linear response (MC-RPA)
   Lee Huntington         : MR-EOM, pCC
   Robert Izsak           : Overlap fitted RIJCOSX, COSX-SCS-MP3, EOM
   Christian Kollmar      : KDIIS, OOCD, Brueckner-CCSD(T), CCSD density
   Simone Kossmann        : Meta GGA functionals, TD-DFT gradient, OOMP2, MP2 Hessian
   Martin Krupicka        : AUTO-CI
   Lucas Lang             : DCDCAS
   Dagmar Lenk            : GEPOL surface, SMD
   Dimitrios Liakos       : Extrapolation schemes; Compound Job, initial MDCI parallelization
   Dimitrios Manganas     : Further ROCIS development; embedding schemes
   Dimitrios Pantazis     : SARC Basis sets
   Taras Petrenko         : DFT Hessian,TD-DFT gradient, ASA, ECA, R-Raman, ABS, FL, XAS/XES, NRVS
   Peter Pinski           : DLPNO-MP2, DLPNO-MP2 Gradient
   Christoph Reimann      : Effective Core Potentials
   Marius Retegan         : Local ZFS, SOC
   Christoph Riplinger    : Optimizer, TS searches, QM/MM, DLPNO-CCSD(T), (RO)-DLPNO pert. Triples
   Tobias Risthaus        : Range-separated hybrids, TD-DFT gradient, RPA, STAB
   Michael Roemelt        : Original ROCIS implementation
   Masaaki Saitow         : Open-shell DLPNO-CCSD energy and density
   Barbara Sandhoefer     : DKH picture change effects
   Avijit Sen             : IP-ROCIS
   Kantharuban Sivalingam : CASSCF convergence, NEVPT2, FIC-MRCI
   Bernardo de Souza      : ESD, SOC TD-DFT
   Georgi Stoychev        : AutoAux, RI-MP2 NMR
   Willem Van den Heuvel  : Paramagnetic NMR
   Boris Wezisla          : Elementary symmetry handling
   Frank Wennmohs         : Technical directorship


 We gratefully acknowledge several colleagues who have allowed us to
 interface, adapt or use parts of their codes:
   Stefan Grimme, W. Hujo, H. Kruse,             : VdW corrections, initial TS optimization,
                  C. Bannwarth                     DFT functionals, gCP, sTDA/sTD-DF
   Ed Valeev, F. Pavosevic, A. Kumar             : LibInt (2-el integral package), F12 methods
   Garnet Chan, S. Sharma, J. Yang, R. Olivares  : DMRG
   Ulf Ekstrom                                   : XCFun DFT Library
   Mihaly Kallay                                 : mrcc  (arbitrary order and MRCC methods)
   Andreas Klamt, Michael Diedenhofen            : otool_cosmo (COSMO solvation model)
   Jiri Pittner, Ondrej Demel                    : Mk-CCSD
   Frank Weinhold                                : gennbo (NPA and NBO analysis)
   Christopher J. Cramer and Donald G. Truhlar   : smd solvation model
   Lars Goerigk                                  : TD-DFT with DH, B97 family of functionals
   V. Asgeirsson, H. Jonsson                     : NEB implementation
   FAccTs GmbH                                   : IRC, NEB, NEB-TS, Multilevel, MM, QM/MM, CI optimization
   S Lehtola, MJT Oliveira, MAL Marques          : LibXC Library


 Your calculation uses the libint2 library for the computation of 2-el integrals
 For citations please refer to: http://libint.valeyev.net

 Your ORCA version has been built with support for libXC version: 4.2.3
 For citations please refer to: https://tddft.org/programs/libxc/

 This ORCA versions uses:
   CBLAS   interface :  Fast vector & matrix operations
   LAPACKE interface :  Fast linear algebra routines
   SCALAPACK package :  Parallel linear algebra routines


----- Orbital basis set information -----
Your calculation utilizes the basis: def2-TZVPP
   F. Weigend and R. Ahlrichs, Phys. Chem. Chem. Phys. 7, 3297 (2005).

================================================================================
                                        WARNINGS
                       Please study these warnings very carefully!
================================================================================


WARNING: your system is open-shell and RHF/RKS was chosen
  ===> : WILL SWITCH to UHF/UKS


WARNING: MDCI localization with Augmented Hessian Foster-Boys
  ===> : Switching off randomization!

WARNING: Post HF methods need fully converged wavefunctions
  ===> : Setting SCFConvForced true
         You can overwrite this default with %scf ConvForced false 


INFO   : the flag for use of LIBINT has been found!

================================================================================
                                       INPUT FILE
================================================================================
NAME = 34_FeBr.in
|  1> #
|  2> # 34_FeBr ccsd(t)/cbs
|  3> #
|  4> ! ccsd(t) extrapolate(3/4,def2) verytightscf
|  5> 
|  6> *xyz 0 6
|  7>   Fe  0.00000000000000      0.00000000000000     -0.16252996889250
|  8>   Br  0.00000000000000      0.00000000000000      2.16252996889250
|  9> *
| 10> 
| 11> %maxcore 5000
| 12> %pal
| 13> nprocs 24
| 14> end
| 15> 
| 16> 
| 17>                          ****END OF INPUT****
================================================================================

                   *****************************************
                   * Extrapolated Single Point Calculation *
                   *****************************************

----- Orbital basis set information -----
Your calculation utilizes the basis: def2-TZVPP
   F. Weigend and R. Ahlrichs, Phys. Chem. Chem. Phys. 7, 3297 (2005).

----- AuxJ basis set information -----
Your calculation utilizes the auxiliary basis: def2/J
   F. Weigend, Phys. Chem. Chem. Phys. 8, 1057 (2006).

----- AuxC basis set information -----
Your calculation utilizes the auxiliary basis: def2-TZVPP/C
  H-La, Hf-Rn : A. Hellweg, C. Hattig, S. Hofener and W. Klopper, Theor. Chem. Acc. 117, 587 (2007).
        Ce-Lu : J. Chmela and M. E. Harding, Mol. Phys. (2018).

----- AuxJK basis set information -----
Your calculation utilizes the auxiliary basis: def2/JK
   H-Ba, Hf-Rn: F. Weigend, J. Comput. Chem. 29, 167 (2008).

All done

                     -----------------------------------------
                     Extrapolated Energy 1 Basis=  def2-TZVPP
                     -----------------------------------------

---------------------------------
CARTESIAN COORDINATES (ANGSTROEM)
---------------------------------
  Fe     0.000000    0.000000   -0.162530
  Br     0.000000    0.000000    2.162530

----------------------------
CARTESIAN COORDINATES (A.U.)
----------------------------
  NO LB      ZA    FRAG     MASS         X           Y           Z
   0 Fe   26.0000    0    55.850    0.000000    0.000000   -0.307137
   1 Br   35.0000    0    79.900    0.000000    0.000000    4.086589

--------------------------------
INTERNAL COORDINATES (ANGSTROEM)
--------------------------------
 Fe     0   0   0     0.000000000000     0.00000000     0.00000000
 Br     1   0   0     2.325059937785     0.00000000     0.00000000

---------------------------
INTERNAL COORDINATES (A.U.)
---------------------------
 Fe     0   0   0     0.000000000000     0.00000000     0.00000000
 Br     1   0   0     4.393726527366     0.00000000     0.00000000

---------------------
BASIS SET INFORMATION
---------------------
There are 2 groups of distinct atoms

 Group   1 Type Fe  : 17s12p7d2f1g contracted to 6s5p4d2f1g pattern {842111/63111/4111/11/1}
 Group   2 Type Br  : 17s13p8d1f contracted to 6s5p4d1f pattern {842111/64111/5111/1}

Atom   0Fe   basis set group =>   1
Atom   1Br   basis set group =>   2
---------------------------------
AUXILIARY/J BASIS SET INFORMATION
---------------------------------
There are 2 groups of distinct atoms

 Group   1 Type Fe  : 19s5p5d3f3g contracted to 8s5p5d2f3g pattern {121111111/11111/11111/21/111}
 Group   2 Type Br  : 19s5p5d3f1g contracted to 8s4p3d2f1g pattern {121111111/2111/311/21/1}

Atom   0Fe   basis set group =>   1
Atom   1Br   basis set group =>   2
---------------------------------
AUXILIARY/C BASIS SET INFORMATION
---------------------------------
There are 2 groups of distinct atoms

 Group   1 Type Fe  : 9s9p8d7f5g3h1i contracted to 9s9p8d7f5g3h1i pattern {111111111/111111111/11111111/1111111/11111/111/1}
 Group   2 Type Br  : 10s9p8d6f4g1h contracted to 10s9p8d5f4g1h pattern {1111111111/111111111/11111111/21111/1111/1}

Atom   0Fe   basis set group =>   1
Atom   1Br   basis set group =>   2
----------------------------------
AUXILIARY/JK BASIS SET INFORMATION
----------------------------------
There are 2 groups of distinct atoms

 Group   1 Type Fe  : 19s14p12d10f7g3h1i contracted to 16s13p11d9f5g3h1i pattern {4111111111111111/2111111111111/21111111111/211111111/31111/111/1}
 Group   2 Type Br  : 20s14p13d10f7g3h contracted to 17s13p12d9f6g3h pattern {41111111111111111/2111111111111/211111111111/211111111/211111/111}

Atom   0Fe   basis set group =>   1
Atom   1Br   basis set group =>   2


           ************************************************************
           *        Program running with 24 parallel MPI-processes    *
           *              working on a common directory               *
           ************************************************************
------------------------------------------------------------------------------
                           ORCA GTO INTEGRAL CALCULATION
------------------------------------------------------------------------------

                         BASIS SET STATISTICS AND STARTUP INFO

 # of primitive gaussian shells          ...   78
 # of primitive gaussian functions       ...  214
 # of contracted shells                  ...   34
 # of contracted basis functions         ...  112
 Highest angular momentum                ...    4
 Maximum contraction depth               ...    8
 Integral package used                   ... LIBINT
 Integral threshhold            Thresh   ...  1.000e-12
 Primitive cut-off              TCut     ...  1.000e-14


------------------------------ INTEGRAL EVALUATION ----------------------------


 * One electron integrals 
 Pre-screening matrix                    ... done
 Shell pair data                         ... done (   0.000 sec)



           ************************************************************
           *        Program running with 24 parallel MPI-processes    *
           *              working on a common directory               *
           ************************************************************
-------------------------------------------------------------------------------
                                 ORCA SCF
-------------------------------------------------------------------------------

------------
SCF SETTINGS
------------
Hamiltonian:
 Ab initio Hamiltonian  Method          .... Hartree-Fock(GTOs)


General Settings:
 Integral files         IntName         .... 34_FeBr
 Hartree-Fock type      HFTyp           .... UHF
 Total Charge           Charge          ....    0
 Multiplicity           Mult            ....    6
 Number of Electrons    NEL             ....   61
 Basis Dimension        Dim             ....  112
 Nuclear Repulsion      ENuc            ....    207.1134819912 Eh

Convergence Acceleration:
 DIIS                   CNVDIIS         .... on
   Start iteration      DIISMaxIt       ....    12
   Startup error        DIISStart       ....  0.200000
   # of expansion vecs  DIISMaxEq       ....     5
   Bias factor          DIISBfac        ....   1.050
   Max. coefficient     DIISMaxC        ....  10.000
 Newton-Raphson         CNVNR           .... off
 SOSCF                  CNVSOSCF        .... off
 Level Shifting         CNVShift        .... on
   Level shift para.    LevelShift      ....    0.2500
   Turn off err/grad.   ShiftErr        ....    0.0010
 Zerner damping         CNVZerner       .... off
 Static damping         CNVDamp         .... on
   Fraction old density DampFac         ....    0.7000
   Max. Damping (<1)    DampMax         ....    0.9800
   Min. Damping (>=0)   DampMin         ....    0.0000
   Turn off err/grad.   DampErr         ....    0.1000
 Fernandez-Rico         CNVRico         .... off

SCF Procedure:
 Maximum # iterations   MaxIter         ....   125
 SCF integral mode      SCFMode         .... Direct
   Integral package                     .... LIBINT
 Reset frequency        DirectResetFreq ....    20
 Integral Threshold     Thresh          ....  1.000e-12 Eh
 Primitive CutOff       TCut            ....  1.000e-14 Eh

Convergence Tolerance:
 Convergence Check Mode ConvCheckMode   .... Total+1el-Energy
 Convergence forced     ConvForced      .... 1
 Energy Change          TolE            ....  1.000e-09 Eh
 1-El. energy change                    ....  1.000e-06 Eh
 DIIS Error             TolErr          ....  1.000e-08


Diagonalization of the overlap matrix:
Smallest eigenvalue                        ... 9.834e-03
Time for diagonalization                   ...    0.018 sec
Threshold for overlap eigenvalues          ... 1.000e-08
Number of eigenvalues below threshold      ... 0
Time for construction of square roots      ...    0.002 sec
Total time needed                          ...    0.020 sec

-------------------
DFT GRID GENERATION
-------------------

General Integration Accuracy     IntAcc      ...  4.340
Radial Grid Type                 RadialGrid  ... Gauss-Chebyshev
Angular Grid (max. acc.)         AngularGrid ... Lebedev-110
Angular grid pruning method      GridPruning ... 3 (G Style)
Weight generation scheme         WeightScheme... Becke
Basis function cutoff            BFCut       ...    1.0000e-12
Integration weight cutoff        WCut        ...    1.0000e-14
Grids for H and He will be reduced by one unit

# of grid points (after initial pruning)     ...   5802 (   0.0 sec)
# of grid points (after weights+screening)   ...   5778 (   0.0 sec)
nearest neighbour list constructed           ...    0.0 sec
Grid point re-assignment to atoms done       ...    0.0 sec
Grid point division into batches done        ...    0.0 sec
Reduced shell lists constructed in    0.0 sec

Total number of grid points                  ...     5778
Total number of batches                      ...       92
Average number of points per batch           ...       62
Average number of grid points per atom       ...     2889
Average number of shells per batch           ...     8.40 (24.71%)
Average number of basis functions per batch  ...    25.20 (22.50%)
Average number of large shells per batch     ...     7.20 (85.71%)
Average number of large basis fcns per batch ...    21.60 (85.71%)
Maximum spatial batch extension              ...  18.98, 28.73, 16.29 au
Average spatial batch extension              ...   0.77,  1.05,  0.71 au

Time for grid setup =    0.024 sec

------------------------------
INITIAL GUESS: MODEL POTENTIAL
------------------------------
Loading Hartree-Fock densities                     ... done
Calculating cut-offs                               ... done
Setting up the integral package                    ... done
Initializing the effective Hamiltonian             ... done
Starting the Coulomb interaction                   ... done (   0.0 sec)
Reading the grid                                   ... done
Mapping shells                                     ... done
Starting the XC term evaluation                    ... done (   0.0 sec)
Transforming the Hamiltonian                       ... done (   0.0 sec)
Diagonalizing the Hamiltonian                      ... done (   0.0 sec)
Back transforming the eigenvectors                 ... done (   0.0 sec)
Now organizing SCF variables                       ... done
                      ------------------
                      INITIAL GUESS DONE (   0.1 sec)
                      ------------------
--------------
SCF ITERATIONS
--------------
ITER       Energy         Delta-E        Max-DP      RMS-DP      [F,P]     Damp
               ***  Starting incremental Fock matrix formation  ***
  0  -3834.7350784529   0.000000000000 0.02261507  0.00054337  0.1624786 0.7000
  1  -3834.7735406703  -0.038462217396 0.02115752  0.00050824  0.1005942 0.7000
                               ***Turning on DIIS***
  2  -3834.8064594938  -0.032918823455 0.05836503  0.00143291  0.0783679 0.0000
  3  -3834.8759210746  -0.069461580853 0.01930856  0.00056160  0.0354353 0.0000
  4  -3834.9426181613  -0.066697086613 0.01569359  0.00037694  0.0183457 0.0000
  5  -3834.9493438660  -0.006725704787 0.01050341  0.00020331  0.0079095 0.0000
  6  -3834.9329090976   0.016434768453 0.00634655  0.00011527  0.0030143 0.0000
  7  -3834.9354543597  -0.002545262141 0.00366517  0.00006657  0.0015856 0.0000
  8  -3834.9309081441   0.004546215678 0.00363548  0.00006135  0.0008353 0.0000
  9  -3834.9280736906   0.002834453482 0.00068289  0.00001336  0.0003068 0.0000
 10  -3834.9281316277  -0.000057937143 0.00024926  0.00000545  0.0000954 0.0000
 11  -3834.9267016277   0.001430000012 0.00009250  0.00000315  0.0000796 0.0000
 12  -3834.9273443701  -0.000642742445 0.00004011  0.00000115  0.0000164 0.0000
 13  -3834.9272188582   0.000125511960 0.00001412  0.00000040  0.0000051 0.0000
 14  -3834.9272307867  -0.000011928469 0.00000702  0.00000022  0.0000017 0.0000
 15  -3834.9272295666   0.000001220100 0.00000392  0.00000009  0.0000006 0.0000
 16  -3834.9272299723  -0.000000405790 0.00000198  0.00000005  0.0000003 0.0000
 17  -3834.9272306907  -0.000000718341 0.00000051  0.00000002  0.0000001 0.0000
 18  -3834.9272295752   0.000001115528 0.00000016  0.00000000  0.0000000 0.0000
                            ***DIIS convergence achieved***

               *****************************************************
               *                     SUCCESS                       *
               *           SCF CONVERGED AFTER  19 CYCLES          *
               *****************************************************


----------------
TOTAL SCF ENERGY
----------------

Total Energy       :        -3834.92723018 Eh         -104353.67517 eV

Components:
Nuclear Repulsion  :          207.11348199 Eh            5635.84437 eV
Electronic Energy  :        -4042.04071217 Eh         -109989.51954 eV
One Electron Energy:        -5742.11462866 Eh         -156250.88269 eV
Two Electron Energy:         1700.07391649 Eh           46261.36315 eV

Virial components:
Potential Energy   :        -7669.82988960 Eh         -208706.68174 eV
Kinetic Energy     :         3834.90265942 Eh          104353.00657 eV
Virial Ratio       :            2.00000641


---------------
SCF CONVERGENCE
---------------

  Last Energy change         ...   -6.0623e-07  Tolerance :   1.0000e-09
  Last MAX-Density change    ...    5.1587e-08  Tolerance :   1.0000e-08
  Last RMS-Density change    ...    1.4717e-09  Tolerance :   1.0000e-09
  Last DIIS Error            ...    1.8841e-08  Tolerance :   1.0000e-08

             **** THE GBW FILE WAS UPDATED (34_FeBr.gbw) ****
             **** DENSITY FILE WAS UPDATED (34_FeBr.scfp) ****
             **** ENERGY FILE WAS UPDATED (34_FeBr.en.tmp) ****
----------------------
UHF SPIN CONTAMINATION
----------------------

Expectation value of <S**2>     :     8.756302
Ideal value S*(S+1) for S=2.5   :     8.750000
Deviation                       :     0.006302

             **** THE GBW FILE WAS UPDATED (34_FeBr.gbw) ****
             **** DENSITY FILE WAS UPDATED (34_FeBr.scfp) ****
----------------
ORBITAL ENERGIES
----------------
                 SPIN UP ORBITALS
  NO   OCC          E(Eh)            E(eV) 
   0   1.0000    -489.978904    -13333.0038 
   1   1.0000    -261.412281     -7113.3898 
   2   1.0000     -65.122150     -1772.0638 
   3   1.0000     -58.476694     -1591.2318 
   4   1.0000     -58.476401     -1591.2238 
   5   1.0000     -58.476401     -1591.2238 
   6   1.0000     -32.033855      -871.6855 
   7   1.0000     -27.533690      -749.2298 
   8   1.0000     -27.500304      -748.3213 
   9   1.0000     -27.500304      -748.3213 
  10   1.0000      -9.796118      -266.5659 
  11   1.0000      -7.405285      -201.5081 
  12   1.0000      -7.403340      -201.4551 
  13   1.0000      -7.403340      -201.4551 
  14   1.0000      -4.384155      -119.2989 
  15   1.0000      -3.146024       -85.6077 
  16   1.0000      -3.145091       -85.5823 
  17   1.0000      -3.145091       -85.5823 
  18   1.0000      -3.143295       -85.5334 
  19   1.0000      -3.143294       -85.5334 
  20   1.0000      -3.045118       -82.8619 
  21   1.0000      -2.969731       -80.8105 
  22   1.0000      -2.969731       -80.8105 
  23   1.0000      -0.973657       -26.4945 
  24   1.0000      -0.748117       -20.3573 
  25   1.0000      -0.744001       -20.2453 
  26   1.0000      -0.744001       -20.2453 
  27   1.0000      -0.716054       -19.4848 
  28   1.0000      -0.666367       -18.1328 
  29   1.0000      -0.455860       -12.4046 
  30   1.0000      -0.399592       -10.8735 
  31   1.0000      -0.399592       -10.8735 
  32   1.0000      -0.296798        -8.0763 
  33   0.0000       0.057713         1.5704 
  34   0.0000       0.057713         1.5704 
  35   0.0000       0.129519         3.5244 
  36   0.0000       0.180177         4.9029 
  37   0.0000       0.231936         6.3113 
  38   0.0000       0.234537         6.3821 
  39   0.0000       0.271366         7.3842 
  40   0.0000       0.271366         7.3842 
  41   0.0000       0.279826         7.6145 
  42   0.0000       0.395616        10.7653 
  43   0.0000       0.395616        10.7653 
  44   0.0000       0.403671        10.9845 
  45   0.0000       0.486678        13.2432 
  46   0.0000       0.499269        13.5858 
  47   0.0000       0.499449        13.5907 
  48   0.0000       0.538537        14.6543 
  49   0.0000       0.538537        14.6543 
  50   0.0000       0.606063        16.4918 
  51   0.0000       0.606063        16.4918 
  52   0.0000       0.741907        20.1883 
  53   0.0000       0.992569        27.0092 
  54   0.0000       1.007137        27.4056 
  55   0.0000       1.015639        27.6369 
  56   0.0000       1.015639        27.6369 
  57   0.0000       1.082037        29.4437 
  58   0.0000       1.234303        33.5871 
  59   0.0000       1.633660        44.4542 
  60   0.0000       1.633766        44.4570 
  61   0.0000       1.649849        44.8947 
  62   0.0000       1.695010        46.1236 
  63   0.0000       1.695010        46.1236 
  64   0.0000       1.834562        49.9210 
  65   0.0000       1.834799        49.9274 
  66   0.0000       1.843612        50.1672 
  67   0.0000       1.843612        50.1672 
  68   0.0000       1.886723        51.3403 
  69   0.0000       1.886723        51.3403 
  70   0.0000       1.932355        52.5820 
  71   0.0000       1.942119        52.8478 
  72   0.0000       1.942119        52.8478 
  73   0.0000       2.125013        57.8246 
  74   0.0000       2.497270        67.9542 
  75   0.0000       2.510501        68.3142 
  76   0.0000       2.510501        68.3142 
  77   0.0000       2.514458        68.4219 
  78   0.0000       2.551052        69.4177 
  79   0.0000       2.551052        69.4177 
  80   0.0000       2.601183        70.7818 
  81   0.0000       2.651182        72.1423 
  82   0.0000       2.651182        72.1423 
  83   0.0000       2.817510        76.6683 
  84   0.0000       3.199664        87.0673 
  85   0.0000       3.791948       103.1842 
  86   0.0000       3.824734       104.0763 
  87   0.0000       3.824734       104.0763 
  88   0.0000       3.825029       104.0843 
  89   0.0000       3.937908       107.1559 
  90   0.0000       4.476582       121.8140 
  91   0.0000       4.476636       121.8154 
  92   0.0000       4.554115       123.9238 
  93   0.0000       4.554115       123.9238 
  94   0.0000       4.604254       125.2881 
  95   0.0000       8.080366       219.8779 
  96   0.0000       8.890972       241.9357 
  97   0.0000       8.893176       241.9956 
  98   0.0000       8.893176       241.9956 
  99   0.0000       8.903087       242.2653 
 100   0.0000       8.915858       242.6128 
 101   0.0000       8.923420       242.8186 
 102   0.0000       8.923420       242.8186 
 103   0.0000       8.946515       243.4471 
 104   0.0000       8.948863       243.5110 
 105   0.0000       9.636436       262.2208 
 106   0.0000       9.658434       262.8193 
 107   0.0000       9.658434       262.8193 
 108   0.0000       9.669783       263.1282 
 109   0.0000       9.700191       263.9556 
 110   0.0000       9.700191       263.9556 
 111   0.0000       9.794277       266.5158 

                 SPIN DOWN ORBITALS
  NO   OCC          E(Eh)            E(eV) 
   0   1.0000    -489.978583    -13332.9951 
   1   1.0000    -261.407322     -7113.2549 
   2   1.0000     -65.121924     -1772.0576 
   3   1.0000     -58.476189     -1591.2180 
   4   1.0000     -58.476172     -1591.2175 
   5   1.0000     -58.476172     -1591.2175 
   6   1.0000     -31.908714      -868.2803 
   7   1.0000     -27.390311      -745.3282 
   8   1.0000     -27.390311      -745.3282 
   9   1.0000     -27.388812      -745.2875 
  10   1.0000      -9.795430      -266.5472 
  11   1.0000      -7.404198      -201.4785 
  12   1.0000      -7.402779      -201.4398 
  13   1.0000      -7.402779      -201.4398 
  14   1.0000      -4.026822      -109.5754 
  15   1.0000      -3.145512       -85.5937 
  16   1.0000      -3.144653       -85.5704 
  17   1.0000      -3.144653       -85.5704 
  18   1.0000      -3.142997       -85.5253 
  19   1.0000      -3.142994       -85.5252 
  20   1.0000      -2.589341       -70.4596 
  21   1.0000      -2.589341       -70.4596 
  22   1.0000      -2.528081       -68.7926 
  23   1.0000      -0.963586       -26.2205 
  24   1.0000      -0.521893       -14.2014 
  25   1.0000      -0.450033       -12.2460 
  26   1.0000      -0.401279       -10.9194 
  27   1.0000      -0.401279       -10.9194 
  28   0.0000       0.010202         0.2776 
  29   0.0000       0.116395         3.1673 
  30   0.0000       0.116395         3.1673 
  31   0.0000       0.149554         4.0696 
  32   0.0000       0.181934         4.9507 
  33   0.0000       0.185476         5.0471 
  34   0.0000       0.185476         5.0471 
  35   0.0000       0.209247         5.6939 
  36   0.0000       0.251940         6.8556 
  37   0.0000       0.259579         7.0635 
  38   0.0000       0.333876         9.0852 
  39   0.0000       0.353284         9.6134 
  40   0.0000       0.358630         9.7588 
  41   0.0000       0.358630         9.7588 
  42   0.0000       0.404702        11.0125 
  43   0.0000       0.404702        11.0125 
  44   0.0000       0.434616        11.8265 
  45   0.0000       0.501861        13.6563 
  46   0.0000       0.502373        13.6703 
  47   0.0000       0.525440        14.2979 
  48   0.0000       0.579095        15.7580 
  49   0.0000       0.579095        15.7580 
  50   0.0000       0.633960        17.2509 
  51   0.0000       0.633960        17.2509 
  52   0.0000       0.805797        21.9269 
  53   0.0000       1.054895        28.7052 
  54   0.0000       1.149029        31.2667 
  55   0.0000       1.155497        31.4427 
  56   0.0000       1.162916        31.6446 
  57   0.0000       1.162916        31.6446 
  58   0.0000       1.301040        35.4031 
  59   0.0000       1.635751        44.5110 
  60   0.0000       1.635849        44.5137 
  61   0.0000       1.671927        45.4954 
  62   0.0000       1.699586        46.2481 
  63   0.0000       1.699586        46.2481 
  64   0.0000       1.837406        49.9984 
  65   0.0000       1.838004        50.0146 
  66   0.0000       1.845027        50.2057 
  67   0.0000       1.845027        50.2057 
  68   0.0000       1.909788        51.9680 
  69   0.0000       1.909788        51.9680 
  70   0.0000       1.935307        52.6624 
  71   0.0000       1.944376        52.9091 
  72   0.0000       1.944376        52.9091 
  73   0.0000       2.180137        59.3246 
  74   0.0000       2.619891        71.2909 
  75   0.0000       2.619891        71.2909 
  76   0.0000       2.635715        71.7214 
  77   0.0000       2.662472        72.4496 
  78   0.0000       2.662472        72.4496 
  79   0.0000       2.671781        72.7028 
  80   0.0000       2.729213        74.2657 
  81   0.0000       2.783223        75.7353 
  82   0.0000       2.783223        75.7353 
  83   0.0000       2.936010        79.8929 
  84   0.0000       3.306477        89.9738 
  85   0.0000       3.897312       106.0513 
  86   0.0000       3.999085       108.8206 
  87   0.0000       4.023418       109.4828 
  88   0.0000       4.023418       109.4828 
  89   0.0000       4.130555       112.3981 
  90   0.0000       4.477458       121.8378 
  91   0.0000       4.477517       121.8394 
  92   0.0000       4.555983       123.9746 
  93   0.0000       4.555983       123.9746 
  94   0.0000       4.612533       125.5134 
  95   0.0000       8.081898       219.9196 
  96   0.0000       9.039859       245.9871 
  97   0.0000       9.041252       246.0250 
  98   0.0000       9.041252       246.0250 
  99   0.0000       9.046508       246.1680 
 100   0.0000       9.049095       246.2384 
 101   0.0000       9.051269       246.2976 
 102   0.0000       9.051962       246.3164 
 103   0.0000       9.051962       246.3164 
 104   0.0000       9.056646       246.4439 
 105   0.0000       9.881501       268.8893 
 106   0.0000       9.881501       268.8893 
 107   0.0000       9.887079       269.0411 
 108   0.0000       9.939166       270.4585 
 109   0.0000       9.950084       270.7555 
 110   0.0000       9.950084       270.7555 
 111   0.0000      10.070909       274.0434 

                    ********************************
                    * MULLIKEN POPULATION ANALYSIS *
                    ********************************

--------------------------------------------
MULLIKEN ATOMIC CHARGES AND SPIN POPULATIONS
--------------------------------------------
   0 Fe:    0.552026    4.967236
   1 Br:   -0.552026    0.032764
Sum of atomic charges         :   -0.0000000
Sum of atomic spin populations:    5.0000000

-----------------------------------------------------
MULLIKEN REDUCED ORBITAL CHARGES AND SPIN POPULATIONS
-----------------------------------------------------
CHARGE
  0 Fes       :     6.902300  s :     6.902300
      pz      :     4.369052  p :    12.453559
      px      :     4.042254
      py      :     4.042254
      dz2     :     1.037445  d :     6.089747
      dxz     :     1.026364
      dyz     :     1.026364
      dx2y2   :     0.999914
      dxy     :     1.999662
      f0      :     0.000983  f :     0.002295
      f+1     :     0.000414
      f-1     :     0.000414
      f+2     :     0.000000
      f-2     :     0.000002
      f+3     :     0.000241
      f-3     :     0.000241
      g0      :     0.000015  g :     0.000073
      g+1     :     0.000010
      g-1     :     0.000010
      g+2     :     0.000003
      g-2     :     0.000011
      g+3     :     0.000002
      g-3     :     0.000002
      g+4     :     0.000020
      g-4     :     0.000000
  1 Brs       :     7.941718  s :     7.941718
      pz      :     5.736028  p :    17.584432
      px      :     5.924202
      py      :     5.924202
      dz2     :     2.011465  d :    10.023963
      dxz     :     2.006075
      dyz     :     2.006075
      dx2y2   :     2.000070
      dxy     :     2.000279
      f0      :     0.000975  f :     0.001913
      f+1     :     0.000439
      f-1     :     0.000439
      f+2     :     0.000013
      f-2     :     0.000047
      f+3     :     0.000000
      f-3     :     0.000000

SPIN
  0 Fes       :     0.749128  s :     0.749128
      pz      :     0.272106  p :     0.289538
      px      :     0.008716
      py      :     0.008716
      dz2     :     0.961736  d :     3.929001
      dxz     :     0.983611
      dyz     :     0.983611
      dx2y2   :     0.999923
      dxy     :     0.000120
      f0      :    -0.000022  f :    -0.000469
      f+1     :    -0.000002
      f-1     :    -0.000002
      f+2     :     0.000000
      f-2     :    -0.000001
      f+3     :    -0.000221
      f-3     :    -0.000221
      g0      :     0.000008  g :     0.000037
      g+1     :     0.000009
      g-1     :     0.000009
      g+2     :     0.000003
      g-2     :     0.000009
      g+3     :     0.000002
      g-3     :     0.000002
      g+4     :    -0.000004
      g-4     :    -0.000000
  1 Brs       :     0.000976  s :     0.000976
      pz      :     0.016629  p :     0.033686
      px      :     0.008528
      py      :     0.008528
      dz2     :    -0.000720  d :    -0.002162
      dxz     :    -0.000695
      dyz     :    -0.000695
      dx2y2   :     0.000061
      dxy     :    -0.000113
      f0      :     0.000162  f :     0.000264
      f+1     :     0.000052
      f-1     :     0.000052
      f+2     :     0.000013
      f-2     :    -0.000014
      f+3     :    -0.000000
      f-3     :    -0.000000


                     *******************************
                     * LOEWDIN POPULATION ANALYSIS *
                     *******************************

-------------------------------------------
LOEWDIN ATOMIC CHARGES AND SPIN POPULATIONS
-------------------------------------------
   0 Fe:    0.048998    4.930820
   1 Br:   -0.048998    0.069180

----------------------------------------------------
LOEWDIN REDUCED ORBITAL CHARGES AND SPIN POPULATIONS
----------------------------------------------------
CHARGE
  0 Fes       :     6.899546  s :     6.899546
      pz      :     4.551680  p :    12.686548
      px      :     4.067434
      py      :     4.067434
      dz2     :     1.172361  d :     6.360295
      dxz     :     1.094294
      dyz     :     1.094294
      dx2y2   :     0.999861
      dxy     :     1.999484
      f0      :     0.002457  f :     0.004531
      f+1     :     0.000795
      f-1     :     0.000795
      f+2     :     0.000000
      f-2     :     0.000002
      f+3     :     0.000241
      f-3     :     0.000241
      g0      :     0.000021  g :     0.000082
      g+1     :     0.000012
      g-1     :     0.000012
      g+2     :     0.000003
      g-2     :     0.000011
      g+3     :     0.000002
      g-3     :     0.000002
      g+4     :     0.000020
      g-4     :     0.000000
  1 Brs       :     7.638865  s :     7.638865
      pz      :     5.708638  p :    17.372749
      px      :     5.832055
      py      :     5.832055
      dz2     :     2.024780  d :    10.034507
      dxz     :     2.004599
      dyz     :     2.004599
      dx2y2   :     2.000110
      dxy     :     2.000419
      f0      :     0.001633  f :     0.002877
      f+1     :     0.000568
      f-1     :     0.000568
      f+2     :     0.000026
      f-2     :     0.000084
      f+3     :     0.000000
      f-3     :     0.000000

SPIN
  0 Fes       :     0.692472  s :     0.692472
      pz      :     0.307237  p :     0.324832
      px      :     0.008798
      py      :     0.008798
      dz2     :     0.956040  d :     3.913865
      dxz     :     0.978909
      dyz     :     0.978909
      dx2y2   :     0.999857
      dxy     :     0.000151
      f0      :     0.000060  f :    -0.000385
      f+1     :    -0.000001
      f-1     :    -0.000001
      f+2     :     0.000000
      f-2     :    -0.000001
      f+3     :    -0.000221
      f-3     :    -0.000221
      g0      :     0.000008  g :     0.000036
      g+1     :     0.000008
      g-1     :     0.000008
      g+2     :     0.000003
      g-2     :     0.000009
      g+3     :     0.000002
      g-3     :     0.000002
      g+4     :    -0.000004
      g-4     :    -0.000000
  1 Brs       :     0.004065  s :     0.004065
      pz      :     0.033155  p :     0.054240
      px      :     0.010542
      py      :     0.010542
      dz2     :     0.006077  d :     0.009246
      dxz     :     0.001596
      dyz     :     0.001596
      dx2y2   :     0.000114
      dxy     :    -0.000137
      f0      :     0.000890  f :     0.001629
      f+1     :     0.000368
      f-1     :     0.000368
      f+2     :     0.000025
      f-2     :    -0.000022
      f+3     :    -0.000000
      f-3     :    -0.000000


                      *****************************
                      * MAYER POPULATION ANALYSIS *
                      *****************************

  NA   - Mulliken gross atomic population
  ZA   - Total nuclear charge
  QA   - Mulliken gross atomic charge
  VA   - Mayer's total valence
  BVA  - Mayer's bonded valence
  FA   - Mayer's free valence

  ATOM       NA         ZA         QA         VA         BVA        FA
  0 Fe    25.4480    26.0000     0.5520     5.7140     0.8114     4.9026
  1 Br    35.5520    35.0000    -0.5520     0.8135     0.8114     0.0022

  Mayer bond orders larger than 0.100000
B(  0-Fe,  1-Br) :   0.8114 

-------
TIMINGS
-------

Total SCF time: 0 days 0 hours 0 min 3 sec 

Total time                  ....       3.638 sec
Sum of individual times     ....       3.409 sec  ( 93.7%)

Fock matrix formation       ....       3.179 sec  ( 87.4%)
Diagonalization             ....       0.054 sec  (  1.5%)
Density matrix formation    ....       0.010 sec  (  0.3%)
Population analysis         ....       0.005 sec  (  0.1%)
Initial guess               ....       0.109 sec  (  3.0%)
Orbital Transformation      ....       0.000 sec  (  0.0%)
Orbital Orthonormalization  ....       0.000 sec  (  0.0%)
DIIS solution               ....       0.027 sec  (  0.7%)


           ************************************************************
           *        Program running with 24 parallel MPI-processes    *
           *              working on a common directory               *
           ************************************************************


------------------------------------------------------------------------------- 
                              ORCA-MATRIX DRIVEN CI                            
------------------------------------------------------------------------------- 

--------------------------------
AUTOMATIC CHOICE OF INCORE LEVEL
--------------------------------

Memory available                           ...   2500.00 MB
Memory needed for S+T                      ...     27.14 MB
Memory needed for J+K                      ...     54.51 MB
Memory needed for DIIS                     ...    379.97 MB
Memory needed for 3-ext                    ...     71.47 MB
Memory needed for 4-ext                    ...    150.46 MB
Memory needed for triples                  ...     18.81 MB
 -> Final InCoreLevel    ... 5
 -> check shows that triples correction can be computed


Wavefunction type
-----------------
Correlation treatment                      ...      CCSD     
Single excitations                         ... ON
Orbital optimization                       ... OFF
Calculation of Z vector                    ... OFF
Calculation of Brueckner orbitals          ... OFF
Perturbative triple excitations            ... ON
Calculation of F12 correction              ... OFF
Frozen core treatment                      ... chemical core (28 el)
Reference Wavefunction                     ... UHF
  Alpha-MOs occ    :    14 ...   32 ( 19 MO's/ 19 electrons)
  Beta-MOs occ     :    14 ...   27 ( 14 MO's/ 14 electrons)
  Alpha-MOs virt   :    33 ...  111 ( 79 MO's              )
  Beta-MOs virt    :    28 ...  111 ( 84 MO's              )
Number of AO's                             ...    112
Number of electrons                        ...     61
Number of correlated electrons             ...     33

Algorithmic settings
--------------------
Integral transformation                    ... AO direct full transformation
K(C) Formation                             ... FULL-MO TRAFO
Maximum number of iterations               ...        50
Convergence tolerance (max. residuum)      ... 1.000e-06
Level shift for amplitude update           ... 2.000e-01
Maximum number of DIIS vectors             ...         7
DIIS turned on at iteration                ...         0
Damping before turning on DIIS             ...     0.500
Damping after turning on DIIS              ...     0.000
Pair specific amplitude update             ... OFF
Natural orbital iterations                 ... OFF
Perturbative natural orbital generation    ... OFF
Printlevel                                 ... 2

Memory handling:
----------------
Maximum memory for working arrays          ...   2500 MB
Data storage in matrix containers          ... UNCOMPRESSED
Data type for integral storage             ... DOUBLE
In-Core Storage of quantities:
   Amplitudes+Sigma Vector      ... YES
   J+K operators                ... YES
   DIIS vectors                 ... YES
   3-external integrals         ... YES
   4-external integrals         ... YES


Initializing the integral package          ... done
Warning: reference  - re-canonicalizations have been set to INT 1 VIRT 1

--------------------------
UNRESTRICTED FOCK OPERATOR
--------------------------

<ss|ss>:         2346 b           27 skpd (  1.2%)    0.001 s ( 0.001 ms/b)
<ss|sp>:         7616 b          235 skpd (  3.1%)    0.002 s ( 0.000 ms/b)
<ss|sd>:         6256 b          117 skpd (  1.9%)    0.003 s ( 0.000 ms/b)
<ss|sf>:         2244 b           37 skpd (  1.6%)    0.001 s ( 0.000 ms/b)
<ss|sg>:          680 b           22 skpd (  3.2%)    0.001 s ( 0.001 ms/b)
<ss|pp>:         3672 b          132 skpd (  3.6%)    0.003 s ( 0.001 ms/b)
<ss|pd>:         5304 b           96 skpd (  1.8%)    0.003 s ( 0.001 ms/b)
<ss|pf>:         1972 b           43 skpd (  2.2%)    0.001 s ( 0.000 ms/b)
<ss|pg>:          612 b           14 skpd (  2.3%)    0.001 s ( 0.001 ms/b)
<ss|dd>:         2448 b           48 skpd (  2.0%)    0.002 s ( 0.001 ms/b)
<ss|df>:         1632 b           61 skpd (  3.7%)    0.002 s ( 0.001 ms/b)
<ss|dg>:          544 b           18 skpd (  3.3%)    0.001 s ( 0.002 ms/b)
<ss|ff>:          408 b            6 skpd (  1.5%)    0.000 s ( 0.001 ms/b)
<ss|fg>:          204 b            3 skpd (  1.5%)    0.001 s ( 0.003 ms/b)
<ss|gg>:           68 b            1 skpd (  1.5%)    0.001 s ( 0.009 ms/b)
<sp|sp>:         6328 b          354 skpd (  5.6%)    0.002 s ( 0.000 ms/b)
<sp|sd>:        10304 b          471 skpd (  4.6%)    0.004 s ( 0.000 ms/b)
<sp|sf>:         3696 b          146 skpd (  4.0%)    0.001 s ( 0.000 ms/b)
<sp|sg>:         1120 b           72 skpd (  6.4%)    0.001 s ( 0.001 ms/b)
<sp|pp>:         6048 b          342 skpd (  5.7%)    0.004 s ( 0.001 ms/b)
<sp|pd>:         8736 b          270 skpd (  3.1%)    0.006 s ( 0.001 ms/b)
<sp|pf>:         3248 b          109 skpd (  3.4%)    0.002 s ( 0.001 ms/b)
<sp|pg>:         1008 b           34 skpd (  3.4%)    0.002 s ( 0.002 ms/b)
<sp|dd>:         4032 b          139 skpd (  3.4%)    0.006 s ( 0.002 ms/b)
<sp|df>:         2688 b          170 skpd (  6.3%)    0.002 s ( 0.001 ms/b)
<sp|dg>:          896 b           42 skpd (  4.7%)    0.002 s ( 0.003 ms/b)
<sp|ff>:          672 b           19 skpd (  2.8%)    0.001 s ( 0.002 ms/b)
<sp|fg>:          336 b            9 skpd (  2.7%)    0.002 s ( 0.005 ms/b)
<sp|gg>:          112 b            3 skpd (  2.7%)    0.002 s ( 0.020 ms/b)
<sd|sd>:         4278 b          148 skpd (  3.5%)    0.003 s ( 0.001 ms/b)
<sd|sf>:         3036 b          112 skpd (  3.7%)    0.001 s ( 0.000 ms/b)
<sd|sg>:          920 b           66 skpd (  7.2%)    0.002 s ( 0.002 ms/b)
<sd|pp>:         4968 b          246 skpd (  5.0%)    0.005 s ( 0.001 ms/b)
<sd|pd>:         7176 b          151 skpd (  2.1%)    0.008 s ( 0.001 ms/b)
<sd|pf>:         2668 b           76 skpd (  2.8%)    0.003 s ( 0.001 ms/b)
<sd|pg>:          828 b           24 skpd (  2.9%)    0.003 s ( 0.004 ms/b)
<sd|dd>:         3312 b           56 skpd (  1.7%)    0.010 s ( 0.003 ms/b)
<sd|df>:         2208 b          111 skpd (  5.0%)    0.004 s ( 0.002 ms/b)
<sd|dg>:          736 b           30 skpd (  4.1%)    0.005 s ( 0.006 ms/b)
<sd|ff>:          552 b           10 skpd (  1.8%)    0.002 s ( 0.004 ms/b)
<sd|fg>:          276 b            5 skpd (  1.8%)    0.003 s ( 0.010 ms/b)
<sd|gg>:           92 b            1 skpd (  1.1%)    0.004 s ( 0.043 ms/b)
<sf|sf>:          561 b           19 skpd (  3.4%)    0.000 s ( 0.001 ms/b)
<sf|sg>:          330 b           27 skpd (  8.2%)    0.001 s ( 0.003 ms/b)
<sf|pp>:         1782 b           79 skpd (  4.4%)    0.002 s ( 0.001 ms/b)
<sf|pd>:         2574 b           43 skpd (  1.7%)    0.004 s ( 0.002 ms/b)
<sf|pf>:          957 b           22 skpd (  2.3%)    0.002 s ( 0.002 ms/b)
<sf|pg>:          297 b            7 skpd (  2.4%)    0.002 s ( 0.007 ms/b)
<sf|dd>:         1188 b           24 skpd (  2.0%)    0.005 s ( 0.004 ms/b)
<sf|df>:          792 b           47 skpd (  5.9%)    0.002 s ( 0.003 ms/b)
<sf|dg>:          264 b           17 skpd (  6.4%)    0.003 s ( 0.010 ms/b)
<sf|ff>:          198 b            2 skpd (  1.0%)    0.001 s ( 0.007 ms/b)
<sf|fg>:           99 b            2 skpd (  2.0%)    0.002 s ( 0.017 ms/b)
<sf|gg>:           33 b            1 skpd (  3.0%)    0.002 s ( 0.068 ms/b)
<sg|sg>:           55 b            8 skpd ( 14.5%)    0.000 s ( 0.004 ms/b)
<sg|pp>:          540 b           35 skpd (  6.5%)    0.001 s ( 0.002 ms/b)
<sg|pd>:          780 b           34 skpd (  4.4%)    0.002 s ( 0.003 ms/b)
<sg|pf>:          290 b           17 skpd (  5.9%)    0.001 s ( 0.003 ms/b)
<sg|pg>:           90 b            6 skpd (  6.7%)    0.001 s ( 0.011 ms/b)
<sg|dd>:          360 b           19 skpd (  5.3%)    0.002 s ( 0.007 ms/b)
<sg|df>:          240 b           27 skpd ( 11.2%)    0.001 s ( 0.004 ms/b)
<sg|dg>:           80 b            9 skpd ( 11.2%)    0.001 s ( 0.020 ms/b)
<sg|ff>:           60 b            4 skpd (  6.7%)    0.001 s ( 0.009 ms/b)
<sg|fg>:           30 b            3 skpd ( 10.0%)    0.001 s ( 0.030 ms/b)
<sg|gg>:           10 b            1 skpd ( 10.0%)    0.001 s ( 0.115 ms/b)
<pp|pp>:         1485 b           86 skpd (  5.8%)    0.003 s ( 0.002 ms/b)
<pp|pd>:         4212 b          152 skpd (  3.6%)    0.007 s ( 0.002 ms/b)
<pp|pf>:         1566 b           59 skpd (  3.8%)    0.003 s ( 0.002 ms/b)
<pp|pg>:          486 b           17 skpd (  3.5%)    0.003 s ( 0.006 ms/b)
<pp|dd>:         1944 b           73 skpd (  3.8%)    0.008 s ( 0.004 ms/b)
<pp|df>:         1296 b           73 skpd (  5.6%)    0.003 s ( 0.002 ms/b)
<pp|dg>:          432 b           19 skpd (  4.4%)    0.004 s ( 0.009 ms/b)
<pp|ff>:          324 b           12 skpd (  3.7%)    0.002 s ( 0.005 ms/b)
<pp|fg>:          162 b            6 skpd (  3.7%)    0.002 s ( 0.015 ms/b)
<pp|gg>:           54 b            2 skpd (  3.7%)    0.003 s ( 0.062 ms/b)
<pd|pd>:         3081 b           10 skpd (  0.3%)    0.011 s ( 0.004 ms/b)
<pd|pf>:         2262 b           12 skpd (  0.5%)    0.007 s ( 0.003 ms/b)
<pd|pg>:          702 b            3 skpd (  0.4%)    0.007 s ( 0.011 ms/b)
<pd|dd>:         2808 b           12 skpd (  0.4%)    0.019 s ( 0.007 ms/b)
<pd|df>:         1872 b           66 skpd (  3.5%)    0.008 s ( 0.004 ms/b)
<pd|dg>:          624 b            7 skpd (  1.1%)    0.010 s ( 0.016 ms/b)
<pd|ff>:          468 b            0 skpd (  0.0%)    0.005 s ( 0.010 ms/b)
<pd|fg>:          234 b            0 skpd (  0.0%)    0.006 s ( 0.027 ms/b)
<pd|gg>:           78 b            0 skpd (  0.0%)    0.009 s ( 0.115 ms/b)
<pf|pf>:          435 b            4 skpd (  0.9%)    0.002 s ( 0.004 ms/b)
<pf|pg>:          261 b            1 skpd (  0.4%)    0.003 s ( 0.013 ms/b)
<pf|dd>:         1044 b            9 skpd (  0.9%)    0.008 s ( 0.008 ms/b)
<pf|df>:          696 b           35 skpd (  5.0%)    0.004 s ( 0.006 ms/b)
<pf|dg>:          232 b            7 skpd (  3.0%)    0.005 s ( 0.021 ms/b)
<pf|ff>:          174 b            2 skpd (  1.1%)    0.003 s ( 0.016 ms/b)
<pf|fg>:           87 b            2 skpd (  2.3%)    0.004 s ( 0.042 ms/b)
<pf|gg>:           29 b            0 skpd (  0.0%)    0.005 s ( 0.162 ms/b)
<pg|pg>:           45 b            0 skpd (  0.0%)    0.001 s ( 0.023 ms/b)
<pg|dd>:          324 b            3 skpd (  0.9%)    0.005 s ( 0.014 ms/b)
<pg|df>:          216 b           10 skpd (  4.6%)    0.002 s ( 0.009 ms/b)
<pg|dg>:           72 b            2 skpd (  2.8%)    0.003 s ( 0.037 ms/b)
<pg|ff>:           54 b            0 skpd (  0.0%)    0.001 s ( 0.020 ms/b)
<pg|fg>:           27 b            0 skpd (  0.0%)    0.002 s ( 0.070 ms/b)
<pg|gg>:            9 b            0 skpd (  0.0%)    0.002 s ( 0.255 ms/b)
<dd|dd>:          666 b            3 skpd (  0.5%)    0.014 s ( 0.021 ms/b)
<dd|df>:          864 b           21 skpd (  2.4%)    0.006 s ( 0.008 ms/b)
<dd|dg>:          288 b            3 skpd (  1.0%)    0.008 s ( 0.030 ms/b)
<dd|ff>:          216 b            1 skpd (  0.5%)    0.004 s ( 0.018 ms/b)
<dd|fg>:          108 b            1 skpd (  0.9%)    0.005 s ( 0.051 ms/b)
<dd|gg>:           36 b            0 skpd (  0.0%)    0.008 s ( 0.219 ms/b)
<df|df>:          300 b           22 skpd (  7.3%)    0.004 s ( 0.014 ms/b)
<df|dg>:          192 b            8 skpd (  4.2%)    0.006 s ( 0.032 ms/b)
<df|ff>:          144 b            6 skpd (  4.2%)    0.004 s ( 0.028 ms/b)
<df|fg>:           72 b            3 skpd (  4.2%)    0.005 s ( 0.071 ms/b)
<df|gg>:           24 b            1 skpd (  4.2%)    0.006 s ( 0.282 ms/b)
<dg|dg>:           36 b            1 skpd (  2.8%)    0.004 s ( 0.101 ms/b)
<dg|ff>:           48 b            0 skpd (  0.0%)    0.002 s ( 0.035 ms/b)
<dg|fg>:           24 b            0 skpd (  0.0%)    0.003 s ( 0.118 ms/b)
<dg|gg>:            8 b            0 skpd (  0.0%)    0.004 s ( 0.468 ms/b)
<ff|ff>:           21 b            0 skpd (  0.0%)    0.001 s ( 0.051 ms/b)
<ff|fg>:           18 b            0 skpd (  0.0%)    0.002 s ( 0.106 ms/b)
<ff|gg>:            6 b            0 skpd (  0.0%)    0.003 s ( 0.505 ms/b)
<fg|fg>:            6 b            0 skpd (  0.0%)    0.001 s ( 0.236 ms/b)
<fg|gg>:            3 b            0 skpd (  0.0%)    0.002 s ( 0.668 ms/b)
<gg|gg>:            1 b            0 skpd (  0.0%)    0.001 s ( 1.133 ms/b)
Recanonicalizing the internal orbitals
Recanonicalizing the virtual orbitals
Time needed for Fock operator              ...            0.419 sec
Reference energy                           ...  -3834.927229990
Warning: for UHF the TrafoType has to be JK
Warning: for UHF the K(C)-option cannot be MO but must be AOX

-------------------------------
PARTIAL EXCHANGE TRANSFORMATION
-------------------------------

Transformation type                        ... two-operators
Generation of integrals (i,mue|j,nue)      ... ON
Generation of integrals (mue,kappa|nue,tau)... ON
Generation of integrals (i,mue|a,nue)      ... ON
Dimension of the basis                     ...  112
Number of internal alpha-MOs               ...   19 (  14-  32)
Number of internal beta-MOs                ...   14 (  14-  27)
Number of external alpha-MOs               ...   79 (  33- 111)
Number of external beta-MOs                ...   84 (  28- 111)
Pair cutoff                                ... 0.000e+00 Eh
Number of AO pairs in the trafo            ... 6328
Total Number of distinct AO pairs          ... 6328
Memory devoted for trafo                   ... 2500.0 MB 
Max. Number of MO pairs treated together   ... 26122      
Number Format for Storage                  ... Double (8 Byte)
Integral package used                      ... LIBINT

Starting integral evaluation:
    ... done with AO integral generation
Closing buffer AOK[aa] ( 0.00 GB; CompressionRatio= 1.00)
Closing buffer AOK[bb] ( 0.00 GB; CompressionRatio= 0.99)
Closing buffer AOK[ab] ( 0.00 GB; CompressionRatio= 0.99)
Closing buffer AOK[ba] ( 0.00 GB; CompressionRatio= 0.99)
Collecting buffer AOK 
Closing buffer IAAO1[aa] ( 0.00 GB; CompressionRatio= 1.00)
Closing buffer IAAO1[bb] ( 0.00 GB; CompressionRatio= 1.00)
Closing buffer IAAO1[ab] ( 0.00 GB; CompressionRatio= 1.00)
Closing buffer IAAO1[ba] ( 0.00 GB; CompressionRatio= 1.00)
Closing buffer IAAO2[aa] ( 0.00 GB; CompressionRatio= 1.00)
Closing buffer IAAO2[bb] ( 0.00 GB; CompressionRatio= 1.00)
Closing buffer IAAO2[ab] ( 0.00 GB; CompressionRatio= 1.00)
Closing buffer IAAO2[ba] ( 0.00 GB; CompressionRatio= 1.00)
Collecting buffer IAAO 
Closing buffer PRQS    ( 0.01 GB; CompressionRatio= 1.00)
Collecting buffer PRQS 
Number of alpha/alpha MO pairs in trafo    ...  190
Number of beta /beta  MO pairs in trafo    ...  105
Number of alpha/ beta MO pairs in trafo    ...  266
------------------------
SORTING OF (i,mue|j,nue)
------------------------

SORTING OF ALPHA/ALPHA PAIRS
IBATCH = 1 of  1
Closing buffer KAO[aa] ( 0.00 GB; CompressionRatio= 1.00)
Collecting buffer KAO 
SORTING OF BETA /BETA  PAIRS
IBATCH = 1 of  1
Closing buffer KAO[bb] ( 0.00 GB; CompressionRatio= 1.00)
Collecting buffer KAO 
SORTING OF ALPHA/BETA  PAIRS
IBATCH = 1 of  1
Closing buffer KAO[ab] ( 0.00 GB; CompressionRatio= 0.999880435216)
Collecting buffer KAO[ab] 
------------------------
SORTING OF (i,mue|a,nue)
------------------------

Number of alpha/alpha (i,a) pairs in trafo  ... 1501
Number of beta /beta  (i,a) pairs in trafo  ... 1176
Number of alpha/ beta (i,a) pairs in trafo  ... 1596
Number of beta /alpha (i,a) pairs in trafo  ... 1106
Setting up the alpha/alpha list             ... done
Setting up the beta /beta  list             ... done
Setting up the alpha/beta  list             ... done
Setting up the beta /alpha list             ... done
    ... Now sorting (i,mue|a,nue)integrals
    ... Integrals (i,b|a,c) will be made on the fly
SORTING OF ALPHA/ALPHA PAIRS
IBATCH = 1 of  1
Closing buffer IPAQ[aa]  0.00 GB; CompressionRatio= 1.00)
SORTING OF BETA /BETA  PAIRS
IBATCH = 1 of  1
Closing buffer IPAQ[bb]( 0.00 GB; CompressionRatio= 1.00)
SORTING OF ALPHA/BETA  PAIRS (NMatSort_ab=67)
IBATCH = 1 of  1
Closing buffer IPAQ[ab]( 0.00 GB; CompressionRatio= 1.00)
SORTING OF BETA/ALPHA  PAIRS
IBATCH = 1 of  1
Closing buffer IPAQ[ba]( 0.00 GB; CompressionRatio= 1.00)
N(AO-Batches) Done                         ...     11552 
N(AO-Batches) Skipped                      ...         0 
N(IJ)-pairs Skipped                        ...         0 
TOTAL TIME for half transformation         ...     2.181 sec
AO-integral generation                     ...     0.143 sec
Half transformation                        ...     0.032 sec
K-integral sorting                         ...     1.251 sec
<ss|**>: 
------------------------------
PARTIAL COULOMB TRANSFORMATION
------------------------------

Transformation type                        ... two-operators
Dimension of the basis                     ...  112
Number of internal alpha-MOs               ...   19 (14-32)
Number of internal beta-MOs                ...   14 (14-27)
Pair cutoff                                ... 0.000e+00 Eh
Number of AO pairs included in the trafo   ... 6327
Total Number of distinct AO pairs          ... 6328
Memory devoted for trafo                   ... 2500.0 MB 
Max. Number of MO pairs treated together   ... 51782      
Max. Number of MOs treated per batch       ...  462      
Number Format for Storage                  ... Double (8 Byte)
AO-integral source                         ... DIRECT
Integral package used                      ... LIBINT

Starting integral evaluation:
<sp|**>:        38284 b        0 skpd     0.014 s (  0.000 ms/b)
<sd|**>:        63056 b        0 skpd     0.024 s (  0.000 ms/b)
       51796 b        0 skpd     0.039 s (  0.001 ms/b)
<sf|**>:        18579 b        0 skpd     0.016 s (  0.001 ms/b)
<sg|**>:         5630 b        0 skpd     0.028 s (  0.005 ms/b)
<pp|**>:        30402 b        0 skpd     0.041 s (  0.001 ms/b)
<pd|**>:        43914 b        0 skpd     0.079 s (  0.002 ms/b)
<pf|**>:        16327 b        0 skpd     0.033 s (  0.002 ms/b)
<pg|**>:         5067 b        0 skpd     0.039 s (  0.008 ms/b)
<dd|**>:        20268 b        0 skpd     0.096 s (  0.005 ms/b)
<df|**>:        13512 b        0 skpd     0.037 s (  0.003 ms/b)
<dg|**>:         4504 b        0 skpd     0.049 s (  0.011 ms/b)
<ff|**>:         3378 b        0 skpd     0.020 s (  0.006 ms/b)
<fg|**>:         1689 b        0 skpd     0.030 s (  0.018 ms/b)
<gg|**>:          563 b        0 skpd     0.044 s (  0.079 ms/b)
Closing buffer AOJ[aa] ( 0.00 GB; CompressionRatio= 0.99)
Closing buffer AOJ[bb] ( 0.00 GB; CompressionRatio= 0.00)
Collecting buffer AOJ 
    ... done with AO integral generation
Number of Alpha-MO pairs included          ...  190
Number of Beta-MO pairs included           ...  105
    ... Now sorting integrals
SORTING ALPHA/ALPHA PAIRS
IBATCH = 1 of  1
Closing buffer JAO[aa] ( 0.00 GB; CompressionRatio= 1.00)
SORTING BETA/BETA PAIRS
IBATCH = 1 of  1
Closing buffer JAO[bb] ( 0.00 GB; CompressionRatio= 1.00)
Collecting buffer JAO 
TOTAL TIME for half transformation         ...     0.635 sec
AO-integral generation                     ...     0.588 sec
Half transformation                        ...     0.016 sec
J-integral sorting                         ...     0.021 sec

-------------------------- SECOND HALF TRANSFORMATION -------------------------
Formation of (ij|kl),(ij|ka), (ij|ab)      ... ok (     0.108 sec)
Formation of (ik|jl),(ik|ja), (ia|jb)      ... ok (     0.200 sec)


-----------------------
SPIN UNRESTRICTED GUESS
-----------------------

Entering MDCI_UHF_Guess, Tailored=0
Spin-components of the MP2 energy:
EMP2(aa)=     -0.177965473
EMP2(bb)=     -0.084244171
EMP2(ab)=     -0.510123991

Initial guess performed in     0.085 sec
E(0)                                       ...  -3834.927229990
E(MP2)                                     ...     -0.772333635
Initial E(tot)                             ...  -3835.699563626
<T|T>                                      ...      0.150597145
Number of pairs included                   ... 528

------------------------------------------------
                  UHF COUPLED CLUSTER ITERATIONS
------------------------------------------------

Number of amplitudes to be optimized       ...      2621082

Iter       E(tot)           E(Corr)          Delta-E          Residual     Time      <S|S>**1/2
  0  -3835.699563626     -0.772333635      0.000000000      0.022037840    2.23      0.000000033
                           *** Turning on DIIS ***
  1  -3835.680287748     -0.753057758      0.019275877      0.006409546    2.36      0.046879017
  2  -3835.694615221     -0.767385231     -0.014327473      0.004726277    2.43      0.054137151
  3  -3835.697410521     -0.770180531     -0.002795299      0.002749054    2.44      0.068958916
  4  -3835.698722975     -0.771492985     -0.001312454      0.002176903    2.53      0.078081771
  5  -3835.699771696     -0.772541706     -0.001048721      0.000882158    2.52      0.090255265
  6  -3835.699973822     -0.772743832     -0.000202126      0.000496639    2.63      0.094045161
  7  -3835.700059746     -0.772829755     -0.000085924      0.000275957    2.59      0.095304349
  8  -3835.700080480     -0.772850490     -0.000020735      0.000152976    2.52      0.095569965
  9  -3835.700076908     -0.772846918      0.000003572      0.000068212    2.58      0.095553982
 10  -3835.700082502     -0.772852512     -0.000005594      0.000022800    2.54      0.095588215
 11  -3835.700077517     -0.772847526      0.000004985      0.000006868    2.52      0.095561433
 12  -3835.700079270     -0.772849280     -0.000001753      0.000003957    2.51      0.095576841
 13  -3835.700079185     -0.772849194      0.000000086      0.000001733    2.52      0.095576565
 14  -3835.700079658     -0.772849668     -0.000000473      0.000001257    2.61      0.095581826
 15  -3835.700079719     -0.772849729     -0.000000061      0.000000649    2.51      0.095582546
               --- The Coupled-Cluster iterations have converged ---

----------------------
COUPLED CLUSTER ENERGY
----------------------

E(0)                                       ...  -3834.927229990
E(CORR)                                    ...     -0.772849729
E(TOT)                                     ...  -3835.700079719
Singles norm <S|S>**1/2                    ...      0.095582546 ( 0.046424428, 0.049158119)  
T1 diagnostic                              ...      0.016638786                              

------------------
LARGEST AMPLITUDES
------------------
  26b-> 33b  -1b-> -1b       0.042786
  27b-> 34b  -1b-> -1b       0.042786
  32a-> 36a  -1a-> -1a       0.041451
  25b-> 37b  -1b-> -1b       0.038765
  25b-> 31b  -1b-> -1b       0.038347
  25b-> 38b  -1b-> -1b       0.030616
  31a-> 47a  27b-> 45b       0.030016
  30a-> 47a  26b-> 45b       0.030016
  31a-> 46a  27b-> 46b       0.029878
  30a-> 46a  26b-> 46b       0.029878
  31a-> 46a  30a-> 47a       0.028993
  31a-> 47a  30a-> 46a       0.028993
  27b-> 45b  26b-> 46b       0.027938
  27b-> 46b  26b-> 45b       0.027938
  24b-> 36b  -1b-> -1b       0.025788
  26b-> 40b  -1b-> -1b       0.025695

----------------------
UHF TRIPLES CORRECTION (Algorithm 1)
----------------------

Multiplier for the singles contribution    ...      1.000000000

SPIN-CASE Alpha-Alpha-Alpha:
10% done
20% done
30% done
40% done
50% done
60% done
70% done
80% done
90% done


SPIN-CASE Beta-Beta-Beta:
10% done
20% done
30% done
40% done
50% done
60% done
70% done
80% done
90% done


SPIN-CASE Alpha-Alpha-Beta:
10% done
20% done
30% done
40% done
50% done
60% done
70% done
80% done
90% done


SPIN-CASE Beta-Beta-Alpha:
10% done
20% done
30% done
40% done
50% done
60% done
70% done
80% done
90% done


Triples Correction (T)                     ...     -0.021787869
    alpha-alpha-alpha ... -0.001685050 (  7.7%)
    alpha-alpha-beta  ... -0.011548884 ( 53.0%)
    alpha-beta -beta  ... -0.007967410 ( 36.6%)
    beta -beta -beta  ... -0.000586525 (  2.7%)
Scaling of triples based on CCSD energies (Peterson et al. Molecular Physics 113, 1551 (2015))
E(T*) = f*E(T) where f = E(F12-CCSD)/E(CCSD) 
f = CCSD (with F12)/ CCSD (without F12)    ...      1.000000000
Scaled triples correction (T)              ...     -0.021787869

Final correlation energy                   ...     -0.794637598
E(CCSD)                                    ...  -3835.700079719
E(CCSD(T))                                 ...  -3835.721867588



        !!!!!!!!!!!!!!!!!!!!!!!!!!!!!!!!!!!!!!!!!!!!!!!!!!!!!!!!!!!!!!!!!!!!!!!!!! 
        !  Warning: Densities are linearized densities                           !
        !!!!!!!!!!!!!!!!!!!!!!!!!!!!!!!!!!!!!!!!!!!!!!!!!!!!!!!!!!!!!!!!!!!!!!!!!! 

NORM  =      1.184043528 sqrt=     1.088137642
W(HF) =      0.844563546
------------------------------------------------------------------------------
                           ORCA POPULATION ANALYSIS
------------------------------------------------------------------------------
Input electron density              ... 34_FeBr.mdcip
Input spin density                  ... 34_FeBr.mdcir
BaseName (.gbw .S,...)              ... 34_FeBr

                    ********************************
                    * MULLIKEN POPULATION ANALYSIS *
                    ********************************

------------------------------------------
MULLIKEN ATOMIC CHARGES AND SPIN DENSITIES
------------------------------------------
   0 Fe:    0.436129    4.894133
   1 Br:   -0.436129    0.105867
Sum of atomic charges       :   -0.0000000
Sum of atomic spin densities:    5.0000000

---------------------------------------------------
MULLIKEN REDUCED ORBITAL CHARGES AND SPIN DENSITIES
---------------------------------------------------
CHARGE
  0 Fes       :     6.956190  s :     6.956190
      pz      :     4.327079  p :    12.430129
      px      :     4.051525
      py      :     4.051525
      dz2     :     1.061476  d :     6.144320
      dxz     :     1.047476
      dyz     :     1.047476
      dx2y2   :     1.000994
      dxy     :     1.986899
      f0      :     0.004602  f :     0.030116
      f+1     :     0.004142
      f-1     :     0.004142
      f+2     :     0.003554
      f-2     :     0.004341
      f+3     :     0.004668
      f-3     :     0.004668
      g0      :     0.000337  g :     0.003115
      g+1     :     0.000334
      g-1     :     0.000334
      g+2     :     0.000303
      g-2     :     0.000366
      g+3     :     0.000346
      g-3     :     0.000346
      g+4     :     0.000375
      g-4     :     0.000375
  1 Brs       :     7.932953  s :     7.932953
      pz      :     5.647685  p :    17.368318
      px      :     5.860316
      py      :     5.860316
      dz2     :     2.028578  d :    10.118172
      dxz     :     2.025802
      dyz     :     2.025802
      dx2y2   :     2.018825
      dxy     :     2.019164
      f0      :     0.003248  f :     0.016687
      f+1     :     0.002712
      f-1     :     0.002712
      f+2     :     0.002056
      f-2     :     0.002109
      f+3     :     0.001926
      f-3     :     0.001926

SPIN
  0 Fes       :     0.768030  s :     0.768030
      pz      :     0.250314  p :     0.286832
      px      :     0.018259
      py      :     0.018259
      dz2     :     0.919806  d :     3.823265
      dxz     :     0.953990
      dyz     :     0.953990
      dx2y2   :     0.990705
      dxy     :     0.004774
      f0      :     0.002532  f :     0.014530
      f+1     :     0.002476
      f-1     :     0.002476
      f+2     :     0.002716
      f-2     :     0.001731
      f+3     :     0.001300
      f-3     :     0.001300
      g0      :     0.000199  g :     0.001475
      g+1     :     0.000195
      g-1     :     0.000195
      g+2     :     0.000190
      g-2     :     0.000172
      g+3     :     0.000154
      g-3     :     0.000154
      g+4     :     0.000108
      g-4     :     0.000108
  1 Brs       :     0.001685  s :     0.001685
      pz      :     0.051751  p :     0.104448
      px      :     0.026348
      py      :     0.026348
      dz2     :    -0.000170  d :    -0.000720
      dxz     :    -0.000414
      dyz     :    -0.000414
      dx2y2   :     0.000281
      dxy     :    -0.000002
      f0      :     0.000175  f :     0.000454
      f+1     :     0.000089
      f-1     :     0.000089
      f+2     :     0.000049
      f-2     :     0.000006
      f+3     :     0.000023
      f-3     :     0.000023


                     *******************************
                     * LOEWDIN POPULATION ANALYSIS *
                     *******************************

-----------------------------------------
LOEWDIN ATOMIC CHARGES AND SPIN DENSITIES
-----------------------------------------
   0 Fe:   -0.016616    4.857696
   1 Br:    0.016616    0.142304

--------------------------------------------------
LOEWDIN REDUCED ORBITAL CHARGES AND SPIN DENSITIES
--------------------------------------------------
CHARGE
  0 Fes       :     6.925514  s :     6.925514
      pz      :     4.503863  p :    12.652997
      px      :     4.074567
      py      :     4.074567
      dz2     :     1.193215  d :     6.402745
      dxz     :     1.110901
      dyz     :     1.110901
      dx2y2   :     1.001012
      dxy     :     1.986715
      f0      :     0.006002  f :     0.032235
      f+1     :     0.004500
      f-1     :     0.004500
      f+2     :     0.003555
      f-2     :     0.004342
      f+3     :     0.004668
      f-3     :     0.004668
      g0      :     0.000343  g :     0.003124
      g+1     :     0.000336
      g-1     :     0.000336
      g+2     :     0.000303
      g-2     :     0.000366
      g+3     :     0.000346
      g-3     :     0.000346
      g+4     :     0.000375
      g-4     :     0.000375
  1 Brs       :     7.638680  s :     7.638680
      pz      :     5.643585  p :    17.192906
      px      :     5.774661
      py      :     5.774661
      dz2     :     2.046694  d :    10.133645
      dxz     :     2.024431
      dyz     :     2.024431
      dx2y2   :     2.018792
      dxy     :     2.019298
      f0      :     0.004251  f :     0.018152
      f+1     :     0.002912
      f-1     :     0.002912
      f+2     :     0.002069
      f-2     :     0.002157
      f+3     :     0.001926
      f-3     :     0.001926

SPIN
  0 Fes       :     0.700670  s :     0.700670
      pz      :     0.294196  p :     0.331575
      px      :     0.018690
      py      :     0.018690
      dz2     :     0.916763  d :     3.809249
      dxz     :     0.948528
      dyz     :     0.948528
      dx2y2   :     0.990605
      dxy     :     0.004826
      f0      :     0.002708  f :     0.014727
      f+1     :     0.002486
      f-1     :     0.002486
      f+2     :     0.002716
      f-2     :     0.001731
      f+3     :     0.001300
      f-3     :     0.001300
      g0      :     0.000199  g :     0.001474
      g+1     :     0.000195
      g-1     :     0.000195
      g+2     :     0.000190
      g-2     :     0.000172
      g+3     :     0.000154
      g-3     :     0.000154
      g+4     :     0.000108
      g-4     :     0.000108
  1 Brs       :     0.005508  s :     0.005508
      pz      :     0.065339  p :     0.121754
      px      :     0.028207
      py      :     0.028207
      dz2     :     0.007984  d :     0.013043
      dxz     :     0.002370
      dyz     :     0.002370
      dx2y2   :     0.000364
      dxy     :    -0.000045
      f0      :     0.000955  f :     0.002000
      f+1     :     0.000468
      f-1     :     0.000468
      f+2     :     0.000067
      f-2     :    -0.000004
      f+3     :     0.000023
      f-3     :     0.000023


                      *****************************
                      * MAYER POPULATION ANALYSIS *
                      *****************************

  NA   - Mulliken gross atomic population
  ZA   - Total nuclear charge
  QA   - Mulliken gross atomic charge
  VA   - Mayer's total valence
  BVA  - Mayer's bonded valence
  FA   - Mayer's free valence

  ATOM       NA         ZA         QA         VA         BVA        FA
  0 Fe    25.5639    26.0000     0.4361     6.1406     0.9084     5.2322
  1 Br    35.4361    35.0000    -0.4361     1.6026     0.9084     0.6942

  Mayer bond orders larger than 0.100000
B(  0-Fe,  1-Br) :   0.9084 



------------------------------------------------------------------------------- 
                                     TIMINGS                                   
------------------------------------------------------------------------------- 


Total execution time                   ...       52.868 sec

Fock Matrix Formation                  ...        0.419 sec (  0.8%)
Initial Guess                          ...        0.085 sec (  0.2%)
DIIS Solver                            ...        3.671 sec (  6.9%)
State Vector Update                    ...        0.161 sec (  0.3%)
Sigma-vector construction              ...       36.219 sec ( 68.5%)
  <0|H|D>                              ...        0.008 sec (  0.0% of sigma)
  <D|H|D>(0-ext Fock)                  ...        0.108 sec (  0.3% of sigma)
  <D|H|D>(0-ext)                       ...        0.905 sec (  2.5% of sigma)
  <D|H|D>(2-ext Fock)                  ...        0.017 sec (  0.0% of sigma)
  <D|H|D>(2-ext)                       ...        1.455 sec (  4.0% of sigma)
  <D|H|D>(4-ext)                       ...       15.965 sec ( 44.1% of sigma)
  <S|H|0>                              ...        2.737 sec (  7.6% of sigma)
  <S|H|S>                              ...        0.004 sec (  0.0% of sigma)
  <S|H|D>(1-ext)                       ...        0.026 sec (  0.1% of sigma)
  <D|H|S>(1-ext)                       ...        0.276 sec (  0.8% of sigma)
  Fock-dressing                        ...        4.666 sec ( 12.9% of sigma)
  (ik|jl)-dressing                     ...        1.352 sec (  3.7% of sigma)
  (ij|ab),(ia|jb)-dressing             ...        6.934 sec ( 19.1% of sigma)
  Pair energies                        ...        0.011 sec (  0.0% of sigma)
Total Time for computing (T)           ...        8.294 sec ( 15.7% of ALL)
  I/O of integral and amplitudes       ...        1.353 sec ( 16.3% of (T))
  External N**7 contributions          ...        2.251 sec ( 27.1% of (T))
  Internal N**7 contributions          ...        1.308 sec ( 15.8% of (T))
  N**6 triples energy contributions    ...        3.344 sec ( 40.3% of (T))

----- Orbital basis set information -----
Your calculation utilizes the basis: def2-QZVPP
   F. Weigend and R. Ahlrichs, Phys. Chem. Chem. Phys. 7, 3297 (2005).

----- AuxJ basis set information -----
Your calculation utilizes the auxiliary basis: def2/J
   F. Weigend, Phys. Chem. Chem. Phys. 8, 1057 (2006).

----- AuxC basis set information -----
Your calculation utilizes the auxiliary basis: def2-QZVPP/C
  H-La, Hf-Rn : A. Hellweg, C. Hattig, S. Hofener and W. Klopper, Theor. Chem. Acc. 117, 587 (2007).
        Ce-Lu : J. Chmela and M. E. Harding, Mol. Phys. (2018).

----- AuxJK basis set information -----
Your calculation utilizes the auxiliary basis: def2/JK
   H-Ba, Hf-Rn: F. Weigend, J. Comput. Chem. 29, 167 (2008).

All done

                     -----------------------------------------
                     Extrapolated Energy 2 Basis=  def2-QZVPP
                     -----------------------------------------

---------------------------------
CARTESIAN COORDINATES (ANGSTROEM)
---------------------------------
  Fe     0.000000    0.000000   -0.162530
  Br     0.000000    0.000000    2.162530

----------------------------
CARTESIAN COORDINATES (A.U.)
----------------------------
  NO LB      ZA    FRAG     MASS         X           Y           Z
   0 Fe   26.0000    0    55.850    0.000000    0.000000   -0.307137
   1 Br   35.0000    0    79.900    0.000000    0.000000    4.086589

--------------------------------
INTERNAL COORDINATES (ANGSTROEM)
--------------------------------
 Fe     0   0   0     0.000000000000     0.00000000     0.00000000
 Br     1   0   0     2.325059937785     0.00000000     0.00000000

---------------------------
INTERNAL COORDINATES (A.U.)
---------------------------
 Fe     0   0   0     0.000000000000     0.00000000     0.00000000
 Br     1   0   0     4.393726527366     0.00000000     0.00000000

---------------------
BASIS SET INFORMATION
---------------------
There are 2 groups of distinct atoms

 Group   1 Type Fe  : 24s18p10d4f2g contracted to 11s6p5d4f2g pattern {114111111111/951111/61111/1111/11}
 Group   2 Type Br  : 24s20p10d4f1g contracted to 11s7p4d4f1g pattern {114111111111/10511111/7111/1111/1}

Atom   0Fe   basis set group =>   1
Atom   1Br   basis set group =>   2
---------------------------------
AUXILIARY/J BASIS SET INFORMATION
---------------------------------
There are 2 groups of distinct atoms

 Group   1 Type Fe  : 19s5p5d3f3g contracted to 8s5p5d2f3g pattern {121111111/11111/11111/21/111}
 Group   2 Type Br  : 19s5p5d3f1g contracted to 8s4p3d2f1g pattern {121111111/2111/311/21/1}

Atom   0Fe   basis set group =>   1
Atom   1Br   basis set group =>   2
---------------------------------
AUXILIARY/C BASIS SET INFORMATION
---------------------------------
There are 2 groups of distinct atoms

 Group   1 Type Fe  : 15s13p11d8f7g5h2i contracted to 15s13p11d8f7g5h2i pattern {111111111111111/1111111111111/11111111111/11111111/1111111/11111/11}
 Group   2 Type Br  : 13s12p11d9f7g5h1i contracted to 13s12p11d9f7g5h1i pattern {1111111111111/111111111111/11111111111/111111111/1111111/11111/1}

Atom   0Fe   basis set group =>   1
Atom   1Br   basis set group =>   2
----------------------------------
AUXILIARY/JK BASIS SET INFORMATION
----------------------------------
There are 2 groups of distinct atoms

 Group   1 Type Fe  : 19s14p12d10f7g3h1i contracted to 16s13p11d9f5g3h1i pattern {4111111111111111/2111111111111/21111111111/211111111/31111/111/1}
 Group   2 Type Br  : 20s14p13d10f7g3h contracted to 17s13p12d9f6g3h pattern {41111111111111111/2111111111111/211111111111/211111111/211111/111}

Atom   0Fe   basis set group =>   1
Atom   1Br   basis set group =>   2

Checking for AutoStart:
The File: 34_FeBr.gbw exists
Trying to determine its content:
     ... Fine, the file contains calculation information
     ... Fine, the calculation information was read
     ... Fine, the file contains a basis set
     ... Fine, the basis set was read
     ... Fine, the file contains a geometry
     ... Fine, the geometry was read
     ... Fine, the file contains a set of orbitals
     ... Fine, the orbitals can be read
     => possible old guess file was deleted
     => GBW file was renamed to GES file
     => GES file is set as startup file
     => Guess is set to MORead
     ... now leaving AutoStart



           ************************************************************
           *        Program running with 24 parallel MPI-processes    *
           *              working on a common directory               *
           ************************************************************
------------------------------------------------------------------------------
                           ORCA GTO INTEGRAL CALCULATION
------------------------------------------------------------------------------

                         BASIS SET STATISTICS AND STARTUP INFO

 # of primitive gaussian shells          ...  117
 # of primitive gaussian functions       ...  345
 # of contracted shells                  ...   55
 # of contracted basis functions         ...  189
 Highest angular momentum                ...    4
 Maximum contraction depth               ...   11
 Integral package used                   ... LIBINT
 Integral threshhold            Thresh   ...  1.000e-12
 Primitive cut-off              TCut     ...  1.000e-14


------------------------------ INTEGRAL EVALUATION ----------------------------


 * One electron integrals 
 Pre-screening matrix                    ... done
 Shell pair data                         ... done (   0.000 sec)



           ************************************************************
           *        Program running with 24 parallel MPI-processes    *
           *              working on a common directory               *
           ************************************************************
[...]
  7  -3836.091385810     -1.088399045     -0.000085577      0.000235608   15.98      0.098456560
  8  -3836.091412040     -1.088425274     -0.000026230      0.000137292   15.22      0.098790046
  9  -3836.091408137     -1.088421371      0.000003903      0.000063205   15.72      0.098747373
 10  -3836.091413900     -1.088427134     -0.000005763      0.000021570   15.47      0.098766635
 11  -3836.091408808     -1.088422042      0.000005092      0.000006717   15.34      0.098728766
 12  -3836.091410183     -1.088423417     -0.000001375      0.000003855   15.52      0.098739090
 13  -3836.091410123     -1.088423358      0.000000060      0.000001752   15.74      0.098737503
 14  -3836.091410589     -1.088423823     -0.000000466      0.000001041   15.40      0.098741920
 15  -3836.091410615     -1.088423849     -0.000000026      0.000000604   15.46      0.098742764
               --- The Coupled-Cluster iterations have converged ---

----------------------
COUPLED CLUSTER ENERGY
----------------------

E(0)                                       ...  -3835.002986766
E(CORR)                                    ...     -1.088423849
E(TOT)                                     ...  -3836.091410615
Singles norm <S|S>**1/2                    ...      0.098742764 ( 0.050091642, 0.048651122)  
T1 diagnostic                              ...      0.017188909                              

------------------
LARGEST AMPLITUDES
------------------
  25b-> 36b  -1b-> -1b       0.040805
  25b-> 43b  -1b-> -1b       0.037709
  27b-> 41b  -1b-> -1b       0.033604
  26b-> 42b  -1b-> -1b       0.033604
  27b-> 38b  -1b-> -1b       0.033175
  26b-> 39b  -1b-> -1b       0.033175
  32a-> 35a  -1a-> -1a       0.031274
  25b-> 47b  -1b-> -1b       0.028993
  32a-> 41a  -1a-> -1a       0.025261
  27b-> 49b  26b-> 50b       0.024429
  27b-> 50b  26b-> 49b       0.024429
  32a-> 44a  -1a-> -1a       0.024006
  31a-> 53a  30a-> 52a       0.023771
  31a-> 52a  30a-> 53a       0.023771
  32a-> 48a  -1a-> -1a       0.023337
  24b-> 37b  -1b-> -1b       0.022417

----------------------
UHF TRIPLES CORRECTION (Algorithm 1)
----------------------

Multiplier for the singles contribution    ...      1.000000000

SPIN-CASE Alpha-Alpha-Alpha:
10% done
20% done
30% done
40% done
50% done
60% done
70% done
80% done
90% done


SPIN-CASE Beta-Beta-Beta:
10% done
20% done
30% done
40% done
50% done
60% done
70% done
80% done
90% done


SPIN-CASE Alpha-Alpha-Beta:
10% done
20% done
30% done
40% done
50% done
60% done
70% done
80% done
90% done


SPIN-CASE Beta-Beta-Alpha:
10% done
20% done
30% done
40% done
50% done
60% done
70% done
80% done
90% done


Triples Correction (T)                     ...     -0.028580304
    alpha-alpha-alpha ... -0.002252110 (  7.9%)
    alpha-alpha-beta  ... -0.014997132 ( 52.5%)
    alpha-beta -beta  ... -0.010515640 ( 36.8%)
    beta -beta -beta  ... -0.000815422 (  2.9%)
Scaling of triples based on CCSD energies (Peterson et al. Molecular Physics 113, 1551 (2015))
E(T*) = f*E(T) where f = E(F12-CCSD)/E(CCSD) 
f = CCSD (with F12)/ CCSD (without F12)    ...      1.000000000
Scaled triples correction (T)              ...     -0.028580304

Final correlation energy                   ...     -1.117004153
E(CCSD)                                    ...  -3836.091410615
E(CCSD(T))                                 ...  -3836.119990919



        !!!!!!!!!!!!!!!!!!!!!!!!!!!!!!!!!!!!!!!!!!!!!!!!!!!!!!!!!!!!!!!!!!!!!!!!!! 
        !  Warning: Densities are linearized densities                           !
        !!!!!!!!!!!!!!!!!!!!!!!!!!!!!!!!!!!!!!!!!!!!!!!!!!!!!!!!!!!!!!!!!!!!!!!!!! 

NORM  =      1.198121658 sqrt=     1.094587437
W(HF) =      0.834639783
------------------------------------------------------------------------------
                           ORCA POPULATION ANALYSIS
------------------------------------------------------------------------------
Input electron density              ... 34_FeBr.mdcip
Input spin density                  ... 34_FeBr.mdcir
BaseName (.gbw .S,...)              ... 34_FeBr

                    ********************************
                    * MULLIKEN POPULATION ANALYSIS *
                    ********************************

------------------------------------------
MULLIKEN ATOMIC CHARGES AND SPIN DENSITIES
------------------------------------------
   0 Fe:    0.410429    4.892628
   1 Br:   -0.410429    0.107372
Sum of atomic charges       :   -0.0000000
Sum of atomic spin densities:    5.0000000

---------------------------------------------------
MULLIKEN REDUCED ORBITAL CHARGES AND SPIN DENSITIES
---------------------------------------------------
CHARGE
  0 Fes       :     6.960926  s :     6.960926
      pz      :     4.308493  p :    12.416264
      px      :     4.053885
      py      :     4.053885
      dz2     :     1.057684  d :     6.153548
      dxz     :     1.054937
      dyz     :     1.054937
      dx2y2   :     1.000582
      dxy     :     1.985408
      f0      :     0.008201  f :     0.054467
      f+1     :     0.012976
      f-1     :     0.012976
      f+2     :     0.004293
      f-2     :     0.005283
      f+3     :     0.005369
      f-3     :     0.005369
      g0      :     0.000511  g :     0.004365
      g+1     :     0.000481
      g-1     :     0.000481
      g+2     :     0.000404
      g-2     :     0.000505
      g+3     :     0.000472
      g-3     :     0.000472
      g+4     :     0.000519
      g-4     :     0.000519
  1 Brs       :     7.950461  s :     7.950461
      pz      :     5.637589  p :    17.317849
      px      :     5.840130
      py      :     5.840130
      dz2     :     2.026425  d :    10.099195
      dxz     :     2.021387
      dyz     :     2.021387
      dx2y2   :     2.014848
      dxy     :     2.015148
      f0      :     0.006658  f :     0.038853
      f+1     :     0.006465
      f-1     :     0.006465
      f+2     :     0.004920
      f-2     :     0.005068
      f+3     :     0.004639
      f-3     :     0.004639
      g0      :     0.000600  g :     0.004071
      g+1     :     0.000560
      g-1     :     0.000560
      g+2     :     0.000420
      g-2     :     0.000440
      g+3     :     0.000380
      g-3     :     0.000380
      g+4     :     0.000366
      g-4     :     0.000366

SPIN
  0 Fes       :     0.784733  s :     0.784733
      pz      :     0.239108  p :     0.274562
      px      :     0.017727
      py      :     0.017727
      dz2     :     0.918084  d :     3.816351
      dxz     :     0.951603
      dyz     :     0.951603
      dx2y2   :     0.990101
      dxy     :     0.004960
      f0      :     0.003055  f :     0.015048
      f+1     :     0.002273
      f-1     :     0.002273
      f+2     :     0.002938
      f-2     :     0.001839
      f+3     :     0.001335
      f-3     :     0.001335
      g0      :     0.000257  g :     0.001935
      g+1     :     0.000255
      g-1     :     0.000255
      g+2     :     0.000251
      g-2     :     0.000228
      g+3     :     0.000202
      g-3     :     0.000202
      g+4     :     0.000142
      g-4     :     0.000142
  1 Brs       :    -0.001914  s :    -0.001914
      pz      :     0.050175  p :     0.107275
      px      :     0.028550
      py      :     0.028550
      dz2     :    -0.000235  d :     0.000731
      dxz     :     0.000310
      dyz     :     0.000310
      dx2y2   :     0.000294
      dxy     :     0.000052
      f0      :     0.000362  f :     0.001107
      f+1     :     0.000307
      f-1     :     0.000307
      f+2     :     0.000097
      f-2     :    -0.000017
      f+3     :     0.000025
      f-3     :     0.000025
      g0      :     0.000062  g :     0.000173
      g+1     :     0.000050
      g-1     :     0.000050
      g+2     :     0.000012
      g-2     :    -0.000003
      g+3     :     0.000000
      g-3     :     0.000000
      g+4     :     0.000000
      g-4     :     0.000000


                     *******************************
                     * LOEWDIN POPULATION ANALYSIS *
                     *******************************

-----------------------------------------
LOEWDIN ATOMIC CHARGES AND SPIN DENSITIES
-----------------------------------------
   0 Fe:   -0.364585    4.848643
   1 Br:    0.364585    0.151357

--------------------------------------------------
LOEWDIN REDUCED ORBITAL CHARGES AND SPIN DENSITIES
--------------------------------------------------
CHARGE
  0 Fes       :     6.923560  s :     6.923560
      pz      :     4.543806  p :    12.728287
      px      :     4.092240
      py      :     4.092240
      dz2     :     1.222280  d :     6.469974
      dxz     :     1.131200
      dyz     :     1.131200
      dx2y2   :     1.000480
      dxy     :     1.984814
      f0      :     0.075420  f :     0.238019
      f+1     :     0.070842
      f-1     :     0.070842
      f+2     :     0.004597
      f-2     :     0.005577
      f+3     :     0.005371
      f-3     :     0.005371
      g0      :     0.000718  g :     0.004745
      g+1     :     0.000567
      g-1     :     0.000567
      g+2     :     0.000405
      g-2     :     0.000505
      g+3     :     0.000472
      g-3     :     0.000472
      g+4     :     0.000519
      g-4     :     0.000519
  1 Brs       :     7.535223  s :     7.535223
      pz      :     5.603395  p :    16.942212
      px      :     5.669408
      py      :     5.669408
      dz2     :     2.038012  d :    10.103670
      dxz     :     2.018091
      dyz     :     2.018091
      dx2y2   :     2.014519
      dxy     :     2.014956
      f0      :     0.013870  f :     0.049033
      f+1     :     0.007687
      f-1     :     0.007687
      f+2     :     0.005024
      f-2     :     0.005493
      f+3     :     0.004637
      f-3     :     0.004637
      g0      :     0.001264  g :     0.005276
      g+1     :     0.000786
      g-1     :     0.000786
      g+2     :     0.000442
      g-2     :     0.000506
      g+3     :     0.000380
      g-3     :     0.000380
      g+4     :     0.000366
      g-4     :     0.000366

SPIN
  0 Fes       :     0.691337  s :     0.691337
      pz      :     0.297133  p :     0.336327
      px      :     0.019597
      py      :     0.019597
      dz2     :     0.915010  d :     3.799370
      dxz     :     0.944682
      dyz     :     0.944682
      dx2y2   :     0.989865
      dxy     :     0.005130
      f0      :     0.004991  f :     0.019660
      f+1     :     0.003608
      f-1     :     0.003608
      f+2     :     0.002936
      f-2     :     0.001848
      f+3     :     0.001335
      f-3     :     0.001335
      g0      :     0.000274  g :     0.001949
      g+1     :     0.000254
      g-1     :     0.000254
      g+2     :     0.000251
      g-2     :     0.000227
      g+3     :     0.000202
      g-3     :     0.000202
      g+4     :     0.000142
      g-4     :     0.000142
  1 Brs       :     0.007990  s :     0.007990
      pz      :     0.066902  p :     0.121560
      px      :     0.027329
      py      :     0.027329
      dz2     :     0.007317  d :     0.013735
      dxz     :     0.003041
      dyz     :     0.003041
      dx2y2   :     0.000345
      dxy     :    -0.000010
      f0      :     0.002287  f :     0.006994
      f+1     :     0.002260
      f-1     :     0.002260
      f+2     :     0.000258
      f-2     :    -0.000121
      f+3     :     0.000025
      f-3     :     0.000025
      g0      :     0.000446  g :     0.001079
      g+1     :     0.000305
      g-1     :     0.000305
      g+2     :     0.000037
      g-2     :    -0.000016
      g+3     :     0.000000
      g-3     :     0.000000
      g+4     :     0.000000
      g-4     :     0.000000


                      *****************************
                      * MAYER POPULATION ANALYSIS *
                      *****************************

  NA   - Mulliken gross atomic population
  ZA   - Total nuclear charge
  QA   - Mulliken gross atomic charge
  VA   - Mayer's total valence
  BVA  - Mayer's bonded valence
  FA   - Mayer's free valence

  ATOM       NA         ZA         QA         VA         BVA        FA
  0 Fe    25.5896    26.0000     0.4104     6.2032     0.9425     5.2607
  1 Br    35.4104    35.0000    -0.4104     1.7248     0.9425     0.7823

  Mayer bond orders larger than 0.100000
B(  0-Fe,  1-Br) :   0.9425 



------------------------------------------------------------------------------- 
                                     TIMINGS                                   
------------------------------------------------------------------------------- 


Total execution time                   ...      354.956 sec

Fock Matrix Formation                  ...        2.009 sec (  0.6%)
Initial Guess                          ...        0.291 sec (  0.1%)
DIIS Solver                            ...       15.087 sec (  4.3%)
State Vector Update                    ...        0.642 sec (  0.2%)
Sigma-vector construction              ...      225.926 sec ( 63.6%)
  <0|H|D>                              ...        0.033 sec (  0.0% of sigma)
  <D|H|D>(0-ext Fock)                  ...        0.478 sec (  0.2% of sigma)
  <D|H|D>(0-ext)                       ...        3.705 sec (  1.6% of sigma)
  <D|H|D>(2-ext Fock)                  ...        0.101 sec (  0.0% of sigma)
  <D|H|D>(2-ext)                       ...        8.271 sec (  3.7% of sigma)
  <D|H|D>(4-ext)                       ...      105.787 sec ( 46.8% of sigma)
  <S|H|0>                              ...       40.699 sec ( 18.0% of sigma)
  <S|H|S>                              ...        0.006 sec (  0.0% of sigma)
  <S|H|D>(1-ext)                       ...        0.090 sec (  0.0% of sigma)
  <D|H|S>(1-ext)                       ...        1.033 sec (  0.5% of sigma)
  Fock-dressing                        ...       24.860 sec ( 11.0% of sigma)
  (ik|jl)-dressing                     ...        4.444 sec (  2.0% of sigma)
  (ij|ab),(ia|jb)-dressing             ...       30.174 sec ( 13.4% of sigma)
  Pair energies                        ...        0.050 sec (  0.0% of sigma)
Total Time for computing (T)           ...       89.866 sec ( 25.3% of ALL)
  I/O of integral and amplitudes       ...       10.997 sec ( 12.2% of (T))
  External N**7 contributions          ...       34.359 sec ( 38.2% of (T))
  Internal N**7 contributions          ...        9.966 sec ( 11.1% of (T))
  N**6 triples energy contributions    ...       33.609 sec ( 37.4% of (T))


-------------------
EXTRAPOLATED ENERGY
-------------------


-----------------------------------------------------------------
                      EP1 - MDCI extrapolation:
-----------------------------------------------------------------
NOTE: We use as reference SCF energy, for the extrapolation, the one from the MDCI module and not the one 
from the SCF calculation. In case the first step is a DFT calculation these two might be different.

NOTE: For the SCF part we extrapolate based on the scheme proposed in J. Chem. Phys. 2008, 129, 184116
using the exponents from J. Chem. Theory Comput., 7, 33-43 (2011)

NOTE: For the correlation part we extrapolate based on the scheme proposed in J. Chem. Phys. 1997, 106, 9639
using the exponents from J. Chem. Theory Comput., 7, 33-43 (2011)


Alpha(3/4)     :  7.880 (SCF Extrapolation)
Beta(3/4)      :  2.970 (correlation extrapolation)

SCF energy with basis def2-TZVPP:                     -3834.927229990
SCF energy with basis def2-QZVPP:                     -3835.002986766
Extrapolated CBS SCF energy (3/4) :                   -3835.013421405 (-0.010434639) 

MDCI energy with basis def2-TZVPP:                       -0.794637598
MDCI energy with basis def2-QZVPP:                       -1.117004153
Extrapolated CBS correlation energy (3/4) :              -1.355794017 (-0.238789864)

Estimated CBS total energy (3/4) :                    -3836.369215421



-------------------------   --------------------
FINAL SINGLE POINT ENERGY     -3836.369215421351
-------------------------   --------------------


                            ***************************************
                            *     ORCA property calculations      *
                            ***************************************

                                    ---------------------
                                    Active property flags
                                    ---------------------
   (+) Dipole Moment


------------------------------------------------------------------------------
                       ORCA ELECTRIC PROPERTIES CALCULATION
------------------------------------------------------------------------------

Dipole Moment Calculation                       ... on
Quadrupole Moment Calculation                   ... off
Polarizability Calculation                      ... off
GBWName                                         ... 34_FeBr.gbw
Electron density file                           ... 34_FeBr.scfp
The origin for moment calculation is the CENTER OF MASS  = ( 0.000000,  0.000000  2.278931)

-------------
DIPOLE MOMENT
-------------
                                X             Y             Z
Electronic contribution:      0.00000       0.00000       2.84549
Nuclear contribution   :      0.00000       0.00000      -3.96973
                        -----------------------------------------
Total Dipole Moment    :      0.00000       0.00000      -1.12424
                        -----------------------------------------
Magnitude (a.u.)       :      1.12424
Magnitude (Debye)      :      2.85759



--------------------
Rotational spectrum 
--------------------
 
Rotational constants in cm-1:     0.000000     0.094863     0.094863 
Rotational constants in MHz :     0.000000  2843.931812  2843.931812 

 Dipole components along the rotational axes: 
x,y,z [a.u.] :    -1.124240     0.000000     0.000000 
x,y,z [Debye]:    -2.857590     0.000000     0.000000 

 

                           *** MDCI DENSITY ***

------------------------------------------------------------------------------
                       ORCA ELECTRIC PROPERTIES CALCULATION
------------------------------------------------------------------------------

Dipole Moment Calculation                       ... on
Quadrupole Moment Calculation                   ... off
Polarizability Calculation                      ... off
GBWName                                         ... 34_FeBr.gbw
Electron density file                           ... 34_FeBr.mdcip
The origin for moment calculation is the CENTER OF MASS  = ( 0.000000,  0.000000  2.278931)

-------------
DIPOLE MOMENT
-------------
                                X             Y             Z
Electronic contribution:      0.00000      -0.00000       3.02676
Nuclear contribution   :      0.00000       0.00000      -3.96973
                        -----------------------------------------
Total Dipole Moment    :      0.00000      -0.00000      -0.94297
                        -----------------------------------------
Magnitude (a.u.)       :      0.94297
Magnitude (Debye)      :      2.39683



--------------------
Rotational spectrum 
--------------------
 
Rotational constants in cm-1:     0.000000     0.094863     0.094863 
Rotational constants in MHz :     0.000000  2843.931812  2843.931812 

 Dipole components along the rotational axes: 
x,y,z [a.u.] :    -0.942968    -0.000000     0.000000 
x,y,z [Debye]:    -2.396834    -0.000000     0.000000 

 

Timings for individual modules:

Sum of individual times         ...      429.142 sec (=   7.152 min)
GTO integral calculation        ...        2.079 sec (=   0.035 min)   0.5 %
SCF iterations                  ...       15.711 sec (=   0.262 min)   3.7 %
MDCI module                     ...      411.352 sec (=   6.856 min)  95.9 %
                             ****ORCA TERMINATED NORMALLY****
TOTAL RUN TIME: 0 days 0 hours 7 minutes 10 seconds 148 msec
