
                                 *****************
                                 * O   R   C   A *
                                 *****************

           --- An Ab Initio, DFT and Semiempirical electronic structure package ---

                  #######################################################
                  #                        -***-                        #
                  #          Department of theory and spectroscopy      #
                  #               Directorship: Frank Neese             #
                  #        Max Planck Institute fuer Kohlenforschung    #
                  #                Kaiser Wilhelm Platz 1               #
                  #                 D-45470 Muelheim/Ruhr               #
                  #                      Germany                        #
                  #                                                     #
                  #                  All rights reserved                #
                  #                        -***-                        #
                  #######################################################


                         Program Version 4.2.0 -  RELEASE  -


 With contributions from (in alphabetic order):
   Daniel Aravena         : Magnetic Suceptibility
   Michael Atanasov       : Ab Initio Ligand Field Theory (pilot matlab implementation)
   Alexander A. Auer      : GIAO ZORA, VPT2
   Ute Becker             : Parallelization
   Giovanni Bistoni       : ED, misc. LED, open-shell LED, HFLED
   Martin Brehm           : Molecular dynamics
   Dmytro Bykov           : SCF Hessian
   Vijay G. Chilkuri      : MRCI spin determinant printing, contributions to CSF-ICE
   Dipayan Datta          : RHF DLPNO-CCSD density
   Achintya Kumar Dutta   : EOM-CC, STEOM-CC
   Dmitry Ganyushin       : Spin-Orbit,Spin-Spin,Magnetic field MRCI
   Miquel Garcia          : C-PCM Hessian, Gaussian charge scheme
   Yang Guo               : DLPNO-NEVPT2, CIM, IAO-localization
   Andreas Hansen         : Spin unrestricted coupled pair/coupled cluster methods
   Benjamin Helmich-Paris : CASSCF linear response (MC-RPA)
   Lee Huntington         : MR-EOM, pCC
   Robert Izsak           : Overlap fitted RIJCOSX, COSX-SCS-MP3, EOM
   Christian Kollmar      : KDIIS, OOCD, Brueckner-CCSD(T), CCSD density
   Simone Kossmann        : Meta GGA functionals, TD-DFT gradient, OOMP2, MP2 Hessian
   Martin Krupicka        : AUTO-CI
   Lucas Lang             : DCDCAS
   Dagmar Lenk            : GEPOL surface, SMD
   Dimitrios Liakos       : Extrapolation schemes; Compound Job, initial MDCI parallelization
   Dimitrios Manganas     : Further ROCIS development; embedding schemes
   Dimitrios Pantazis     : SARC Basis sets
   Taras Petrenko         : DFT Hessian,TD-DFT gradient, ASA, ECA, R-Raman, ABS, FL, XAS/XES, NRVS
   Peter Pinski           : DLPNO-MP2, DLPNO-MP2 Gradient
   Christoph Reimann      : Effective Core Potentials
   Marius Retegan         : Local ZFS, SOC
   Christoph Riplinger    : Optimizer, TS searches, QM/MM, DLPNO-CCSD(T), (RO)-DLPNO pert. Triples
   Tobias Risthaus        : Range-separated hybrids, TD-DFT gradient, RPA, STAB
   Michael Roemelt        : Original ROCIS implementation
   Masaaki Saitow         : Open-shell DLPNO-CCSD energy and density
   Barbara Sandhoefer     : DKH picture change effects
   Avijit Sen             : IP-ROCIS
   Kantharuban Sivalingam : CASSCF convergence, NEVPT2, FIC-MRCI
   Bernardo de Souza      : ESD, SOC TD-DFT
   Georgi Stoychev        : AutoAux, RI-MP2 NMR
   Willem Van den Heuvel  : Paramagnetic NMR
   Boris Wezisla          : Elementary symmetry handling
   Frank Wennmohs         : Technical directorship


 We gratefully acknowledge several colleagues who have allowed us to
 interface, adapt or use parts of their codes:
   Stefan Grimme, W. Hujo, H. Kruse,             : VdW corrections, initial TS optimization,
                  C. Bannwarth                     DFT functionals, gCP, sTDA/sTD-DF
   Ed Valeev, F. Pavosevic, A. Kumar             : LibInt (2-el integral package), F12 methods
   Garnet Chan, S. Sharma, J. Yang, R. Olivares  : DMRG
   Ulf Ekstrom                                   : XCFun DFT Library
   Mihaly Kallay                                 : mrcc  (arbitrary order and MRCC methods)
   Andreas Klamt, Michael Diedenhofen            : otool_cosmo (COSMO solvation model)
   Jiri Pittner, Ondrej Demel                    : Mk-CCSD
   Frank Weinhold                                : gennbo (NPA and NBO analysis)
   Christopher J. Cramer and Donald G. Truhlar   : smd solvation model
   Lars Goerigk                                  : TD-DFT with DH, B97 family of functionals
   V. Asgeirsson, H. Jonsson                     : NEB implementation
   FAccTs GmbH                                   : IRC, NEB, NEB-TS, Multilevel, MM, QM/MM, CI optimization
   S Lehtola, MJT Oliveira, MAL Marques          : LibXC Library


 Your calculation uses the libint2 library for the computation of 2-el integrals
 For citations please refer to: http://libint.valeyev.net

 Your ORCA version has been built with support for libXC version: 4.2.3
 For citations please refer to: https://tddft.org/programs/libxc/

 This ORCA versions uses:
   CBLAS   interface :  Fast vector & matrix operations
   LAPACKE interface :  Fast linear algebra routines
   SCALAPACK package :  Parallel linear algebra routines


----- Orbital basis set information -----
Your calculation utilizes the basis: def2-TZVPP
   F. Weigend and R. Ahlrichs, Phys. Chem. Chem. Phys. 7, 3297 (2005).

================================================================================
                                        WARNINGS
                       Please study these warnings very carefully!
================================================================================


WARNING: your system is open-shell and RHF/RKS was chosen
  ===> : WILL SWITCH to UHF/UKS


WARNING: MDCI localization with Augmented Hessian Foster-Boys
  ===> : Switching off randomization!

WARNING: Post HF methods need fully converged wavefunctions
  ===> : Setting SCFConvForced true
         You can overwrite this default with %scf ConvForced false 


INFO   : the flag for use of LIBINT has been found!

================================================================================
                                       INPUT FILE
================================================================================
NAME = 35_FeO.in
|  1> #
|  2> # 35_FeO ccsd(t)/cbs
|  3> #
|  4> ! ccsd(t) extrapolate(3/4,def2) verytightscf
|  5> 
|  6> *xyz 0 5
|  7>   Fe  0.00000000000000      0.00000000000000      0.19611340956582
|  8>   O   0.00000000000000      0.00000000000000      1.80388659043418
|  9> *
| 10> 
| 11> %maxcore 5000
| 12> %pal
| 13> nprocs 24
| 14> end
| 15> 
| 16> 
| 17>                          ****END OF INPUT****
================================================================================

                   *****************************************
                   * Extrapolated Single Point Calculation *
                   *****************************************

----- Orbital basis set information -----
Your calculation utilizes the basis: def2-TZVPP
   F. Weigend and R. Ahlrichs, Phys. Chem. Chem. Phys. 7, 3297 (2005).

----- AuxJ basis set information -----
Your calculation utilizes the auxiliary basis: def2/J
   F. Weigend, Phys. Chem. Chem. Phys. 8, 1057 (2006).

----- AuxC basis set information -----
Your calculation utilizes the auxiliary basis: def2-TZVPP/C
  H-La, Hf-Rn : A. Hellweg, C. Hattig, S. Hofener and W. Klopper, Theor. Chem. Acc. 117, 587 (2007).
        Ce-Lu : J. Chmela and M. E. Harding, Mol. Phys. (2018).

----- AuxJK basis set information -----
Your calculation utilizes the auxiliary basis: def2/JK
   H-Ba, Hf-Rn: F. Weigend, J. Comput. Chem. 29, 167 (2008).

All done

                     -----------------------------------------
                     Extrapolated Energy 1 Basis=  def2-TZVPP
                     -----------------------------------------

---------------------------------
CARTESIAN COORDINATES (ANGSTROEM)
---------------------------------
  Fe     0.000000    0.000000    0.196113
  O      0.000000    0.000000    1.803887

----------------------------
CARTESIAN COORDINATES (A.U.)
----------------------------
  NO LB      ZA    FRAG     MASS         X           Y           Z
   0 Fe   26.0000    0    55.850    0.000000    0.000000    0.370601
   1 O     8.0000    0    15.999    0.000000    0.000000    3.408852

--------------------------------
INTERNAL COORDINATES (ANGSTROEM)
--------------------------------
 Fe     0   0   0     0.000000000000     0.00000000     0.00000000
 O      1   0   0     1.607773180868     0.00000000     0.00000000

---------------------------
INTERNAL COORDINATES (A.U.)
---------------------------
 Fe     0   0   0     0.000000000000     0.00000000     0.00000000
 O      1   0   0     3.038250997305     0.00000000     0.00000000

---------------------
BASIS SET INFORMATION
---------------------
There are 2 groups of distinct atoms

 Group   1 Type Fe  : 17s12p7d2f1g contracted to 6s5p4d2f1g pattern {842111/63111/4111/11/1}
 Group   2 Type O   : 11s6p2d1f contracted to 5s3p2d1f pattern {62111/411/11/1}

Atom   0Fe   basis set group =>   1
Atom   1O    basis set group =>   2
---------------------------------
AUXILIARY/J BASIS SET INFORMATION
---------------------------------
There are 2 groups of distinct atoms

 Group   1 Type Fe  : 19s5p5d3f3g contracted to 8s5p5d2f3g pattern {121111111/11111/11111/21/111}
 Group   2 Type O   : 12s5p4d2f1g contracted to 6s4p3d1f1g pattern {711111/2111/211/2/1}

Atom   0Fe   basis set group =>   1
Atom   1O    basis set group =>   2
---------------------------------
AUXILIARY/C BASIS SET INFORMATION
---------------------------------
There are 2 groups of distinct atoms

 Group   1 Type Fe  : 9s9p8d7f5g3h1i contracted to 9s9p8d7f5g3h1i pattern {111111111/111111111/11111111/1111111/11111/111/1}
 Group   2 Type O   : 8s6p5d3f1g contracted to 8s6p4d3f1g pattern {11111111/111111/2111/111/1}

Atom   0Fe   basis set group =>   1
Atom   1O    basis set group =>   2
----------------------------------
AUXILIARY/JK BASIS SET INFORMATION
----------------------------------
There are 2 groups of distinct atoms

 Group   1 Type Fe  : 19s14p12d10f7g3h1i contracted to 16s13p11d9f5g3h1i pattern {4111111111111111/2111111111111/21111111111/211111111/31111/111/1}
 Group   2 Type O   : 14s10p6d2f1g contracted to 10s8p4d2f1g pattern {5111111111/31111111/3111/11/1}

Atom   0Fe   basis set group =>   1
Atom   1O    basis set group =>   2


           ************************************************************
           *        Program running with 24 parallel MPI-processes    *
           *              working on a common directory               *
           ************************************************************
------------------------------------------------------------------------------
                           ORCA GTO INTEGRAL CALCULATION
------------------------------------------------------------------------------

                         BASIS SET STATISTICS AND STARTUP INFO

 # of primitive gaussian shells          ...   59
 # of primitive gaussian functions       ...  157
 # of contracted shells                  ...   29
 # of contracted basis functions         ...   95
 Highest angular momentum                ...    4
 Maximum contraction depth               ...    8
 Integral package used                   ... LIBINT
 Integral threshhold            Thresh   ...  1.000e-12
 Primitive cut-off              TCut     ...  1.000e-14


------------------------------ INTEGRAL EVALUATION ----------------------------


 * One electron integrals 
 Pre-screening matrix                    ... done
 Shell pair data                         ... done (   0.000 sec)



           ************************************************************
           *        Program running with 24 parallel MPI-processes    *
           *              working on a common directory               *
           ************************************************************
-------------------------------------------------------------------------------
                                 ORCA SCF
-------------------------------------------------------------------------------

------------
SCF SETTINGS
------------
Hamiltonian:
 Ab initio Hamiltonian  Method          .... Hartree-Fock(GTOs)


General Settings:
 Integral files         IntName         .... 35_FeO
 Hartree-Fock type      HFTyp           .... UHF
 Total Charge           Charge          ....    0
 Multiplicity           Mult            ....    5
 Number of Electrons    NEL             ....   34
 Basis Dimension        Dim             ....   95
 Nuclear Repulsion      ENuc            ....     68.4604399651 Eh

Convergence Acceleration:
 DIIS                   CNVDIIS         .... on
   Start iteration      DIISMaxIt       ....    12
   Startup error        DIISStart       ....  0.200000
   # of expansion vecs  DIISMaxEq       ....     5
   Bias factor          DIISBfac        ....   1.050
   Max. coefficient     DIISMaxC        ....  10.000
 Newton-Raphson         CNVNR           .... off
 SOSCF                  CNVSOSCF        .... off
 Level Shifting         CNVShift        .... on
   Level shift para.    LevelShift      ....    0.2500
   Turn off err/grad.   ShiftErr        ....    0.0010
 Zerner damping         CNVZerner       .... off
 Static damping         CNVDamp         .... on
   Fraction old density DampFac         ....    0.7000
   Max. Damping (<1)    DampMax         ....    0.9800
   Min. Damping (>=0)   DampMin         ....    0.0000
   Turn off err/grad.   DampErr         ....    0.1000
 Fernandez-Rico         CNVRico         .... off

SCF Procedure:
 Maximum # iterations   MaxIter         ....   125
 SCF integral mode      SCFMode         .... Direct
   Integral package                     .... LIBINT
 Reset frequency        DirectResetFreq ....    20
 Integral Threshold     Thresh          ....  1.000e-12 Eh
 Primitive CutOff       TCut            ....  1.000e-14 Eh

Convergence Tolerance:
 Convergence Check Mode ConvCheckMode   .... Total+1el-Energy
 Convergence forced     ConvForced      .... 1
 Energy Change          TolE            ....  1.000e-09 Eh
 1-El. energy change                    ....  1.000e-06 Eh
 DIIS Error             TolErr          ....  1.000e-08


Diagonalization of the overlap matrix:
Smallest eigenvalue                        ... 4.065e-03
Time for diagonalization                   ...    0.002 sec
Threshold for overlap eigenvalues          ... 1.000e-08
Number of eigenvalues below threshold      ... 0
Time for construction of square roots      ...    0.002 sec
Total time needed                          ...    0.004 sec

-------------------
DFT GRID GENERATION
-------------------

General Integration Accuracy     IntAcc      ...  4.340
Radial Grid Type                 RadialGrid  ... Gauss-Chebyshev
Angular Grid (max. acc.)         AngularGrid ... Lebedev-110
Angular grid pruning method      GridPruning ... 3 (G Style)
Weight generation scheme         WeightScheme... Becke
Basis function cutoff            BFCut       ...    1.0000e-12
Integration weight cutoff        WCut        ...    1.0000e-14
Grids for H and He will be reduced by one unit

# of grid points (after initial pruning)     ...   4628 (   0.0 sec)
# of grid points (after weights+screening)   ...   4601 (   0.0 sec)
nearest neighbour list constructed           ...    0.0 sec
Grid point re-assignment to atoms done       ...    0.0 sec
Grid point division into batches done        ...    0.0 sec
Reduced shell lists constructed in    0.0 sec

Total number of grid points                  ...     4601
Total number of batches                      ...       73
Average number of points per batch           ...       63
Average number of grid points per atom       ...     2300
Average number of shells per batch           ...     8.00 (27.59%)
Average number of basis functions per batch  ...    21.60 (22.74%)
Average number of large shells per batch     ...     6.40 (80.00%)
Average number of large basis fcns per batch ...    17.60 (81.48%)
Maximum spatial batch extension              ...  19.55, 28.73, 15.77 au
Average spatial batch extension              ...   0.97,  1.33,  0.86 au

Time for grid setup =    0.024 sec

------------------------------
INITIAL GUESS: MODEL POTENTIAL
------------------------------
Loading Hartree-Fock densities                     ... done
Calculating cut-offs                               ... done
Setting up the integral package                    ... done
Initializing the effective Hamiltonian             ... done
Starting the Coulomb interaction                   ... done (   0.0 sec)
Reading the grid                                   ... done
Mapping shells                                     ... done
Starting the XC term evaluation                    ... done (   0.0 sec)
Transforming the Hamiltonian                       ... done (   0.0 sec)
Diagonalizing the Hamiltonian                      ... done (   0.0 sec)
Back transforming the eigenvectors                 ... done (   0.0 sec)
Now organizing SCF variables                       ... done
                      ------------------
                      INITIAL GUESS DONE (   0.1 sec)
                      ------------------
--------------
SCF ITERATIONS
--------------
ITER       Energy         Delta-E        Max-DP      RMS-DP      [F,P]     Damp
               ***  Starting incremental Fock matrix formation  ***
  0  -1336.9311826543   0.000000000000 0.03340227  0.00107966  0.4421842 0.7000
  1  -1337.0413928153  -0.110210161018 0.02109250  0.00066085  0.2186936 0.7000
                               ***Turning on DIIS***
  2  -1337.0873803469  -0.045987531585 0.01020356  0.00034596  0.1682799 0.7000
  3  -1337.2950012607  -0.207620913767 0.00512090  0.00025185  0.1248997 0.7000
  4  -1337.4745721591  -0.179570898386 0.01781558  0.00078889  0.0875274 0.0000
  5  -1337.2617268467   0.212845312334 0.00986564  0.00030808  0.0178186 0.0000
  6  -1337.2293218262   0.032405020526 0.01253504  0.00029794  0.0118766 0.0000
  7  -1337.2742985051  -0.044976678903 0.02332923  0.00040569  0.0105087 0.0000
  8  -1337.2376377748   0.036660730344 0.01892207  0.00030137  0.0102943 0.0000
  9  -1337.1854751870   0.052162587771 0.00964741  0.00016674  0.0105329 0.0000
 10  -1337.1199006855   0.065574501494 0.00695247  0.00008894  0.0103022 0.0000
 11  -1337.1135697249   0.006330960580 0.00097152  0.00002503  0.0112154 0.0000
 12  -1337.1071176477   0.006452077223 0.00059384  0.00001224  0.0096055 0.0000
 13  -1337.1628823528  -0.055764705140 0.01306992  0.00018539  0.0094416 0.0000
 14  -1337.2152295531  -0.052347200293 0.01439013  0.00022443  0.0105522 0.0000
 15  -1337.2337384222  -0.018508869101 0.01507519  0.00024614  0.0121164 0.0000
 16  -1337.1277847744   0.105953647826 0.01982258  0.00025997  0.0128950 0.0000
 17  -1337.1107767421   0.017008032340 0.01056112  0.00016891  0.0113038 0.0000
 18  -1337.1583682029  -0.047591460843 0.00645129  0.00008232  0.0127402 0.0000
 19  -1337.2152391118  -0.056870908900 0.01903072  0.00027465  0.0112643 0.0000
               *** Restarting incremental Fock matrix formation ***
                                   *** Resetting DIIS ***
 20  -1337.2333789569  -0.018139845064 0.01514325  0.00025854  0.0120452 0.0000
 21  -1337.2326744883   0.000704468592 0.01533641  0.00026612  0.0139470 0.0000
 22  -1337.0486987302   0.183975758045 0.03420935  0.00050054  0.0141472 0.0000
 23  -1337.0814352803  -0.032736550032 0.00626220  0.00012847  0.0184481 0.0000
 24  -1337.1127344975  -0.031299217272 0.00376045  0.00007215  0.0167317 0.0000
 25  -1337.2137693005  -0.101034802997 0.01955919  0.00028839  0.0153106 0.0000
 26  -1337.2470450432  -0.033275742673 0.02627453  0.00041973  0.0119518 0.0000
 27  -1337.1842464244   0.062798618847 0.00833936  0.00016987  0.0146919 0.0000
 28  -1336.9986979060   0.185548518377 0.03133369  0.00046036  0.0139871 0.0000
 29  -1337.0013369998  -0.002639093796 0.00791305  0.00015170  0.0174421 0.0000
 30  -1337.0525164196  -0.051179419778 0.00258645  0.00004707  0.0151218 0.0000
 31  -1337.1788412675  -0.126324847969 0.01713997  0.00025070  0.0133351 0.0000
 32  -1337.1797690771  -0.000927809538 0.00777218  0.00014965  0.0126960 0.0000
 33  -1337.1921830484  -0.012413971360 0.01520192  0.00026150  0.0133401 0.0000
 34  -1337.1270136193   0.065169429100 0.00831246  0.00010544  0.0142188 0.0000
 35  -1337.0957203306   0.031293288717 0.00765857  0.00011484  0.0126876 0.0000
 36  -1337.1153236397  -0.019603309092 0.00302469  0.00003858  0.0134631 0.0000
 37  -1337.2076890377  -0.092365397995 0.02133546  0.00033868  0.0130834 0.0000
 38  -1337.2462003167  -0.038511279004 0.02019844  0.00039187  0.0147625 0.0000
 39  -1337.2564130255  -0.010212708763 0.01487042  0.00034648  0.0161590 0.0000
               *** Restarting incremental Fock matrix formation ***
                                   *** Resetting DIIS ***
 40  -1337.2509289962   0.005484029224 0.01228477  0.00028372  0.0157465 0.0000
 41  -1337.2877943025  -0.036865306238 0.01424351  0.00036244  0.0151371 0.0000
 42  -1337.3456690565  -0.057874753994 0.02265256  0.00062650  0.0141201 0.0000
 43  -1337.2560703163   0.089598740154 0.00696738  0.00017005  0.0113107 0.0000
 44  -1337.4043909683  -0.148320651934 0.02308716  0.00061881  0.0076236 0.0000
 45  -1337.3149828473   0.089408120956 0.01326088  0.00016665  0.0143036 0.0000
 46  -1337.2831189211   0.031863926228 0.01027174  0.00011602  0.0026140 0.0000
 47  -1337.2779106368   0.005208284281 0.00694909  0.00007863  0.0013243 0.0000
 48  -1337.2717945260   0.006116110757 0.00729978  0.00007569  0.0007927 0.0000
 49  -1337.2676602453   0.004134280771 0.00208262  0.00002169  0.0002397 0.0000
 50  -1337.2669671733   0.000693071942 0.00081668  0.00000969  0.0001078 0.0000
 51  -1337.2674964470  -0.000529273696 0.00040877  0.00000537  0.0000608 0.0000
 52  -1337.2665999932   0.000896453832 0.00010721  0.00000186  0.0000217 0.0000
 53  -1337.2667145602  -0.000114567031 0.00004873  0.00000101  0.0000118 0.0000
 54  -1337.2667023294   0.000012230775 0.00001254  0.00000036  0.0000041 0.0000
 55  -1337.2667472811  -0.000044951671 0.00001939  0.00000027  0.0000023 0.0000
 56  -1337.2667384965   0.000008784634 0.00001114  0.00000014  0.0000010 0.0000
 57  -1337.2667395611  -0.000001064667 0.00000343  0.00000004  0.0000004 0.0000
 58  -1337.2667406521  -0.000001090946 0.00000085  0.00000001  0.0000003 0.0000
 59  -1337.2667376518   0.000003000306 0.00000012  0.00000000  0.0000001 0.0000
               *** Restarting incremental Fock matrix formation ***
                                   *** Resetting DIIS ***
 60  -1337.2667379386  -0.000000286829 0.00000009  0.00000000  0.0000001 0.0000
 61  -1337.2667379258   0.000000012842 0.00000004  0.00000000  0.0000000 0.0000
 62  -1337.2667378580   0.000000067791 0.00000006  0.00000000  0.0000000 0.0000
                            ***DIIS convergence achieved***

               *****************************************************
               *                     SUCCESS                       *
               *           SCF CONVERGED AFTER  63 CYCLES          *
               *****************************************************


----------------
TOTAL SCF ENERGY
----------------

Total Energy       :        -1337.26673789 Eh          -36388.87791 eV

Components:
Nuclear Repulsion  :           68.46043997 Eh            1862.90328 eV
Electronic Energy  :        -1405.72717786 Eh          -38251.78119 eV
One Electron Energy:        -1985.23555006 Eh          -54021.00569 eV
Two Electron Energy:          579.50837220 Eh           15769.22450 eV

Virial components:
Potential Energy   :        -2674.79665462 Eh          -72784.91729 eV
Kinetic Energy     :         1337.52991672 Eh           36396.03937 eV
Virial Ratio       :            1.99980324


---------------
SCF CONVERGENCE
---------------

  Last Energy change         ...   -3.4508e-08  Tolerance :   1.0000e-09
  Last MAX-Density change    ...    2.5745e-08  Tolerance :   1.0000e-08
  Last RMS-Density change    ...    4.6726e-10  Tolerance :   1.0000e-09
  Last DIIS Error            ...    7.2875e-09  Tolerance :   1.0000e-08

             **** THE GBW FILE WAS UPDATED (35_FeO.gbw) ****
             **** DENSITY FILE WAS UPDATED (35_FeO.scfp) ****
             **** ENERGY FILE WAS UPDATED (35_FeO.en.tmp) ****
----------------------
UHF SPIN CONTAMINATION
----------------------

Expectation value of <S**2>     :     6.783239
Ideal value S*(S+1) for S=2.0   :     6.000000
Deviation                       :     0.783239

             **** THE GBW FILE WAS UPDATED (35_FeO.gbw) ****
             **** DENSITY FILE WAS UPDATED (35_FeO.scfp) ****
----------------
ORBITAL ENERGIES
----------------
                 SPIN UP ORBITALS
  NO   OCC          E(Eh)            E(eV) 
   0   1.0000    -261.372637     -7112.3110 
   1   1.0000     -31.994114      -870.6041 
   2   1.0000     -27.492411      -748.1065 
   3   1.0000     -27.460822      -747.2470 
   4   1.0000     -27.460822      -747.2470 
   5   1.0000     -20.528060      -558.5969 
   6   1.0000      -4.342870      -118.1755 
   7   1.0000      -3.003033       -81.7167 
   8   1.0000      -2.928989       -79.7018 
   9   1.0000      -2.928989       -79.7018 
  10   1.0000      -1.164812       -31.6962 
  11   1.0000      -0.724085       -19.7034 
  12   1.0000      -0.724085       -19.7034 
  13   1.0000      -0.676006       -18.3951 
  14   1.0000      -0.674846       -18.3635 
  15   1.0000      -0.625205       -17.0127 
  16   1.0000      -0.450053       -12.2466 
  17   1.0000      -0.450053       -12.2466 
  18   1.0000      -0.298306        -8.1173 
  19   0.0000       0.075169         2.0454 
  20   0.0000       0.085445         2.3251 
  21   0.0000       0.085445         2.3251 
  22   0.0000       0.145522         3.9599 
  23   0.0000       0.250407         6.8139 
  24   0.0000       0.253121         6.8878 
  25   0.0000       0.260993         7.1020 
  26   0.0000       0.289505         7.8778 
  27   0.0000       0.289505         7.8778 
  28   0.0000       0.312465         8.5026 
  29   0.0000       0.550023        14.9669 
  30   0.0000       0.550023        14.9669 
  31   0.0000       0.680092        18.5062 
  32   0.0000       0.754661        20.5354 
  33   0.0000       0.761188        20.7130 
  34   0.0000       0.761188        20.7130 
  35   0.0000       1.017127        27.6774 
  36   0.0000       1.024039        27.8655 
  37   0.0000       1.031852        28.0781 
  38   0.0000       1.047105        28.4932 
  39   0.0000       1.047105        28.4932 
  40   0.0000       1.257968        34.2310 
  41   0.0000       1.753828        47.7241 
  42   0.0000       1.754857        47.7521 
  43   0.0000       1.876418        51.0599 
  44   0.0000       1.876418        51.0599 
  45   0.0000       1.997376        54.3514 
  46   0.0000       2.545507        69.2668 
  47   0.0000       2.545507        69.2668 
  48   0.0000       2.564298        69.7781 
  49   0.0000       2.580977        70.2319 
  50   0.0000       2.586046        70.3699 
  51   0.0000       2.586046        70.3699 
  52   0.0000       2.639178        71.8157 
  53   0.0000       2.819476        76.7218 
  54   0.0000       2.819476        76.7218 
  55   0.0000       2.871729        78.1437 
  56   0.0000       2.969362        80.8005 
  57   0.0000       3.262013        88.7639 
  58   0.0000       3.262013        88.7639 
  59   0.0000       3.419186        93.0408 
  60   0.0000       3.654794        99.4520 
  61   0.0000       3.789497       103.1174 
  62   0.0000       3.789497       103.1174 
  63   0.0000       3.829463       104.2050 
  64   0.0000       3.862589       105.1064 
  65   0.0000       4.447589       121.0250 
  66   0.0000       5.608516       152.6155 
  67   0.0000       5.608516       152.6155 
  68   0.0000       5.610404       152.6669 
  69   0.0000       5.610816       152.6781 
  70   0.0000       5.789720       157.5463 
  71   0.0000       5.789720       157.5463 
  72   0.0000       6.326617       172.1560 
  73   0.0000       6.776970       184.4107 
  74   0.0000       6.777153       184.4157 
  75   0.0000       7.010776       190.7729 
  76   0.0000       7.010776       190.7729 
  77   0.0000       7.483964       203.6490 
  78   0.0000       8.939819       243.2648 
  79   0.0000       8.956478       243.7181 
  80   0.0000       8.956478       243.7181 
  81   0.0000       8.964627       243.9399 
  82   0.0000       8.985755       244.5148 
  83   0.0000       8.986159       244.5258 
  84   0.0000       9.040378       246.0012 
  85   0.0000       9.040378       246.0012 
  86   0.0000       9.147371       248.9126 
  87   0.0000       9.696262       263.8487 
  88   0.0000       9.729421       264.7510 
  89   0.0000       9.736457       264.9425 
  90   0.0000       9.736457       264.9425 
  91   0.0000       9.930879       270.2330 
  92   0.0000       9.930879       270.2330 
  93   0.0000      10.180188       277.0170 
  94   0.0000      44.996760      1224.4241 

                 SPIN DOWN ORBITALS
  NO   OCC          E(Eh)            E(eV) 
   0   1.0000    -261.368616     -7112.2016 
   1   1.0000     -31.872499      -867.2948 
   2   1.0000     -27.355063      -744.3691 
   3   1.0000     -27.352840      -744.3086 
   4   1.0000     -27.352840      -744.3086 
   5   1.0000     -20.558522      -559.4258 
   6   1.0000      -3.997902      -108.7884 
   7   1.0000      -2.557292       -69.5875 
   8   1.0000      -2.557292       -69.5875 
   9   1.0000      -2.519045       -68.5467 
  10   1.0000      -1.284129       -34.9429 
  11   1.0000      -0.636028       -17.3072 
  12   1.0000      -0.510402       -13.8887 
  13   1.0000      -0.510402       -13.8887 
  14   1.0000      -0.485734       -13.2175 
  15   0.0000       0.019074         0.5190 
  16   0.0000       0.135491         3.6869 
  17   0.0000       0.135491         3.6869 
  18   0.0000       0.156351         4.2545 
  19   0.0000       0.207785         5.6541 
  20   0.0000       0.227126         6.1804 
  21   0.0000       0.257038         6.9944 
  22   0.0000       0.257038         6.9944 
  23   0.0000       0.273456         7.4411 
  24   0.0000       0.324974         8.8430 
  25   0.0000       0.348365         9.4795 
  26   0.0000       0.348365         9.4795 
  27   0.0000       0.381988        10.3944 
  28   0.0000       0.383371        10.4320 
  29   0.0000       0.607151        16.5214 
  30   0.0000       0.607151        16.5214 
  31   0.0000       0.638772        17.3819 
  32   0.0000       0.764864        20.8130 
  33   0.0000       0.764864        20.8130 
  34   0.0000       0.807317        21.9682 
  35   0.0000       1.011695        27.5296 
  36   0.0000       1.080339        29.3975 
  37   0.0000       1.181901        32.1612 
  38   0.0000       1.191105        32.4116 
  39   0.0000       1.191105        32.4116 
  40   0.0000       1.334164        36.3045 
  41   0.0000       1.757837        47.8332 
  42   0.0000       1.760192        47.8973 
  43   0.0000       1.857170        50.5362 
  44   0.0000       1.857170        50.5362 
  45   0.0000       1.977953        53.8228 
  46   0.0000       2.653618        72.2086 
  47   0.0000       2.653618        72.2086 
  48   0.0000       2.681432        72.9655 
  49   0.0000       2.681432        72.9655 
  50   0.0000       2.692277        73.2606 
  51   0.0000       2.706394        73.6447 
  52   0.0000       2.727082        74.2077 
  53   0.0000       2.879720        78.3612 
  54   0.0000       2.879720        78.3612 
  55   0.0000       2.888117        78.5896 
  56   0.0000       3.080280        83.8187 
  57   0.0000       3.294161        89.6387 
  58   0.0000       3.294161        89.6387 
  59   0.0000       3.368311        91.6564 
  60   0.0000       3.786642       103.0398 
  61   0.0000       3.933119       107.0256 
  62   0.0000       3.983817       108.4052 
  63   0.0000       3.983817       108.4052 
  64   0.0000       4.034531       109.7852 
  65   0.0000       4.482167       121.9660 
  66   0.0000       5.576893       151.7550 
  67   0.0000       5.577304       151.7662 
  68   0.0000       5.606847       152.5701 
  69   0.0000       5.606847       152.5701 
  70   0.0000       5.753099       156.5498 
  71   0.0000       5.753099       156.5498 
  72   0.0000       6.300240       171.4383 
  73   0.0000       6.767576       184.1551 
  74   0.0000       6.767666       184.1575 
  75   0.0000       6.939496       188.8333 
  76   0.0000       6.939496       188.8333 
  77   0.0000       7.414866       201.7688 
  78   0.0000       9.083729       247.1808 
  79   0.0000       9.084943       247.2139 
  80   0.0000       9.084943       247.2139 
  81   0.0000       9.086768       247.2635 
  82   0.0000       9.086916       247.2676 
  83   0.0000       9.095064       247.4893 
  84   0.0000       9.181932       249.8531 
  85   0.0000       9.181932       249.8531 
  86   0.0000       9.292001       252.8482 
  87   0.0000       9.924489       270.0591 
  88   0.0000       9.924489       270.0591 
  89   0.0000       9.942015       270.5360 
  90   0.0000       9.993512       271.9373 
  91   0.0000      10.181852       277.0623 
  92   0.0000      10.181852       277.0623 
  93   0.0000      10.417635       283.4783 
  94   0.0000      44.979367      1223.9508 

                    ********************************
                    * MULLIKEN POPULATION ANALYSIS *
                    ********************************

--------------------------------------------
MULLIKEN ATOMIC CHARGES AND SPIN POPULATIONS
--------------------------------------------
   0 Fe:    0.706941    4.781719
   1 O :   -0.706941   -0.781719
Sum of atomic charges         :   -0.0000000
Sum of atomic spin populations:    4.0000000

-----------------------------------------------------
MULLIKEN REDUCED ORBITAL CHARGES AND SPIN POPULATIONS
-----------------------------------------------------
CHARGE
  0 Fes       :     6.789653  s :     6.789653
      pz      :     4.214471  p :    12.353736
      px      :     4.069633
      py      :     4.069633
      dz2     :     1.023141  d :     6.139420
      dxz     :     1.058395
      dyz     :     1.058395
      dx2y2   :     0.999880
      dxy     :     1.999608
      f0      :     0.002880  f :     0.010042
      f+1     :     0.003337
      f-1     :     0.003337
      f+2     :     0.000004
      f-2     :     0.000005
      f+3     :     0.000240
      f-3     :     0.000240
      g0      :     0.000078  g :     0.000208
      g+1     :     0.000045
      g-1     :     0.000045
      g+2     :     0.000004
      g-2     :     0.000012
      g+3     :     0.000002
      g-3     :     0.000002
      g+4     :     0.000020
      g-4     :     0.000000
  1 O s       :     3.957448  s :     3.957448
      pz      :     1.005656  p :     4.733138
      px      :     1.863741
      py      :     1.863741
      dz2     :     0.006127  d :     0.014894
      dxz     :     0.004168
      dyz     :     0.004168
      dx2y2   :     0.000097
      dxy     :     0.000334
      f0      :     0.000526  f :     0.001461
      f+1     :     0.000439
      f-1     :     0.000439
      f+2     :     0.000015
      f-2     :     0.000042
      f+3     :     0.000000
      f-3     :     0.000000

SPIN
  0 Fes       :     0.753674  s :     0.753674
      pz      :     0.185097  p :     0.246185
      px      :     0.030544
      py      :     0.030544
      dz2     :     0.888167  d :     3.784214
      dxz     :     0.948038
      dyz     :     0.948038
      dx2y2   :     0.999880
      dxy     :     0.000092
      f0      :    -0.001322  f :    -0.002355
      f+1     :    -0.000301
      f-1     :    -0.000301
      f+2     :     0.000004
      f-2     :     0.000004
      f+3     :    -0.000219
      f-3     :    -0.000219
      g0      :    -0.000014  g :    -0.000000
      g+1     :     0.000000
      g-1     :     0.000000
      g+2     :     0.000004
      g-2     :     0.000011
      g+3     :     0.000001
      g-3     :     0.000001
      g+4     :    -0.000004
      g-4     :    -0.000000
  1 O s       :     0.012373  s :     0.012373
      pz      :    -0.838950  p :    -0.794179
      px      :     0.022385
      py      :     0.022385
      dz2     :     0.001104  d :     0.000463
      dxz     :    -0.000320
      dyz     :    -0.000320
      dx2y2   :     0.000097
      dxy     :    -0.000098
      f0      :    -0.000124  f :    -0.000376
      f+1     :    -0.000129
      f-1     :    -0.000129
      f+2     :     0.000015
      f-2     :    -0.000008
      f+3     :    -0.000000
      f-3     :    -0.000000


                     *******************************
                     * LOEWDIN POPULATION ANALYSIS *
                     *******************************

-------------------------------------------
LOEWDIN ATOMIC CHARGES AND SPIN POPULATIONS
-------------------------------------------
   0 Fe:    0.278105    4.704992
   1 O :   -0.278105   -0.704992

----------------------------------------------------
LOEWDIN REDUCED ORBITAL CHARGES AND SPIN POPULATIONS
----------------------------------------------------
CHARGE
  0 Fes       :     6.759673  s :     6.759673
      pz      :     4.368516  p :    12.563014
      px      :     4.097249
      py      :     4.097249
      dz2     :     1.142372  d :     6.370437
      dxz     :     1.114747
      dyz     :     1.114747
      dx2y2   :     0.999621
      dxy     :     1.998950
      f0      :     0.013661  f :     0.028315
      f+1     :     0.007082
      f-1     :     0.007082
      f+2     :     0.000005
      f-2     :     0.000006
      f+3     :     0.000240
      f-3     :     0.000240
      g0      :     0.000227  g :     0.000456
      g+1     :     0.000095
      g-1     :     0.000095
      g+2     :     0.000004
      g-2     :     0.000011
      g+3     :     0.000002
      g-3     :     0.000002
      g+4     :     0.000020
      g-4     :     0.000000
  1 O s       :     3.652151  s :     3.652151
      pz      :     1.033333  p :     4.579192
      px      :     1.772930
      py      :     1.772930
      dz2     :     0.027650  d :     0.042503
      dxz     :     0.006827
      dyz     :     0.006827
      dx2y2   :     0.000312
      dxy     :     0.000886
      f0      :     0.002398  f :     0.004260
      f+1     :     0.000828
      f-1     :     0.000828
      f+2     :     0.000058
      f-2     :     0.000147
      f+3     :     0.000000
      f-3     :     0.000000

SPIN
  0 Fes       :     0.702132  s :     0.702132
      pz      :     0.207792  p :     0.275607
      px      :     0.033907
      py      :     0.033907
      dz2     :     0.854367  d :     3.732978
      dxz     :     0.939411
      dyz     :     0.939411
      dx2y2   :     0.999621
      dxy     :     0.000169
      f0      :    -0.005106  f :    -0.005632
      f+1     :    -0.000049
      f-1     :    -0.000049
      f+2     :     0.000005
      f-2     :     0.000006
      f+3     :    -0.000219
      f-3     :    -0.000219
      g0      :    -0.000101  g :    -0.000094
      g+1     :    -0.000003
      g-1     :    -0.000003
      g+2     :     0.000004
      g-2     :     0.000010
      g+3     :     0.000001
      g-3     :     0.000001
      g+4     :    -0.000004
      g-4     :    -0.000000
  1 O s       :    -0.003939  s :    -0.003939
      pz      :    -0.763416  p :    -0.718282
      px      :     0.022567
      py      :     0.022567
      dz2     :     0.007431  d :     0.015488
      dxz     :     0.003955
      dyz     :     0.003955
      dx2y2   :     0.000312
      dxy     :    -0.000165
      f0      :     0.000844  f :     0.001741
      f+1     :     0.000429
      f-1     :     0.000429
      f+2     :     0.000058
      f-2     :    -0.000019
      f+3     :    -0.000000
      f-3     :    -0.000000


                      *****************************
                      * MAYER POPULATION ANALYSIS *
                      *****************************

  NA   - Mulliken gross atomic population
  ZA   - Total nuclear charge
  QA   - Mulliken gross atomic charge
  VA   - Mayer's total valence
  BVA  - Mayer's bonded valence
  FA   - Mayer's free valence

  ATOM       NA         ZA         QA         VA         BVA        FA
  0 Fe    25.2931    26.0000     0.7069     5.4812     0.8853     4.5959
  1 O      8.7069     8.0000    -0.7069     1.6305     0.8853     0.7452

  Mayer bond orders larger than 0.100000
B(  0-Fe,  1-O ) :   0.8853 

-------
TIMINGS
-------

Total SCF time: 0 days 0 hours 0 min 9 sec 

Total time                  ....       9.070 sec
Sum of individual times     ....       8.791 sec  ( 96.9%)

Fock matrix formation       ....       8.396 sec  ( 92.6%)
Diagonalization             ....       0.152 sec  (  1.7%)
Density matrix formation    ....       0.027 sec  (  0.3%)
Population analysis         ....       0.005 sec  (  0.1%)
Initial guess               ....       0.110 sec  (  1.2%)
Orbital Transformation      ....       0.000 sec  (  0.0%)
Orbital Orthonormalization  ....       0.000 sec  (  0.0%)
DIIS solution               ....       0.078 sec  (  0.9%)


           ************************************************************
           *        Program running with 24 parallel MPI-processes    *
           *              working on a common directory               *
           ************************************************************


------------------------------------------------------------------------------- 
                              ORCA-MATRIX DRIVEN CI                            
------------------------------------------------------------------------------- 

--------------------------------
AUTOMATIC CHOICE OF INCORE LEVEL
--------------------------------

Memory available                           ...   2500.00 MB
Memory needed for S+T                      ...     12.03 MB
Memory needed for J+K                      ...     24.17 MB
Memory needed for DIIS                     ...    168.43 MB
Memory needed for 3-ext                    ...     43.54 MB
Memory needed for 4-ext                    ...    128.94 MB
Memory needed for triples                  ...     16.75 MB
 -> Final InCoreLevel    ... 5
 -> check shows that triples correction can be computed


Wavefunction type
-----------------
Correlation treatment                      ...      CCSD     
Single excitations                         ... ON
Orbital optimization                       ... OFF
Calculation of Z vector                    ... OFF
Calculation of Brueckner orbitals          ... OFF
Perturbative triple excitations            ... ON
Calculation of F12 correction              ... OFF
Frozen core treatment                      ... chemical core (12 el)
Reference Wavefunction                     ... UHF
  Alpha-MOs occ    :     6 ...   18 ( 13 MO's/ 13 electrons)
  Beta-MOs occ     :     6 ...   14 (  9 MO's/  9 electrons)
  Alpha-MOs virt   :    19 ...   94 ( 76 MO's              )
  Beta-MOs virt    :    15 ...   94 ( 80 MO's              )
Number of AO's                             ...     95
Number of electrons                        ...     34
Number of correlated electrons             ...     22

Algorithmic settings
--------------------
Integral transformation                    ... AO direct full transformation
K(C) Formation                             ... FULL-MO TRAFO
Maximum number of iterations               ...        50
Convergence tolerance (max. residuum)      ... 1.000e-06
Level shift for amplitude update           ... 2.000e-01
Maximum number of DIIS vectors             ...         7
DIIS turned on at iteration                ...         0
Damping before turning on DIIS             ...     0.500
Damping after turning on DIIS              ...     0.000
Pair specific amplitude update             ... OFF
Natural orbital iterations                 ... OFF
Perturbative natural orbital generation    ... OFF
Printlevel                                 ... 2

Memory handling:
----------------
Maximum memory for working arrays          ...   2500 MB
Data storage in matrix containers          ... UNCOMPRESSED
Data type for integral storage             ... DOUBLE
In-Core Storage of quantities:
   Amplitudes+Sigma Vector      ... YES
   J+K operators                ... YES
   DIIS vectors                 ... YES
   3-external integrals         ... YES
   4-external integrals         ... YES


Initializing the integral package          ... done
Warning: reference  - re-canonicalizations have been set to INT 1 VIRT 1

--------------------------
UNRESTRICTED FOCK OPERATOR
--------------------------

<ss|ss>:         1953 b            3 skpd (  0.2%)    0.001 s ( 0.000 ms/b)
<ss|sp>:         5394 b           62 skpd (  1.1%)    0.002 s ( 0.000 ms/b)
<ss|sd>:         4092 b           12 skpd (  0.3%)    0.001 s ( 0.000 ms/b)
<ss|sf>:         2046 b           36 skpd (  1.8%)    0.001 s ( 0.000 ms/b)
<ss|sg>:          682 b            3 skpd (  0.4%)    0.000 s ( 0.001 ms/b)
<ss|pp>:         2232 b            1 skpd (  0.0%)    0.001 s ( 0.001 ms/b)
<ss|pd>:         2976 b            4 skpd (  0.1%)    0.002 s ( 0.001 ms/b)
<ss|pf>:         1488 b            1 skpd (  0.1%)    0.001 s ( 0.000 ms/b)
<ss|pg>:          496 b            0 skpd (  0.0%)    0.001 s ( 0.001 ms/b)
<ss|dd>:         1302 b            0 skpd (  0.0%)    0.001 s ( 0.001 ms/b)
<ss|df>:         1116 b            1 skpd (  0.1%)    0.000 s ( 0.000 ms/b)
<ss|dg>:          372 b            0 skpd (  0.0%)    0.001 s ( 0.002 ms/b)
<ss|ff>:          372 b            0 skpd (  0.0%)    0.000 s ( 0.001 ms/b)
<ss|fg>:          186 b            0 skpd (  0.0%)    0.001 s ( 0.003 ms/b)
<ss|gg>:           62 b            0 skpd (  0.0%)    0.001 s ( 0.009 ms/b)
<sp|sp>:         3828 b           86 skpd (  2.2%)    0.002 s ( 0.001 ms/b)
<sp|sd>:         5742 b           83 skpd (  1.4%)    0.002 s ( 0.000 ms/b)
<sp|sf>:         2871 b          110 skpd (  3.8%)    0.001 s ( 0.000 ms/b)
<sp|sg>:          957 b           12 skpd (  1.3%)    0.001 s ( 0.001 ms/b)
<sp|pp>:         3132 b           33 skpd (  1.1%)    0.002 s ( 0.001 ms/b)
<sp|pd>:         4176 b           49 skpd (  1.2%)    0.002 s ( 0.001 ms/b)
<sp|pf>:         2088 b           24 skpd (  1.1%)    0.001 s ( 0.001 ms/b)
<sp|pg>:          696 b            8 skpd (  1.1%)    0.003 s ( 0.005 ms/b)
<sp|dd>:         1827 b           21 skpd (  1.1%)    0.003 s ( 0.001 ms/b)
<sp|df>:         1566 b           18 skpd (  1.1%)    0.002 s ( 0.001 ms/b)
<sp|dg>:          522 b            6 skpd (  1.1%)    0.002 s ( 0.004 ms/b)
<sp|ff>:          522 b            6 skpd (  1.1%)    0.001 s ( 0.002 ms/b)
<sp|fg>:          261 b            3 skpd (  1.1%)    0.001 s ( 0.005 ms/b)
<sp|gg>:           87 b            1 skpd (  1.1%)    0.002 s ( 0.019 ms/b)
<sd|sd>:         2211 b           20 skpd (  0.9%)    0.001 s ( 0.001 ms/b)
<sd|sf>:         2178 b           76 skpd (  3.5%)    0.001 s ( 0.000 ms/b)
<sd|sg>:          726 b           10 skpd (  1.4%)    0.001 s ( 0.002 ms/b)
<sd|pp>:         2376 b            2 skpd (  0.1%)    0.003 s ( 0.001 ms/b)
<sd|pd>:         3168 b           13 skpd (  0.4%)    0.003 s ( 0.001 ms/b)
<sd|pf>:         1584 b            4 skpd (  0.3%)    0.001 s ( 0.001 ms/b)
<sd|pg>:          528 b            1 skpd (  0.2%)    0.002 s ( 0.004 ms/b)
<sd|dd>:         1386 b            2 skpd (  0.1%)    0.004 s ( 0.003 ms/b)
<sd|df>:         1188 b            7 skpd (  0.6%)    0.002 s ( 0.002 ms/b)
<sd|dg>:          396 b            2 skpd (  0.5%)    0.003 s ( 0.007 ms/b)
<sd|ff>:          396 b            2 skpd (  0.5%)    0.001 s ( 0.003 ms/b)
<sd|fg>:          198 b            1 skpd (  0.5%)    0.002 s ( 0.010 ms/b)
<sd|gg>:           66 b            0 skpd (  0.0%)    0.003 s ( 0.040 ms/b)
<sf|sf>:          561 b           38 skpd (  6.8%)    0.000 s ( 0.001 ms/b)
<sf|sg>:          363 b           15 skpd (  4.1%)    0.001 s ( 0.003 ms/b)
<sf|pp>:         1188 b           24 skpd (  2.0%)    0.002 s ( 0.002 ms/b)
<sf|pd>:         1584 b           51 skpd (  3.2%)    0.002 s ( 0.002 ms/b)
<sf|pf>:          792 b           24 skpd (  3.0%)    0.001 s ( 0.001 ms/b)
<sf|pg>:          264 b            8 skpd (  3.0%)    0.002 s ( 0.007 ms/b)
<sf|dd>:          693 b           15 skpd (  2.2%)    0.003 s ( 0.004 ms/b)
<sf|df>:          594 b           19 skpd (  3.2%)    0.002 s ( 0.003 ms/b)
<sf|dg>:          198 b            6 skpd (  3.0%)    0.002 s ( 0.012 ms/b)
<sf|ff>:          198 b            6 skpd (  3.0%)    0.001 s ( 0.006 ms/b)
<sf|fg>:           99 b            3 skpd (  3.0%)    0.002 s ( 0.017 ms/b)
<sf|gg>:           33 b            1 skpd (  3.0%)    0.002 s ( 0.067 ms/b)
<sg|sg>:           66 b            1 skpd (  1.5%)    0.000 s ( 0.004 ms/b)
<sg|pp>:          396 b            0 skpd (  0.0%)    0.001 s ( 0.003 ms/b)
<sg|pd>:          528 b            2 skpd (  0.4%)    0.002 s ( 0.003 ms/b)
<sg|pf>:          264 b            0 skpd (  0.0%)    0.001 s ( 0.003 ms/b)
<sg|pg>:           88 b            0 skpd (  0.0%)    0.001 s ( 0.015 ms/b)
<sg|dd>:          231 b            0 skpd (  0.0%)    0.002 s ( 0.008 ms/b)
<sg|df>:          198 b            0 skpd (  0.0%)    0.001 s ( 0.005 ms/b)
<sg|dg>:           66 b            0 skpd (  0.0%)    0.002 s ( 0.027 ms/b)
<sg|ff>:           66 b            0 skpd (  0.0%)    0.001 s ( 0.010 ms/b)
<sg|fg>:           33 b            0 skpd (  0.0%)    0.001 s ( 0.033 ms/b)
<sg|gg>:           11 b            0 skpd (  0.0%)    0.001 s ( 0.130 ms/b)
<pp|pp>:          666 b            0 skpd (  0.0%)    0.002 s ( 0.003 ms/b)
<pp|pd>:         1728 b            0 skpd (  0.0%)    0.003 s ( 0.002 ms/b)
<pp|pf>:          864 b            0 skpd (  0.0%)    0.001 s ( 0.001 ms/b)
<pp|pg>:          288 b            0 skpd (  0.0%)    0.002 s ( 0.006 ms/b)
<pp|dd>:          756 b            0 skpd (  0.0%)    0.003 s ( 0.004 ms/b)
<pp|df>:          648 b            0 skpd (  0.0%)    0.002 s ( 0.003 ms/b)
<pp|dg>:          216 b            0 skpd (  0.0%)    0.002 s ( 0.011 ms/b)
<pp|ff>:          216 b            0 skpd (  0.0%)    0.002 s ( 0.008 ms/b)
<pp|fg>:          108 b            0 skpd (  0.0%)    0.002 s ( 0.015 ms/b)
<pp|gg>:           36 b            0 skpd (  0.0%)    0.002 s ( 0.062 ms/b)
<pd|pd>:         1176 b            0 skpd (  0.0%)    0.004 s ( 0.004 ms/b)
<pd|pf>:         1152 b            0 skpd (  0.0%)    0.003 s ( 0.003 ms/b)
<pd|pg>:          384 b            0 skpd (  0.0%)    0.004 s ( 0.011 ms/b)
<pd|dd>:         1008 b            0 skpd (  0.0%)    0.006 s ( 0.006 ms/b)
<pd|df>:          864 b            0 skpd (  0.0%)    0.004 s ( 0.005 ms/b)
<pd|dg>:          288 b            0 skpd (  0.0%)    0.005 s ( 0.019 ms/b)
<pd|ff>:          288 b            0 skpd (  0.0%)    0.005 s ( 0.016 ms/b)
<pd|fg>:          144 b            0 skpd (  0.0%)    0.005 s ( 0.033 ms/b)
<pd|gg>:           48 b            0 skpd (  0.0%)    0.006 s ( 0.131 ms/b)
<pf|pf>:          300 b            0 skpd (  0.0%)    0.002 s ( 0.006 ms/b)
<pf|pg>:          192 b            0 skpd (  0.0%)    0.003 s ( 0.015 ms/b)
<pf|dd>:          504 b            0 skpd (  0.0%)    0.004 s ( 0.008 ms/b)
<pf|df>:          432 b            0 skpd (  0.0%)    0.003 s ( 0.006 ms/b)
<pf|dg>:          144 b            0 skpd (  0.0%)    0.004 s ( 0.027 ms/b)
<pf|ff>:          144 b            0 skpd (  0.0%)    0.004 s ( 0.025 ms/b)
<pf|fg>:           72 b            0 skpd (  0.0%)    0.003 s ( 0.042 ms/b)
<pf|gg>:           24 b            0 skpd (  0.0%)    0.004 s ( 0.163 ms/b)
<pg|pg>:           36 b            0 skpd (  0.0%)    0.001 s ( 0.029 ms/b)
<pg|dd>:          168 b            0 skpd (  0.0%)    0.003 s ( 0.016 ms/b)
<pg|df>:          144 b            0 skpd (  0.0%)    0.002 s ( 0.011 ms/b)
<pg|dg>:           48 b            0 skpd (  0.0%)    0.003 s ( 0.053 ms/b)
<pg|ff>:           48 b            0 skpd (  0.0%)    0.002 s ( 0.033 ms/b)
<pg|fg>:           24 b            0 skpd (  0.0%)    0.002 s ( 0.077 ms/b)
<pg|gg>:            8 b            0 skpd (  0.0%)    0.002 s ( 0.276 ms/b)
<dd|dd>:          231 b            0 skpd (  0.0%)    0.004 s ( 0.017 ms/b)
<dd|df>:          378 b            0 skpd (  0.0%)    0.003 s ( 0.007 ms/b)
<dd|dg>:          126 b            0 skpd (  0.0%)    0.004 s ( 0.031 ms/b)
<dd|ff>:          126 b            0 skpd (  0.0%)    0.006 s ( 0.048 ms/b)
<dd|fg>:           63 b            0 skpd (  0.0%)    0.003 s ( 0.046 ms/b)
<dd|gg>:           21 b            0 skpd (  0.0%)    0.004 s ( 0.189 ms/b)
<df|df>:          171 b            0 skpd (  0.0%)    0.003 s ( 0.017 ms/b)
<df|dg>:          108 b            0 skpd (  0.0%)    0.005 s ( 0.044 ms/b)
<df|ff>:          108 b            0 skpd (  0.0%)    0.004 s ( 0.040 ms/b)
<df|fg>:           54 b            0 skpd (  0.0%)    0.004 s ( 0.069 ms/b)
<df|gg>:           18 b            0 skpd (  0.0%)    0.005 s ( 0.279 ms/b)
<dg|dg>:           21 b            0 skpd (  0.0%)    0.002 s ( 0.104 ms/b)
<dg|ff>:           36 b            0 skpd (  0.0%)    0.001 s ( 0.035 ms/b)
<dg|fg>:           18 b            0 skpd (  0.0%)    0.002 s ( 0.119 ms/b)
<dg|gg>:            6 b            0 skpd (  0.0%)    0.003 s ( 0.432 ms/b)
<ff|ff>:           21 b            0 skpd (  0.0%)    0.001 s ( 0.053 ms/b)
<ff|fg>:           18 b            0 skpd (  0.0%)    0.002 s ( 0.109 ms/b)
<ff|gg>:            6 b            0 skpd (  0.0%)    0.003 s ( 0.446 ms/b)
<fg|fg>:            6 b            0 skpd (  0.0%)    0.001 s ( 0.245 ms/b)
<fg|gg>:            3 b            0 skpd (  0.0%)    0.002 s ( 0.731 ms/b)
<gg|gg>:            1 b            0 skpd (  0.0%)    0.002 s ( 1.680 ms/b)
Recanonicalizing the internal orbitals
Recanonicalizing the virtual orbitals
Time needed for Fock operator              ...            0.276 sec
Reference energy                           ...  -1337.266737939
Warning: for UHF the TrafoType has to be JK
Warning: for UHF the K(C)-option cannot be MO but must be AOX

-------------------------------
PARTIAL EXCHANGE TRANSFORMATION
-------------------------------

Transformation type                        ... two-operators
Generation of integrals (i,mue|j,nue)      ... ON
Generation of integrals (mue,kappa|nue,tau)... ON
Generation of integrals (i,mue|a,nue)      ... ON
Dimension of the basis                     ...   95
Number of internal alpha-MOs               ...   13 (   6-  18)
Number of internal beta-MOs                ...    9 (   6-  14)
Number of external alpha-MOs               ...   76 (  19-  94)
Number of external beta-MOs                ...   80 (  15-  94)
Pair cutoff                                ... 0.000e+00 Eh
Number of AO pairs in the trafo            ... 4560
Total Number of distinct AO pairs          ... 4560
Memory devoted for trafo                   ... 2500.0 MB 
Max. Number of MO pairs treated together   ... 36308      
Number Format for Storage                  ... Double (8 Byte)
Integral package used                      ... LIBINT

Starting integral evaluation:
    ... done with AO integral generation
Closing buffer AOK[aa] ( 0.00 GB; CompressionRatio= 0.99)
Closing buffer AOK[bb] ( 0.00 GB; CompressionRatio= 0.98)
Closing buffer AOK[ab] ( 0.00 GB; CompressionRatio= 0.99)
Closing buffer AOK[ba] ( 0.00 GB; CompressionRatio= 0.99)
Collecting buffer AOK 
Closing buffer IAAO1[aa] ( 0.00 GB; CompressionRatio= 1.00)
Closing buffer IAAO1[bb] ( 0.00 GB; CompressionRatio= 1.00)
Closing buffer IAAO1[ab] ( 0.00 GB; CompressionRatio= 1.00)
Closing buffer IAAO1[ba] ( 0.00 GB; CompressionRatio= 1.00)
Closing buffer IAAO2[aa] ( 0.00 GB; CompressionRatio= 1.00)
Closing buffer IAAO2[bb] ( 0.00 GB; CompressionRatio= 1.00)
Closing buffer IAAO2[ab] ( 0.00 GB; CompressionRatio= 1.00)
Closing buffer IAAO2[ba] ( 0.00 GB; CompressionRatio= 1.00)
Collecting buffer IAAO 
Closing buffer PRQS    ( 0.00 GB; CompressionRatio= 1.00)
Collecting buffer PRQS 
Number of alpha/alpha MO pairs in trafo    ...   91
Number of beta /beta  MO pairs in trafo    ...   45
Number of alpha/ beta MO pairs in trafo    ...  117
------------------------
SORTING OF (i,mue|j,nue)
------------------------

SORTING OF ALPHA/ALPHA PAIRS
IBATCH = 1 of  1
Closing buffer KAO[aa] ( 0.00 GB; CompressionRatio= 1.00)
Collecting buffer KAO 
SORTING OF BETA /BETA  PAIRS
IBATCH = 1 of  1
Closing buffer KAO[bb] ( 0.00 GB; CompressionRatio= 1.00)
Collecting buffer KAO 
SORTING OF ALPHA/BETA  PAIRS
IBATCH = 1 of  1
Closing buffer KAO[ab] ( 0.00 GB; CompressionRatio= 0.999833822633)
Collecting buffer KAO[ab] 
------------------------
SORTING OF (i,mue|a,nue)
------------------------

Number of alpha/alpha (i,a) pairs in trafo  ...  988
Number of beta /beta  (i,a) pairs in trafo  ...  720
Number of alpha/ beta (i,a) pairs in trafo  ... 1040
Number of beta /alpha (i,a) pairs in trafo  ...  684
Setting up the alpha/alpha list             ... done
Setting up the beta /beta  list             ... done
Setting up the alpha/beta  list             ... done
Setting up the beta /alpha list             ... done
    ... Now sorting (i,mue|a,nue)integrals
    ... Integrals (i,b|a,c) will be made on the fly
SORTING OF ALPHA/ALPHA PAIRS
IBATCH = 1 of  1
Closing buffer IPAQ[aa]  0.00 GB; CompressionRatio= 1.00)
SORTING OF BETA /BETA  PAIRS
IBATCH = 1 of  1
Closing buffer IPAQ[bb]( 0.00 GB; CompressionRatio= 1.00)
SORTING OF ALPHA/BETA  PAIRS (NMatSort_ab=44)
IBATCH = 1 of  1
Closing buffer IPAQ[ab]( 0.00 GB; CompressionRatio= 1.00)
SORTING OF BETA/ALPHA  PAIRS
IBATCH = 1 of  1
Closing buffer IPAQ[ba]( 0.00 GB; CompressionRatio= 1.00)
N(AO-Batches) Done                         ...      4930 
N(AO-Batches) Skipped                      ...         0 
N(IJ)-pairs Skipped                        ...         0 
TOTAL TIME for half transformation         ...     1.177 sec
AO-integral generation                     ...     0.022 sec
Half transformation                        ...     0.005 sec
K-integral sorting                         ...     0.702 sec
<ss|**>: 
------------------------------
PARTIAL COULOMB TRANSFORMATION
------------------------------

Transformation type                        ... two-operators
Dimension of the basis                     ...   95
Number of internal alpha-MOs               ...   13 (6-18)
Number of internal beta-MOs                ...    9 (6-14)
Pair cutoff                                ... 0.000e+00 Eh
Number of AO pairs included in the trafo   ... 4560
Total Number of distinct AO pairs          ... 4560
Memory devoted for trafo                   ... 2500.0 MB 
Max. Number of MO pairs treated together   ... 71859      
Max. Number of MOs treated per batch       ...  756      
Number Format for Storage                  ... Double (8 Byte)
AO-integral source                         ... DIRECT
Integral package used                      ... LIBINT

Starting integral evaluation:
       26660 b        0 skpd     0.007 s (  0.000 ms/b)
<sp|**>: <sd|**>:        37410 b        0 skpd     0.015 s (  0.000 ms/b)
       28380 b        0 skpd     0.018 s (  0.001 ms/b)
<sf|**>:        14190 b        0 skpd     0.011 s (  0.001 ms/b)
<sg|**>:         4730 b        0 skpd     0.018 s (  0.004 ms/b)
<pp|**>:        15480 b        0 skpd     0.024 s (  0.002 ms/b)
<pd|**>:        20640 b        0 skpd     0.033 s (  0.002 ms/b)
<pf|**>:        10320 b        0 skpd     0.016 s (  0.002 ms/b)
<pg|**>:         3440 b        0 skpd     0.027 s (  0.008 ms/b)
<dd|**>:         9030 b        0 skpd     0.041 s (  0.004 ms/b)
<df|**>:         7740 b        0 skpd     0.022 s (  0.003 ms/b)
<dg|**>:         2580 b        0 skpd     0.034 s (  0.013 ms/b)
<ff|**>:         2580 b        0 skpd     0.015 s (  0.006 ms/b)
<fg|**>:         1290 b        0 skpd     0.025 s (  0.019 ms/b)
<gg|**>:          430 b        0 skpd     0.033 s (  0.076 ms/b)
Closing buffer AOJ[aa] ( 0.00 GB; CompressionRatio= 0.98)
Closing buffer AOJ[bb] ( 0.00 GB; CompressionRatio= 0.00)
Collecting buffer AOJ 
    ... done with AO integral generation
Number of Alpha-MO pairs included          ...   91
Number of Beta-MO pairs included           ...   45
    ... Now sorting integrals
SORTING ALPHA/ALPHA PAIRS
IBATCH = 1 of  1
Closing buffer JAO[aa] ( 0.00 GB; CompressionRatio= 1.00)
SORTING BETA/BETA PAIRS
IBATCH = 1 of  1
Closing buffer JAO[bb] ( 0.00 GB; CompressionRatio= 1.00)
Collecting buffer JAO 
TOTAL TIME for half transformation         ...     0.366 sec
AO-integral generation                     ...     0.338 sec
Half transformation                        ...     0.009 sec
J-integral sorting                         ...     0.013 sec

-------------------------- SECOND HALF TRANSFORMATION -------------------------
Formation of (ij|kl),(ij|ka), (ij|ab)      ... ok (     0.048 sec)
Formation of (ik|jl),(ik|ja), (ia|jb)      ... ok (     0.079 sec)


-----------------------
SPIN UNRESTRICTED GUESS
-----------------------

Entering MDCI_UHF_Guess, Tailored=0
Spin-components of the MP2 energy:
EMP2(aa)=     -0.158867560
EMP2(bb)=     -0.078951446
EMP2(ab)=     -0.485698532

Initial guess performed in     0.034 sec
E(0)                                       ...  -1337.266737939
E(MP2)                                     ...     -0.723517538
Initial E(tot)                             ...  -1337.990255477
<T|T>                                      ...      0.129035503
Number of pairs included                   ... 231

------------------------------------------------
                  UHF COUPLED CLUSTER ITERATIONS
------------------------------------------------

Number of amplitudes to be optimized       ...      1052678

Iter       E(tot)           E(Corr)          Delta-E          Residual     Time      <S|S>**1/2
  0  -1337.990255477     -0.723517538      0.000000000      0.034923796    0.94      0.000000015
                           *** Turning on DIIS ***
  1  -1337.967184063     -0.700446125      0.023071413      0.018277592    1.02      0.080852680
  2  -1337.986005538     -0.719267599     -0.018821474      0.018545957    1.05      0.101517064
  3  -1337.994059930     -0.727321991     -0.008054392      0.016583458    1.06      0.151815654
  4  -1338.002700975     -0.735963036     -0.008641045      0.013765771    1.07      0.211254481
  5  -1338.015505043     -0.748767105     -0.012804069      0.008612633    1.06      0.313946945
  6  -1338.022306181     -0.755568242     -0.006801137      0.004018770    1.11      0.381835766
  7  -1338.025817623     -0.759079684     -0.003511442      0.001677635    1.12      0.415396055
  8  -1338.025911615     -0.759173676     -0.000093992      0.001302458    1.08      0.418542248
  9  -1338.026482900     -0.759744961     -0.000571285      0.000790661    1.09      0.424816512
 10  -1338.026583925     -0.759845986     -0.000101025      0.000512363    1.08      0.427254472
 11  -1338.026716124     -0.759978185     -0.000132199      0.000269967    1.09      0.429491649
 12  -1338.026678939     -0.759941000      0.000037185      0.000204433    1.07      0.429700215
 13  -1338.026755377     -0.760017439     -0.000076439      0.000118996    1.10      0.430651092
 14  -1338.026797934     -0.760059995     -0.000042557      0.000059578    1.13      0.431259811
 15  -1338.026827539     -0.760089600     -0.000029605      0.000035764    1.06      0.431678202
 16  -1338.026817074     -0.760079135      0.000010465      0.000023455    1.05      0.431656248
 17  -1338.026807792     -0.760069854      0.000009281      0.000010628    1.06      0.431642116
 18  -1338.026802505     -0.760064566      0.000005288      0.000006163    1.09      0.431617039
 19  -1338.026800798     -0.760062860      0.000001706      0.000002518    1.06      0.431636770
 20  -1338.026801621     -0.760063682     -0.000000823      0.000002018    1.10      0.431648386
 21  -1338.026801819     -0.760063880     -0.000000198      0.000001264    1.08      0.431653685
 22  -1338.026802163     -0.760064224     -0.000000344      0.000000614    1.07      0.431656260
               --- The Coupled-Cluster iterations have converged ---

----------------------
COUPLED CLUSTER ENERGY
----------------------

E(0)                                       ...  -1337.266737939
E(CORR)                                    ...     -0.760064224
E(TOT)                                     ...  -1338.026802163
Singles norm <S|S>**1/2                    ...      0.431656260 ( 0.308157824, 0.123498436)  
T1 diagnostic                              ...      0.092029424                              

------------------
LARGEST AMPLITUDES
------------------
  18a-> 19a  -1a-> -1a       0.438198
  13a-> 19a  -1a-> -1a       0.161460
  12b-> 22b  -1b-> -1b       0.141129
  13b-> 21b  -1b-> -1b       0.141129
  11b-> 28b  -1b-> -1b       0.119440
  18a-> 25a  -1a-> -1a       0.104089
  11b-> 18b  -1b-> -1b       0.100738
  13a-> 25a  -1a-> -1a       0.091661
  18a-> 28a  -1a-> -1a       0.080540
  13b-> 26b  -1b-> -1b       0.070331
  12b-> 25b  -1b-> -1b       0.070331
  16a-> 20a  -1a-> -1a       0.067334
  17a-> 21a  -1a-> -1a       0.067334
  13a-> 19a  11b-> 28b       0.067306
  13b-> 25b  -1b-> -1b       0.062751
  12b-> 26b  -1b-> -1b       0.062751

----------------------
UHF TRIPLES CORRECTION (Algorithm 1)
----------------------

Multiplier for the singles contribution    ...      1.000000000

SPIN-CASE Alpha-Alpha-Alpha:
10% done
20% done
30% done
40% done
50% done
60% done
70% done
80% done
90% done


SPIN-CASE Beta-Beta-Beta:
10% done
20% done
30% done
40% done
50% done
60% done
70% done
80% done
90% done


SPIN-CASE Alpha-Alpha-Beta:
10% done
20% done
30% done
40% done
50% done
60% done
70% done
80% done
90% done


SPIN-CASE Beta-Beta-Alpha:
10% done
20% done
30% done
40% done
50% done
60% done
70% done
80% done
90% done


Triples Correction (T)                     ...     -0.036464455
    alpha-alpha-alpha ... -0.001778164 (  4.9%)
    alpha-alpha-beta  ... -0.019794404 ( 54.3%)
    alpha-beta -beta  ... -0.014293641 ( 39.2%)
    beta -beta -beta  ... -0.000598246 (  1.6%)
Scaling of triples based on CCSD energies (Peterson et al. Molecular Physics 113, 1551 (2015))
E(T*) = f*E(T) where f = E(F12-CCSD)/E(CCSD) 
f = CCSD (with F12)/ CCSD (without F12)    ...      1.000000000
Scaled triples correction (T)              ...     -0.036464455

Final correlation energy                   ...     -0.796528679
E(CCSD)                                    ...  -1338.026802163
E(CCSD(T))                                 ...  -1338.063266618



        !!!!!!!!!!!!!!!!!!!!!!!!!!!!!!!!!!!!!!!!!!!!!!!!!!!!!!!!!!!!!!!!!!!!!!!!!! 
        !  Warning: Densities are linearized densities                           !
        !!!!!!!!!!!!!!!!!!!!!!!!!!!!!!!!!!!!!!!!!!!!!!!!!!!!!!!!!!!!!!!!!!!!!!!!!! 

NORM  =      1.587558512 sqrt=     1.259983536
W(HF) =      0.629898043
------------------------------------------------------------------------------
                           ORCA POPULATION ANALYSIS
------------------------------------------------------------------------------
Input electron density              ... 35_FeO.mdcip
Input spin density                  ... 35_FeO.mdcir
BaseName (.gbw .S,...)              ... 35_FeO

                    ********************************
                    * MULLIKEN POPULATION ANALYSIS *
                    ********************************

------------------------------------------
MULLIKEN ATOMIC CHARGES AND SPIN DENSITIES
------------------------------------------
   0 Fe:    0.609401    3.866008
   1 O :   -0.609401    0.133992
Sum of atomic charges       :   -0.0000000
Sum of atomic spin densities:    4.0000000

---------------------------------------------------
MULLIKEN REDUCED ORBITAL CHARGES AND SPIN DENSITIES
---------------------------------------------------
CHARGE
  0 Fes       :     6.603860  s :     6.603860
      pz      :     4.041153  p :    12.327467
      px      :     4.143157
      py      :     4.143157
      dz2     :     1.025659  d :     6.417501
      dxz     :     1.202161
      dyz     :     1.202161
      dx2y2   :     1.001199
      dxy     :     1.986321
      f0      :     0.006489  f :     0.038322
      f+1     :     0.006792
      f-1     :     0.006792
      f+2     :     0.003933
      f-2     :     0.004827
      f+3     :     0.004744
      f-3     :     0.004744
      g0      :     0.000450  g :     0.003449
      g+1     :     0.000397
      g-1     :     0.000397
      g+2     :     0.000325
      g-2     :     0.000388
      g+3     :     0.000363
      g-3     :     0.000363
      g+4     :     0.000383
      g-4     :     0.000383
  1 O s       :     3.925984  s :     3.925984
      pz      :     1.364155  p :     4.625372
      px      :     1.630608
      py      :     1.630608
      dz2     :     0.013941  d :     0.053287
      dxz     :     0.013136
      dyz     :     0.013136
      dx2y2   :     0.006360
      dxy     :     0.006714
      f0      :     0.001098  f :     0.004759
      f+1     :     0.000941
      f-1     :     0.000941
      f+2     :     0.000466
      f-2     :     0.000497
      f+3     :     0.000408
      f-3     :     0.000408

SPIN
  0 Fes       :     0.525198  s :     0.525198
      pz      :     0.013477  p :     0.186016
      px      :     0.086269
      py      :     0.086269
      dz2     :     0.576481  d :     3.139806
      dxz     :     0.784932
      dyz     :     0.784932
      dx2y2   :     0.988741
      dxy     :     0.004720
      f0      :     0.002125  f :     0.013679
      f+1     :     0.002406
      f-1     :     0.002406
      f+2     :     0.002632
      f-2     :     0.001531
      f+3     :     0.001289
      f-3     :     0.001289
      g0      :     0.000155  g :     0.001309
      g+1     :     0.000154
      g-1     :     0.000154
      g+2     :     0.000177
      g-2     :     0.000154
      g+3     :     0.000150
      g-3     :     0.000150
      g+4     :     0.000107
      g-4     :     0.000107
  1 O s       :     0.010592  s :     0.010592
      pz      :    -0.125957  p :     0.127633
      px      :     0.126795
      py      :     0.126795
      dz2     :    -0.000716  d :    -0.003905
      dxz     :    -0.001934
      dyz     :    -0.001934
      dx2y2   :     0.000485
      dxy     :     0.000194
      f0      :    -0.000086  f :    -0.000328
      f+1     :    -0.000115
      f-1     :    -0.000115
      f+2     :    -0.000012
      f-2     :    -0.000039
      f+3     :     0.000019
      f-3     :     0.000019


                     *******************************
                     * LOEWDIN POPULATION ANALYSIS *
                     *******************************

-----------------------------------------
LOEWDIN ATOMIC CHARGES AND SPIN DENSITIES
-----------------------------------------
   0 Fe:    0.297949    3.810549
   1 O :   -0.297949    0.189451

--------------------------------------------------
LOEWDIN REDUCED ORBITAL CHARGES AND SPIN DENSITIES
--------------------------------------------------
CHARGE
  0 Fes       :     6.557829  s :     6.557829
      pz      :     4.154134  p :    12.474979
      px      :     4.160423
      py      :     4.160423
      dz2     :     1.145011  d :     6.612752
      dxz     :     1.240668
      dyz     :     1.240668
      dx2y2   :     1.000892
      dxy     :     1.985513
      f0      :     0.015566  f :     0.052849
      f+1     :     0.009509
      f-1     :     0.009509
      f+2     :     0.003939
      f-2     :     0.004837
      f+3     :     0.004744
      f-3     :     0.004744
      g0      :     0.000575  g :     0.003642
      g+1     :     0.000431
      g-1     :     0.000431
      g+2     :     0.000325
      g-2     :     0.000388
      g+3     :     0.000363
      g-3     :     0.000363
      g+4     :     0.000383
      g-4     :     0.000383
  1 O s       :     3.646572  s :     3.646572
      pz      :     1.428381  p :     4.564979
      px      :     1.568299
      py      :     1.568299
      dz2     :     0.031995  d :     0.078919
      dxz     :     0.016461
      dyz     :     0.016461
      dx2y2   :     0.006609
      dxy     :     0.007392
      f0      :     0.002725  f :     0.007479
      f+1     :     0.001402
      f-1     :     0.001402
      f+2     :     0.000517
      f-2     :     0.000617
      f+3     :     0.000408
      f-3     :     0.000408

SPIN
  0 Fes       :     0.479216  s :     0.479216
      pz      :     0.017098  p :     0.198452
      px      :     0.090677
      py      :     0.090677
      dz2     :     0.567410  d :     3.118381
      dxz     :     0.778880
      dyz     :     0.778880
      dx2y2   :     0.988406
      dxy     :     0.004805
      f0      :     0.000617  f :     0.013211
      f+1     :     0.002925
      f-1     :     0.002925
      f+2     :     0.002635
      f-2     :     0.001531
      f+3     :     0.001289
      f-3     :     0.001289
      g0      :     0.000126  g :     0.001287
      g+1     :     0.000158
      g-1     :     0.000158
      g+2     :     0.000177
      g-2     :     0.000154
      g+3     :     0.000150
      g-3     :     0.000150
      g+4     :     0.000107
      g-4     :     0.000107
  1 O s       :     0.010371  s :     0.010371
      pz      :    -0.075947  p :     0.170583
      px      :     0.123265
      py      :     0.123265
      dz2     :     0.001922  d :     0.007303
      dxz     :     0.002248
      dyz     :     0.002248
      dx2y2   :     0.000767
      dxy     :     0.000118
      f0      :     0.000455  f :     0.001195
      f+1     :     0.000355
      f-1     :     0.000355
      f+2     :     0.000039
      f-2     :    -0.000047
      f+3     :     0.000019
      f-3     :     0.000019


                      *****************************
                      * MAYER POPULATION ANALYSIS *
                      *****************************

  NA   - Mulliken gross atomic population
  ZA   - Total nuclear charge
  QA   - Mulliken gross atomic charge
  VA   - Mayer's total valence
  BVA  - Mayer's bonded valence
  FA   - Mayer's free valence

  ATOM       NA         ZA         QA         VA         BVA        FA
  0 Fe    25.3906    26.0000     0.6094     5.8717     2.1942     3.6775
  1 O      8.6094     8.0000    -0.6094     2.5133     2.1942     0.3191

  Mayer bond orders larger than 0.100000
B(  0-Fe,  1-O ) :   2.1942 



------------------------------------------------------------------------------- 
                                     TIMINGS                                   
------------------------------------------------------------------------------- 


Total execution time                   ...       29.404 sec

Fock Matrix Formation                  ...        0.276 sec (  0.9%)
Initial Guess                          ...        0.034 sec (  0.1%)
DIIS Solver                            ...        2.253 sec (  7.7%)
State Vector Update                    ...        0.102 sec (  0.3%)
Sigma-vector construction              ...       22.297 sec ( 75.8%)
  <0|H|D>                              ...        0.005 sec (  0.0% of sigma)
  <D|H|D>(0-ext Fock)                  ...        0.044 sec (  0.2% of sigma)
  <D|H|D>(0-ext)                       ...        0.230 sec (  1.0% of sigma)
  <D|H|D>(2-ext Fock)                  ...        0.011 sec (  0.0% of sigma)
  <D|H|D>(2-ext)                       ...        0.594 sec (  2.7% of sigma)
  <D|H|D>(4-ext)                       ...       10.553 sec ( 47.3% of sigma)
  <S|H|0>                              ...        1.082 sec (  4.9% of sigma)
  <S|H|S>                              ...        0.003 sec (  0.0% of sigma)
  <S|H|D>(1-ext)                       ...        0.012 sec (  0.1% of sigma)
  <D|H|S>(1-ext)                       ...        0.177 sec (  0.8% of sigma)
  Fock-dressing                        ...        3.928 sec ( 17.6% of sigma)
  (ik|jl)-dressing                     ...        0.314 sec (  1.4% of sigma)
  (ij|ab),(ia|jb)-dressing             ...        4.271 sec ( 19.2% of sigma)
  Pair energies                        ...        0.011 sec (  0.0% of sigma)
Total Time for computing (T)           ...        2.255 sec (  7.7% of ALL)
  I/O of integral and amplitudes       ...        0.381 sec ( 16.9% of (T))
  External N**7 contributions          ...        0.666 sec ( 29.6% of (T))
  Internal N**7 contributions          ...        0.347 sec ( 15.4% of (T))
  N**6 triples energy contributions    ...        0.836 sec ( 37.1% of (T))

----- Orbital basis set information -----
Your calculation utilizes the basis: def2-QZVPP
   F. Weigend and R. Ahlrichs, Phys. Chem. Chem. Phys. 7, 3297 (2005).

----- AuxJ basis set information -----
Your calculation utilizes the auxiliary basis: def2/J
   F. Weigend, Phys. Chem. Chem. Phys. 8, 1057 (2006).

----- AuxC basis set information -----
Your calculation utilizes the auxiliary basis: def2-QZVPP/C
  H-La, Hf-Rn : A. Hellweg, C. Hattig, S. Hofener and W. Klopper, Theor. Chem. Acc. 117, 587 (2007).
        Ce-Lu : J. Chmela and M. E. Harding, Mol. Phys. (2018).

----- AuxJK basis set information -----
Your calculation utilizes the auxiliary basis: def2/JK
   H-Ba, Hf-Rn: F. Weigend, J. Comput. Chem. 29, 167 (2008).

All done

                     -----------------------------------------
                     Extrapolated Energy 2 Basis=  def2-QZVPP
                     -----------------------------------------

---------------------------------
CARTESIAN COORDINATES (ANGSTROEM)
---------------------------------
  Fe     0.000000    0.000000    0.196113
  O      0.000000    0.000000    1.803887

----------------------------
CARTESIAN COORDINATES (A.U.)
----------------------------
  NO LB      ZA    FRAG     MASS         X           Y           Z
   0 Fe   26.0000    0    55.850    0.000000    0.000000    0.370601
   1 O     8.0000    0    15.999    0.000000    0.000000    3.408852

--------------------------------
INTERNAL COORDINATES (ANGSTROEM)
--------------------------------
 Fe     0   0   0     0.000000000000     0.00000000     0.00000000
 O      1   0   0     1.607773180868     0.00000000     0.00000000

---------------------------
INTERNAL COORDINATES (A.U.)
---------------------------
 Fe     0   0   0     0.000000000000     0.00000000     0.00000000
 O      1   0   0     3.038250997305     0.00000000     0.00000000

---------------------
BASIS SET INFORMATION
---------------------
There are 2 groups of distinct atoms

 Group   1 Type Fe  : 24s18p10d4f2g contracted to 11s6p5d4f2g pattern {114111111111/951111/61111/1111/11}
 Group   2 Type O   : 15s8p3d2f1g contracted to 7s4p3d2f1g pattern {8211111/5111/111/11/1}

Atom   0Fe   basis set group =>   1
Atom   1O    basis set group =>   2
---------------------------------
AUXILIARY/J BASIS SET INFORMATION
---------------------------------
There are 2 groups of distinct atoms

 Group   1 Type Fe  : 19s5p5d3f3g contracted to 8s5p5d2f3g pattern {121111111/11111/11111/21/111}
 Group   2 Type O   : 12s5p4d2f1g contracted to 6s4p3d1f1g pattern {711111/2111/211/2/1}

Atom   0Fe   basis set group =>   1
Atom   1O    basis set group =>   2
---------------------------------
AUXILIARY/C BASIS SET INFORMATION
---------------------------------
There are 2 groups of distinct atoms

[...]
 14  -1338.095858591     -0.798945734     -0.000031453      0.000041331    5.85      0.440965343
 15  -1338.095890655     -0.798977798     -0.000032064      0.000028639    5.87      0.441430130
 16  -1338.095878928     -0.798966071      0.000011727      0.000013712    5.92      0.441383733
 17  -1338.095870155     -0.798957298      0.000008773      0.000006477    5.91      0.441359926
 18  -1338.095865911     -0.798953054      0.000004244      0.000003586    5.93      0.441345318
 19  -1338.095865964     -0.798953107     -0.000000053      0.000002899    5.93      0.441371075
 20  -1338.095866001     -0.798953144     -0.000000037      0.000002243    6.01      0.441378521
 21  -1338.095866464     -0.798953606     -0.000000462      0.000001246    5.94      0.441381572
 22  -1338.095866443     -0.798953586      0.000000020      0.000000380    5.93      0.441380648
               --- The Coupled-Cluster iterations have converged ---

----------------------
COUPLED CLUSTER ENERGY
----------------------

E(0)                                       ...  -1337.296912857
E(CORR)                                    ...     -0.798953586
E(TOT)                                     ...  -1338.095866443
Singles norm <S|S>**1/2                    ...      0.441380648 ( 0.318782487, 0.122598160)  
T1 diagnostic                              ...      0.094102670                              

------------------
LARGEST AMPLITUDES
------------------
  18a-> 21a  -1a-> -1a       0.360020
  18a-> 23a  -1a-> -1a       0.233745
  18a-> 30a  -1a-> -1a       0.170781
  12b-> 28b  -1b-> -1b       0.153437
  13b-> 29b  -1b-> -1b       0.153437
  18a-> 22a  -1a-> -1a       0.111413
  13a-> 21a  -1a-> -1a       0.110433
  13a-> 30a  -1a-> -1a       0.100329
  11b-> 31b  -1b-> -1b       0.094424
  13a-> 23a  -1a-> -1a       0.086642
  11b-> 21b  -1b-> -1b       0.075452
  11b-> 27b  -1b-> -1b       0.074579
  18a-> 35a  -1a-> -1a       0.072093
  13a-> 39a  -1a-> -1a       0.059712
  13a-> 22a  -1a-> -1a       0.059598
  11b-> 43b  -1b-> -1b       0.057452

----------------------
UHF TRIPLES CORRECTION (Algorithm 1)
----------------------

Multiplier for the singles contribution    ...      1.000000000

SPIN-CASE Alpha-Alpha-Alpha:
10% done
20% done
30% done
40% done
50% done
60% done
70% done
80% done
90% done


SPIN-CASE Beta-Beta-Beta:
10% done
20% done
30% done
40% done
50% done
60% done
70% done
80% done
90% done


SPIN-CASE Alpha-Alpha-Beta:
10% done
20% done
30% done
40% done
50% done
60% done
70% done
80% done
90% done


SPIN-CASE Beta-Beta-Alpha:
10% done
20% done
30% done
40% done
50% done
60% done
70% done
80% done
90% done


Triples Correction (T)                     ...     -0.041142335
    alpha-alpha-alpha ... -0.002240652 (  5.4%)
    alpha-alpha-beta  ... -0.022253465 ( 54.1%)
    alpha-beta -beta  ... -0.015957709 ( 38.8%)
    beta -beta -beta  ... -0.000690509 (  1.7%)
Scaling of triples based on CCSD energies (Peterson et al. Molecular Physics 113, 1551 (2015))
E(T*) = f*E(T) where f = E(F12-CCSD)/E(CCSD) 
f = CCSD (with F12)/ CCSD (without F12)    ...      1.000000000
Scaled triples correction (T)              ...     -0.041142335

Final correlation energy                   ...     -0.840095921
E(CCSD)                                    ...  -1338.095866443
E(CCSD(T))                                 ...  -1338.137008778



        !!!!!!!!!!!!!!!!!!!!!!!!!!!!!!!!!!!!!!!!!!!!!!!!!!!!!!!!!!!!!!!!!!!!!!!!!! 
        !  Warning: Densities are linearized densities                           !
        !!!!!!!!!!!!!!!!!!!!!!!!!!!!!!!!!!!!!!!!!!!!!!!!!!!!!!!!!!!!!!!!!!!!!!!!!! 

NORM  =      1.608429733 sqrt=     1.268238831
W(HF) =      0.621724393
------------------------------------------------------------------------------
                           ORCA POPULATION ANALYSIS
------------------------------------------------------------------------------
Input electron density              ... 35_FeO.mdcip
Input spin density                  ... 35_FeO.mdcir
BaseName (.gbw .S,...)              ... 35_FeO

                    ********************************
                    * MULLIKEN POPULATION ANALYSIS *
                    ********************************

------------------------------------------
MULLIKEN ATOMIC CHARGES AND SPIN DENSITIES
------------------------------------------
   0 Fe:    0.625731    3.873188
   1 O :   -0.625731    0.126812
Sum of atomic charges       :   -0.0000000
Sum of atomic spin densities:    4.0000000

---------------------------------------------------
MULLIKEN REDUCED ORBITAL CHARGES AND SPIN DENSITIES
---------------------------------------------------
CHARGE
  0 Fes       :     6.593597  s :     6.593597
      pz      :     4.030373  p :    12.305078
      px      :     4.137353
      py      :     4.137353
      dz2     :     1.022922  d :     6.402056
      dxz     :     1.197386
      dyz     :     1.197386
      dx2y2   :     1.000410
      dxy     :     1.983953
      f0      :     0.012122  f :     0.067726
      f+1     :     0.016902
      f-1     :     0.016902
      f+2     :     0.004809
      f-2     :     0.006040
      f+3     :     0.005475
      f-3     :     0.005475
      g0      :     0.001016  g :     0.005813
      g+1     :     0.000847
      g-1     :     0.000847
      g+2     :     0.000461
      g-2     :     0.000562
      g+3     :     0.000506
      g-3     :     0.000506
      g+4     :     0.000534
      g-4     :     0.000534
  1 O s       :     3.919960  s :     3.919960
      pz      :     1.383302  p :     4.634951
      px      :     1.625824
      py      :     1.625824
      dz2     :     0.014622  d :     0.061214
      dxz     :     0.015730
      dyz     :     0.015730
      dx2y2   :     0.007241
      dxy     :     0.007890
      f0      :     0.002257  f :     0.008891
      f+1     :     0.001883
      f-1     :     0.001883
      f+2     :     0.000777
      f-2     :     0.000902
      f+3     :     0.000594
      f-3     :     0.000594
      g0      :     0.000134  g :     0.000716
      g+1     :     0.000107
      g-1     :     0.000107
      g+2     :     0.000064
      g-2     :     0.000070
      g+3     :     0.000057
      g-3     :     0.000057
      g+4     :     0.000059
      g-4     :     0.000059

SPIN
  0 Fes       :     0.532769  s :     0.532769
      pz      :     0.003245  p :     0.171436
      px      :     0.084096
      py      :     0.084096
      dz2     :     0.582452  d :     3.146871
      dxz     :     0.785741
      dyz     :     0.785741
      dx2y2   :     0.987956
      dxy     :     0.004981
      f0      :     0.002079  f :     0.020567
      f+1     :     0.005681
      f-1     :     0.005681
      f+2     :     0.002896
      f-2     :     0.001556
      f+3     :     0.001337
      f-3     :     0.001337
      g0      :     0.000143  g :     0.001545
      g+1     :     0.000145
      g-1     :     0.000145
      g+2     :     0.000229
      g-2     :     0.000199
      g+3     :     0.000197
      g-3     :     0.000197
      g+4     :     0.000144
      g-4     :     0.000144
  1 O s       :    -0.000264  s :    -0.000264
      pz      :    -0.121360  p :     0.129274
      px      :     0.125317
      py      :     0.125317
      dz2     :     0.000989  d :    -0.001819
      dxz     :    -0.001822
      dyz     :    -0.001822
      dx2y2   :     0.000682
      dxy     :     0.000153
      f0      :     0.000097  f :    -0.000410
      f+1     :    -0.000258
      f-1     :    -0.000258
      f+2     :     0.000034
      f-2     :    -0.000075
      f+3     :     0.000025
      f-3     :     0.000025
      g0      :     0.000013  g :     0.000032
      g+1     :     0.000007
      g-1     :     0.000007
      g+2     :     0.000004
      g-2     :    -0.000001
      g+3     :     0.000000
      g-3     :     0.000000
      g+4     :     0.000000
      g-4     :     0.000000


                     *******************************
                     * LOEWDIN POPULATION ANALYSIS *
                     *******************************

-----------------------------------------
LOEWDIN ATOMIC CHARGES AND SPIN DENSITIES
-----------------------------------------
   0 Fe:    0.051739    3.796339
   1 O :   -0.051739    0.203661

--------------------------------------------------
LOEWDIN REDUCED ORBITAL CHARGES AND SPIN DENSITIES
--------------------------------------------------
CHARGE
  0 Fes       :     6.543453  s :     6.543453
      pz      :     4.164682  p :    12.489180
      px      :     4.162249
      py      :     4.162249
      dz2     :     1.185834  d :     6.646192
      dxz     :     1.239701
      dyz     :     1.239701
      dx2y2   :     0.999451
      dxy     :     1.981505
      f0      :     0.103705  f :     0.259464
      f+1     :     0.066794
      f-1     :     0.066794
      f+2     :     0.004974
      f-2     :     0.006247
      f+3     :     0.005475
      f-3     :     0.005475
      g0      :     0.003297  g :     0.009971
      g+1     :     0.001783
      g-1     :     0.001783
      g+2     :     0.000465
      g-2     :     0.000564
      g+3     :     0.000506
      g-3     :     0.000506
      g+4     :     0.000534
      g-4     :     0.000534
  1 O s       :     3.463851  s :     3.463851
      pz      :     1.437788  p :     4.433452
      px      :     1.497832
      py      :     1.497832
      dz2     :     0.058409  d :     0.119087
      dxz     :     0.021865
      dyz     :     0.021865
      dx2y2   :     0.007670
      dxy     :     0.009278
      f0      :     0.018528  f :     0.033618
      f+1     :     0.005534
      f-1     :     0.005534
      f+2     :     0.001121
      f-2     :     0.001715
      f+3     :     0.000594
      f-3     :     0.000594
      g0      :     0.000758  g :     0.001731
      g+1     :     0.000275
      g-1     :     0.000275
      g+2     :     0.000082
      g-2     :     0.000109
      g+3     :     0.000058
      g-3     :     0.000058
      g+4     :     0.000059
      g-4     :     0.000059

SPIN
  0 Fes       :     0.460151  s :     0.460151
      pz      :     0.010006  p :     0.195034
      px      :     0.092514
      py      :     0.092514
      dz2     :     0.570748  d :     3.106892
      dxz     :     0.771973
      dyz     :     0.771973
      dx2y2   :     0.986948
      dxy     :     0.005249
      f0      :     0.000071  f :     0.032783
      f+1     :     0.012770
      f-1     :     0.012770
      f+2     :     0.002935
      f-2     :     0.001562
      f+3     :     0.001337
      f-3     :     0.001337
      g0      :    -0.000235  g :     0.001479
      g+1     :     0.000305
      g-1     :     0.000305
      g+2     :     0.000227
      g-2     :     0.000195
      g+3     :     0.000197
      g-3     :     0.000197
      g+4     :     0.000144
      g-4     :     0.000144
  1 O s       :     0.007640  s :     0.007640
      pz      :    -0.051770  p :     0.174949
      px      :     0.113359
      py      :     0.113359
      dz2     :     0.001207  d :     0.013049
      dxz     :     0.005310
      dyz     :     0.005310
      dx2y2   :     0.001281
      dxy     :    -0.000058
      f0      :     0.002192  f :     0.007571
      f+1     :     0.002537
      f-1     :     0.002537
      f+2     :     0.000388
      f-2     :    -0.000133
      f+3     :     0.000025
      f-3     :     0.000025
      g0      :     0.000153  g :     0.000451
      g+1     :     0.000139
      g-1     :     0.000139
      g+2     :     0.000022
      g-2     :    -0.000003
      g+3     :     0.000000
      g-3     :     0.000000
      g+4     :     0.000000
      g-4     :     0.000000


                      *****************************
                      * MAYER POPULATION ANALYSIS *
                      *****************************

  NA   - Mulliken gross atomic population
  ZA   - Total nuclear charge
  QA   - Mulliken gross atomic charge
  VA   - Mayer's total valence
  BVA  - Mayer's bonded valence
  FA   - Mayer's free valence

  ATOM       NA         ZA         QA         VA         BVA        FA
  0 Fe    25.3743    26.0000     0.6257     5.9299     2.2358     3.6941
  1 O      8.6257     8.0000    -0.6257     2.5268     2.2358     0.2911

  Mayer bond orders larger than 0.100000
B(  0-Fe,  1-O ) :   2.2358 



------------------------------------------------------------------------------- 
                                     TIMINGS                                   
------------------------------------------------------------------------------- 


Total execution time                   ...      160.566 sec

Fock Matrix Formation                  ...        1.086 sec (  0.7%)
Initial Guess                          ...        0.104 sec (  0.1%)
DIIS Solver                            ...        7.536 sec (  4.7%)
State Vector Update                    ...        0.327 sec (  0.2%)
Sigma-vector construction              ...      122.682 sec ( 76.4%)
  <0|H|D>                              ...        0.017 sec (  0.0% of sigma)
  <D|H|D>(0-ext Fock)                  ...        0.164 sec (  0.1% of sigma)
  <D|H|D>(0-ext)                       ...        0.878 sec (  0.7% of sigma)
  <D|H|D>(2-ext Fock)                  ...        0.049 sec (  0.0% of sigma)
  <D|H|D>(2-ext)                       ...        2.703 sec (  2.2% of sigma)
  <D|H|D>(4-ext)                       ...       76.924 sec ( 62.7% of sigma)
  <S|H|0>                              ...        6.282 sec (  5.1% of sigma)
  <S|H|S>                              ...        0.007 sec (  0.0% of sigma)
  <S|H|D>(1-ext)                       ...        0.034 sec (  0.0% of sigma)
  <D|H|S>(1-ext)                       ...        0.536 sec (  0.4% of sigma)
  Fock-dressing                        ...       14.872 sec ( 12.1% of sigma)
  (ik|jl)-dressing                     ...        1.020 sec (  0.8% of sigma)
  (ij|ab),(ia|jb)-dressing             ...       15.845 sec ( 12.9% of sigma)
  Pair energies                        ...        0.023 sec (  0.0% of sigma)
Total Time for computing (T)           ...       18.690 sec ( 11.6% of ALL)
  I/O of integral and amplitudes       ...        2.828 sec ( 15.1% of (T))
  External N**7 contributions          ...        6.519 sec ( 34.9% of (T))
  Internal N**7 contributions          ...        2.140 sec ( 11.4% of (T))
  N**6 triples energy contributions    ...        6.660 sec ( 35.6% of (T))


-------------------
EXTRAPOLATED ENERGY
-------------------


-----------------------------------------------------------------
                      EP1 - MDCI extrapolation:
-----------------------------------------------------------------
NOTE: We use as reference SCF energy, for the extrapolation, the one from the MDCI module and not the one 
from the SCF calculation. In case the first step is a DFT calculation these two might be different.

NOTE: For the SCF part we extrapolate based on the scheme proposed in J. Chem. Phys. 2008, 129, 184116
using the exponents from J. Chem. Theory Comput., 7, 33-43 (2011)

NOTE: For the correlation part we extrapolate based on the scheme proposed in J. Chem. Phys. 1997, 106, 9639
using the exponents from J. Chem. Theory Comput., 7, 33-43 (2011)


Alpha(3/4)     :  7.880 (SCF Extrapolation)
Beta(3/4)      :  2.970 (correlation extrapolation)

SCF energy with basis def2-TZVPP:                     -1337.266737939
SCF energy with basis def2-QZVPP:                     -1337.296912857
Extrapolated CBS SCF energy (3/4) :                   -1337.301069111 (-0.004156254) 

MDCI energy with basis def2-TZVPP:                       -0.796528679
MDCI energy with basis def2-QZVPP:                       -0.840095921
Extrapolated CBS correlation energy (3/4) :              -0.872367928 (-0.032272007)

Estimated CBS total energy (3/4) :                    -1338.173437039



-------------------------   --------------------
FINAL SINGLE POINT ENERGY     -1338.173437038853
-------------------------   --------------------


                            ***************************************
                            *     ORCA property calculations      *
                            ***************************************

                                    ---------------------
                                    Active property flags
                                    ---------------------
   (+) Dipole Moment


------------------------------------------------------------------------------
                       ORCA ELECTRIC PROPERTIES CALCULATION
------------------------------------------------------------------------------

Dipole Moment Calculation                       ... on
Quadrupole Moment Calculation                   ... off
Polarizability Calculation                      ... off
GBWName                                         ... 35_FeO.gbw
Electron density file                           ... 35_FeO.scfp
The origin for moment calculation is the CENTER OF MASS  = ( 0.000000,  0.000000  1.047144)

-------------
DIPOLE MOMENT
-------------
                                X             Y             Z
Electronic contribution:     -0.00000      -0.00000      -2.17733
Nuclear contribution   :      0.00000       0.00000       1.30353
                        -----------------------------------------
Total Dipole Moment    :     -0.00000      -0.00000      -0.87381
                        -----------------------------------------
Magnitude (a.u.)       :      0.87381
Magnitude (Debye)      :      2.22104



--------------------
Rotational spectrum 
--------------------
 
Rotational constants in cm-1:     0.000000     0.524387     0.524387 
Rotational constants in MHz :     0.000000 15720.731712 15720.731712 

 Dipole components along the rotational axes: 
x,y,z [a.u.] :    -0.873806    -0.000000    -0.000000 
x,y,z [Debye]:    -2.221039    -0.000000    -0.000000 

 

                           *** MDCI DENSITY ***

------------------------------------------------------------------------------
                       ORCA ELECTRIC PROPERTIES CALCULATION
------------------------------------------------------------------------------

Dipole Moment Calculation                       ... on
Quadrupole Moment Calculation                   ... off
Polarizability Calculation                      ... off
GBWName                                         ... 35_FeO.gbw
Electron density file                           ... 35_FeO.mdcip
The origin for moment calculation is the CENTER OF MASS  = ( 0.000000,  0.000000  1.047144)

-------------
DIPOLE MOMENT
-------------
                                X             Y             Z
Electronic contribution:     -0.00000       0.00000      -3.59328
Nuclear contribution   :      0.00000       0.00000       1.30353
                        -----------------------------------------
Total Dipole Moment    :     -0.00000       0.00000      -2.28975
                        -----------------------------------------
Magnitude (a.u.)       :      2.28975
Magnitude (Debye)      :      5.82008



--------------------
Rotational spectrum 
--------------------
 
Rotational constants in cm-1:     0.000000     0.524387     0.524387 
Rotational constants in MHz :     0.000000 15720.731712 15720.731712 

 Dipole components along the rotational axes: 
x,y,z [a.u.] :    -2.289749     0.000000    -0.000000 
x,y,z [Debye]:    -5.820079     0.000000    -0.000000 

 

Timings for individual modules:

Sum of individual times         ...      209.662 sec (=   3.494 min)
GTO integral calculation        ...        1.545 sec (=   0.026 min)   0.7 %
SCF iterations                  ...       16.408 sec (=   0.273 min)   7.8 %
MDCI module                     ...      191.709 sec (=   3.195 min)  91.4 %
                             ****ORCA TERMINATED NORMALLY****
TOTAL RUN TIME: 0 days 0 hours 3 minutes 30 seconds 622 msec
