
                                 *****************
                                 * O   R   C   A *
                                 *****************

           --- An Ab Initio, DFT and Semiempirical electronic structure package ---

                  #######################################################
                  #                        -***-                        #
                  #          Department of theory and spectroscopy      #
                  #               Directorship: Frank Neese             #
                  #        Max Planck Institute fuer Kohlenforschung    #
                  #                Kaiser Wilhelm Platz 1               #
                  #                 D-45470 Muelheim/Ruhr               #
                  #                      Germany                        #
                  #                                                     #
                  #                  All rights reserved                #
                  #                        -***-                        #
                  #######################################################


                         Program Version 4.2.0 -  RELEASE  -


 With contributions from (in alphabetic order):
   Daniel Aravena         : Magnetic Suceptibility
   Michael Atanasov       : Ab Initio Ligand Field Theory (pilot matlab implementation)
   Alexander A. Auer      : GIAO ZORA, VPT2
   Ute Becker             : Parallelization
   Giovanni Bistoni       : ED, misc. LED, open-shell LED, HFLED
   Martin Brehm           : Molecular dynamics
   Dmytro Bykov           : SCF Hessian
   Vijay G. Chilkuri      : MRCI spin determinant printing, contributions to CSF-ICE
   Dipayan Datta          : RHF DLPNO-CCSD density
   Achintya Kumar Dutta   : EOM-CC, STEOM-CC
   Dmitry Ganyushin       : Spin-Orbit,Spin-Spin,Magnetic field MRCI
   Miquel Garcia          : C-PCM Hessian, Gaussian charge scheme
   Yang Guo               : DLPNO-NEVPT2, CIM, IAO-localization
   Andreas Hansen         : Spin unrestricted coupled pair/coupled cluster methods
   Benjamin Helmich-Paris : CASSCF linear response (MC-RPA)
   Lee Huntington         : MR-EOM, pCC
   Robert Izsak           : Overlap fitted RIJCOSX, COSX-SCS-MP3, EOM
   Christian Kollmar      : KDIIS, OOCD, Brueckner-CCSD(T), CCSD density
   Simone Kossmann        : Meta GGA functionals, TD-DFT gradient, OOMP2, MP2 Hessian
   Martin Krupicka        : AUTO-CI
   Lucas Lang             : DCDCAS
   Dagmar Lenk            : GEPOL surface, SMD
   Dimitrios Liakos       : Extrapolation schemes; Compound Job, initial MDCI parallelization
   Dimitrios Manganas     : Further ROCIS development; embedding schemes
   Dimitrios Pantazis     : SARC Basis sets
   Taras Petrenko         : DFT Hessian,TD-DFT gradient, ASA, ECA, R-Raman, ABS, FL, XAS/XES, NRVS
   Peter Pinski           : DLPNO-MP2, DLPNO-MP2 Gradient
   Christoph Reimann      : Effective Core Potentials
   Marius Retegan         : Local ZFS, SOC
   Christoph Riplinger    : Optimizer, TS searches, QM/MM, DLPNO-CCSD(T), (RO)-DLPNO pert. Triples
   Tobias Risthaus        : Range-separated hybrids, TD-DFT gradient, RPA, STAB
   Michael Roemelt        : Original ROCIS implementation
   Masaaki Saitow         : Open-shell DLPNO-CCSD energy and density
   Barbara Sandhoefer     : DKH picture change effects
   Avijit Sen             : IP-ROCIS
   Kantharuban Sivalingam : CASSCF convergence, NEVPT2, FIC-MRCI
   Bernardo de Souza      : ESD, SOC TD-DFT
   Georgi Stoychev        : AutoAux, RI-MP2 NMR
   Willem Van den Heuvel  : Paramagnetic NMR
   Boris Wezisla          : Elementary symmetry handling
   Frank Wennmohs         : Technical directorship


 We gratefully acknowledge several colleagues who have allowed us to
 interface, adapt or use parts of their codes:
   Stefan Grimme, W. Hujo, H. Kruse,             : VdW corrections, initial TS optimization,
                  C. Bannwarth                     DFT functionals, gCP, sTDA/sTD-DF
   Ed Valeev, F. Pavosevic, A. Kumar             : LibInt (2-el integral package), F12 methods
   Garnet Chan, S. Sharma, J. Yang, R. Olivares  : DMRG
   Ulf Ekstrom                                   : XCFun DFT Library
   Mihaly Kallay                                 : mrcc  (arbitrary order and MRCC methods)
   Andreas Klamt, Michael Diedenhofen            : otool_cosmo (COSMO solvation model)
   Jiri Pittner, Ondrej Demel                    : Mk-CCSD
   Frank Weinhold                                : gennbo (NPA and NBO analysis)
   Christopher J. Cramer and Donald G. Truhlar   : smd solvation model
   Lars Goerigk                                  : TD-DFT with DH, B97 family of functionals
   V. Asgeirsson, H. Jonsson                     : NEB implementation
   FAccTs GmbH                                   : IRC, NEB, NEB-TS, Multilevel, MM, QM/MM, CI optimization
   S Lehtola, MJT Oliveira, MAL Marques          : LibXC Library


 Your calculation uses the libint2 library for the computation of 2-el integrals
 For citations please refer to: http://libint.valeyev.net

 Your ORCA version has been built with support for libXC version: 4.2.3
 For citations please refer to: https://tddft.org/programs/libxc/

 This ORCA versions uses:
   CBLAS   interface :  Fast vector & matrix operations
   LAPACKE interface :  Fast linear algebra routines
   SCALAPACK package :  Parallel linear algebra routines


----- Orbital basis set information -----
Your calculation utilizes the basis: def2-TZVPP
   F. Weigend and R. Ahlrichs, Phys. Chem. Chem. Phys. 7, 3297 (2005).

================================================================================
                                        WARNINGS
                       Please study these warnings very carefully!
================================================================================


WARNING: your system is open-shell and RHF/RKS was chosen
  ===> : WILL SWITCH to UHF/UKS


WARNING: MDCI localization with Augmented Hessian Foster-Boys
  ===> : Switching off randomization!

WARNING: Post HF methods need fully converged wavefunctions
  ===> : Setting SCFConvForced true
         You can overwrite this default with %scf ConvForced false 


INFO   : the flag for use of LIBINT has been found!

================================================================================
                                       INPUT FILE
================================================================================
NAME = 36_FeS.in
|  1> #
|  2> # 36_FeS ccsd(t)/cbs
|  3> #
|  4> ! ccsd(t) extrapolate(3/4,def2) verytightscf
|  5> 
|  6> *xyz 0 5
|  7>   Fe  0.00000000000000      0.00000000000000     -0.00599090985654
|  8>   S   0.00000000000000      0.00000000000000      2.00599090985654
|  9> *
| 10> 
| 11> %maxcore 5000
| 12> %pal
| 13> nprocs 24
| 14> end
| 15> 
| 16> 
| 17>                          ****END OF INPUT****
================================================================================

                   *****************************************
                   * Extrapolated Single Point Calculation *
                   *****************************************

----- Orbital basis set information -----
Your calculation utilizes the basis: def2-TZVPP
   F. Weigend and R. Ahlrichs, Phys. Chem. Chem. Phys. 7, 3297 (2005).

----- AuxJ basis set information -----
Your calculation utilizes the auxiliary basis: def2/J
   F. Weigend, Phys. Chem. Chem. Phys. 8, 1057 (2006).

----- AuxC basis set information -----
Your calculation utilizes the auxiliary basis: def2-TZVPP/C
  H-La, Hf-Rn : A. Hellweg, C. Hattig, S. Hofener and W. Klopper, Theor. Chem. Acc. 117, 587 (2007).
        Ce-Lu : J. Chmela and M. E. Harding, Mol. Phys. (2018).

----- AuxJK basis set information -----
Your calculation utilizes the auxiliary basis: def2/JK
   H-Ba, Hf-Rn: F. Weigend, J. Comput. Chem. 29, 167 (2008).

All done

                     -----------------------------------------
                     Extrapolated Energy 1 Basis=  def2-TZVPP
                     -----------------------------------------

---------------------------------
CARTESIAN COORDINATES (ANGSTROEM)
---------------------------------
  Fe     0.000000    0.000000   -0.005991
  S      0.000000    0.000000    2.005991

----------------------------
CARTESIAN COORDINATES (A.U.)
----------------------------
  NO LB      ZA    FRAG     MASS         X           Y           Z
   0 Fe   26.0000    0    55.850    0.000000    0.000000   -0.011321
   1 S    16.0000    0    32.060    0.000000    0.000000    3.790773

--------------------------------
INTERNAL COORDINATES (ANGSTROEM)
--------------------------------
 Fe     0   0   0     0.000000000000     0.00000000     0.00000000
 S      1   0   0     2.011981819713     0.00000000     0.00000000

---------------------------
INTERNAL COORDINATES (A.U.)
---------------------------
 Fe     0   0   0     0.000000000000     0.00000000     0.00000000
 S      1   0   0     3.802094625686     0.00000000     0.00000000

---------------------
BASIS SET INFORMATION
---------------------
There are 2 groups of distinct atoms

 Group   1 Type Fe  : 17s12p7d2f1g contracted to 6s5p4d2f1g pattern {842111/63111/4111/11/1}
 Group   2 Type S   : 14s9p3d1f contracted to 5s5p3d1f pattern {73211/51111/111/1}

Atom   0Fe   basis set group =>   1
Atom   1S    basis set group =>   2
---------------------------------
AUXILIARY/J BASIS SET INFORMATION
---------------------------------
There are 2 groups of distinct atoms

 Group   1 Type Fe  : 19s5p5d3f3g contracted to 8s5p5d2f3g pattern {121111111/11111/11111/21/111}
 Group   2 Type S   : 14s5p5d2f1g contracted to 8s4p3d1f1g pattern {71111111/2111/311/2/1}

Atom   0Fe   basis set group =>   1
Atom   1S    basis set group =>   2
---------------------------------
AUXILIARY/C BASIS SET INFORMATION
---------------------------------
There are 2 groups of distinct atoms

 Group   1 Type Fe  : 9s9p8d7f5g3h1i contracted to 9s9p8d7f5g3h1i pattern {111111111/111111111/11111111/1111111/11111/111/1}
 Group   2 Type S   : 11s8p7d5f2g contracted to 11s8p7d5f2g pattern {11111111111/11111111/1111111/11111/11}

Atom   0Fe   basis set group =>   1
Atom   1S    basis set group =>   2
----------------------------------
AUXILIARY/JK BASIS SET INFORMATION
----------------------------------
There are 2 groups of distinct atoms

 Group   1 Type Fe  : 19s14p12d10f7g3h1i contracted to 16s13p11d9f5g3h1i pattern {4111111111111111/2111111111111/21111111111/211111111/31111/111/1}
 Group   2 Type S   : 16s12p10d4f1g contracted to 13s11p9d4f1g pattern {4111111111111/21111111111/211111111/1111/1}

Atom   0Fe   basis set group =>   1
Atom   1S    basis set group =>   2


           ************************************************************
           *        Program running with 24 parallel MPI-processes    *
           *              working on a common directory               *
           ************************************************************
------------------------------------------------------------------------------
                           ORCA GTO INTEGRAL CALCULATION
------------------------------------------------------------------------------

                         BASIS SET STATISTICS AND STARTUP INFO

 # of primitive gaussian shells          ...   66
 # of primitive gaussian functions       ...  174
 # of contracted shells                  ...   32
 # of contracted basis functions         ...  106
 Highest angular momentum                ...    4
 Maximum contraction depth               ...    8
 Integral package used                   ... LIBINT
 Integral threshhold            Thresh   ...  1.000e-12
 Primitive cut-off              TCut     ...  1.000e-14


------------------------------ INTEGRAL EVALUATION ----------------------------


 * One electron integrals 
 Pre-screening matrix                    ... done
 Shell pair data                         ... done (   0.000 sec)



           ************************************************************
           *        Program running with 24 parallel MPI-processes    *
           *              working on a common directory               *
           ************************************************************
-------------------------------------------------------------------------------
                                 ORCA SCF
-------------------------------------------------------------------------------

------------
SCF SETTINGS
------------
Hamiltonian:
 Ab initio Hamiltonian  Method          .... Hartree-Fock(GTOs)


General Settings:
 Integral files         IntName         .... 36_FeS
 Hartree-Fock type      HFTyp           .... UHF
 Total Charge           Charge          ....    0
 Multiplicity           Mult            ....    5
 Number of Electrons    NEL             ....   42
 Basis Dimension        Dim             ....  106
 Nuclear Repulsion      ENuc            ....    109.4133736677 Eh

Convergence Acceleration:
 DIIS                   CNVDIIS         .... on
   Start iteration      DIISMaxIt       ....    12
   Startup error        DIISStart       ....  0.200000
   # of expansion vecs  DIISMaxEq       ....     5
   Bias factor          DIISBfac        ....   1.050
   Max. coefficient     DIISMaxC        ....  10.000
 Newton-Raphson         CNVNR           .... off
 SOSCF                  CNVSOSCF        .... off
 Level Shifting         CNVShift        .... on
   Level shift para.    LevelShift      ....    0.2500
   Turn off err/grad.   ShiftErr        ....    0.0010
 Zerner damping         CNVZerner       .... off
 Static damping         CNVDamp         .... on
   Fraction old density DampFac         ....    0.7000
   Max. Damping (<1)    DampMax         ....    0.9800
   Min. Damping (>=0)   DampMin         ....    0.0000
   Turn off err/grad.   DampErr         ....    0.1000
 Fernandez-Rico         CNVRico         .... off

SCF Procedure:
 Maximum # iterations   MaxIter         ....   125
 SCF integral mode      SCFMode         .... Direct
   Integral package                     .... LIBINT
 Reset frequency        DirectResetFreq ....    20
 Integral Threshold     Thresh          ....  1.000e-12 Eh
 Primitive CutOff       TCut            ....  1.000e-14 Eh

Convergence Tolerance:
 Convergence Check Mode ConvCheckMode   .... Total+1el-Energy
 Convergence forced     ConvForced      .... 1
 Energy Change          TolE            ....  1.000e-09 Eh
 1-El. energy change                    ....  1.000e-06 Eh
 DIIS Error             TolErr          ....  1.000e-08


Diagonalization of the overlap matrix:
Smallest eigenvalue                        ... 4.279e-03
Time for diagonalization                   ...    0.021 sec
Threshold for overlap eigenvalues          ... 1.000e-08
Number of eigenvalues below threshold      ... 0
Time for construction of square roots      ...    0.001 sec
Total time needed                          ...    0.022 sec

-------------------
DFT GRID GENERATION
-------------------

General Integration Accuracy     IntAcc      ...  4.340
Radial Grid Type                 RadialGrid  ... Gauss-Chebyshev
Angular Grid (max. acc.)         AngularGrid ... Lebedev-110
Angular grid pruning method      GridPruning ... 3 (G Style)
Weight generation scheme         WeightScheme... Becke
Basis function cutoff            BFCut       ...    1.0000e-12
Integration weight cutoff        WCut        ...    1.0000e-14
Grids for H and He will be reduced by one unit

# of grid points (after initial pruning)     ...   4718 (   0.0 sec)
# of grid points (after weights+screening)   ...   4693 (   0.0 sec)
nearest neighbour list constructed           ...    0.0 sec
Grid point re-assignment to atoms done       ...    0.0 sec
Grid point division into batches done        ...    0.0 sec
Reduced shell lists constructed in    0.0 sec

Total number of grid points                  ...     4693
Total number of batches                      ...       75
Average number of points per batch           ...       62
Average number of grid points per atom       ...     2346
Average number of shells per batch           ...     8.40 (26.25%)
Average number of basis functions per batch  ...    25.20 (23.77%)
Average number of large shells per batch     ...     7.20 (85.71%)
Average number of large basis fcns per batch ...    21.60 (85.71%)
Maximum spatial batch extension              ...  18.98, 28.73, 16.15 au
Average spatial batch extension              ...   0.94,  1.29,  0.86 au

Time for grid setup =    0.018 sec

------------------------------
INITIAL GUESS: MODEL POTENTIAL
------------------------------
Loading Hartree-Fock densities                     ... done
Calculating cut-offs                               ... done
Setting up the integral package                    ... done
Initializing the effective Hamiltonian             ... done
Starting the Coulomb interaction                   ... done (   0.0 sec)
Reading the grid                                   ... done
Mapping shells                                     ... done
Starting the XC term evaluation                    ... done (   0.0 sec)
Transforming the Hamiltonian                       ... done (   0.0 sec)
Diagonalizing the Hamiltonian                      ... done (   0.0 sec)
Back transforming the eigenvectors                 ... done (   0.0 sec)
Now organizing SCF variables                       ... done
                      ------------------
                      INITIAL GUESS DONE (   0.1 sec)
                      ------------------
--------------
SCF ITERATIONS
--------------
ITER       Energy         Delta-E        Max-DP      RMS-DP      [F,P]     Damp
               ***  Starting incremental Fock matrix formation  ***
  0  -1659.7196634886   0.000000000000 0.03282530  0.00064601  0.1357825 0.7000
  1  -1659.7612175364  -0.041554047826 0.02681003  0.00056174  0.0961281 0.7000
                               ***Turning on DIIS***
  2  -1659.7931777632  -0.031960226813 0.06325420  0.00145625  0.0680485 0.0000
  3  -1659.7270037545   0.066174008738 0.01980440  0.00056191  0.0544057 0.0000
  4  -1660.0589121400  -0.331908385498 0.01115226  0.00043970  0.0385279 0.0000
  5  -1659.9742410520   0.084671087983 0.02754807  0.00057054  0.0207092 0.0000
  6  -1660.1340232291  -0.159782177134 0.02730694  0.00042622  0.0170806 0.0000
  7  -1660.0785369580   0.055486271101 0.02815259  0.00036160  0.0097647 0.0000
  8  -1660.0309081624   0.047628795689 0.02585234  0.00030664  0.0068579 0.0000
  9  -1660.0216320865   0.009276075872 0.02047170  0.00024937  0.0046893 0.0000
 10  -1659.9984750072   0.023157079307 0.02015751  0.00024503  0.0040231 0.0000
 11  -1660.0015671317  -0.003092124507 0.02004894  0.00025136  0.0032737 0.0000
 12  -1659.9944411083   0.007126023413 0.01807123  0.00022912  0.0031088 0.0000
 13  -1659.9923709194   0.002070188885 0.01635452  0.00021512  0.0028725 0.0000
 14  -1659.9799862964   0.012384622969 0.01057076  0.00015174  0.0028533 0.0000
 15  -1659.9837533023  -0.003767005909 0.01197411  0.00017410  0.0026585 0.0000
 16  -1659.9759175552   0.007835747160 0.00791085  0.00012992  0.0028327 0.0000
 17  -1660.0333796913  -0.057462136094 0.02433603  0.00035144  0.0026494 0.0000
 18  -1659.9420371399   0.091342551355 0.01072477  0.00013078  0.0036174 0.0000
 19  -1660.0091569284  -0.067119788488 0.02056607  0.00030971  0.0018179 0.0000
               *** Restarting incremental Fock matrix formation ***
                                   *** Resetting DIIS ***
 20  -1659.9544928682   0.054664060203 0.00278812  0.00005282  0.0029735 0.0000
 21  -1659.9482866390   0.006206229153 0.00177928  0.00003337  0.0017203 0.0000
 22  -1659.9552906706  -0.007004031600 0.00218051  0.00004107  0.0015103 0.0000
 23  -1659.9667304618  -0.011439791139 0.00426046  0.00008154  0.0014363 0.0000
 24  -1659.9765639160  -0.009833454262 0.00540871  0.00010533  0.0013869 0.0000
 25  -1659.9521119296   0.024451986399 0.00084827  0.00001852  0.0012692 0.0000
 26  -1659.9703077098  -0.018195780186 0.00923437  0.00017864  0.0007233 0.0000
 27  -1659.9574852648   0.012822445009 0.00195716  0.00004244  0.0002787 0.0000
 28  -1659.9578208431  -0.000335578314 0.00190368  0.00003834  0.0002141 0.0000
 29  -1659.9596595330  -0.001838689922 0.00178442  0.00003528  0.0001442 0.0000
 30  -1659.9569815992   0.002677933822 0.00055723  0.00001272  0.0000737 0.0000
 31  -1659.9543196296   0.002661969629 0.00014492  0.00000374  0.0000468 0.0000
 32  -1659.9550695813  -0.000749951718 0.00007715  0.00000268  0.0000236 0.0000
 33  -1659.9547551148   0.000314466497 0.00005676  0.00000133  0.0000070 0.0000
 34  -1659.9549590010  -0.000203886185 0.00000401  0.00000010  0.0000017 0.0000
 35  -1659.9549594389  -0.000000437870 0.00000722  0.00000018  0.0000015 0.0000
 36  -1659.9549765680  -0.000017129169 0.00001102  0.00000023  0.0000011 0.0000
 37  -1659.9549664491   0.000010118957 0.00000641  0.00000012  0.0000004 0.0000
 38  -1659.9549517172   0.000014731874 0.00000065  0.00000001  0.0000002 0.0000
 39  -1659.9549552531  -0.000003535892 0.00000040  0.00000001  0.0000001 0.0000
               *** Restarting incremental Fock matrix formation ***
                                   *** Resetting DIIS ***
 40  -1659.9549533627   0.000001890402 0.00000011  0.00000000  0.0000001 0.0000
 41  -1659.9549533447   0.000000018033 0.00000011  0.00000000  0.0000000 0.0000
 42  -1659.9549530325   0.000000312131 0.00000011  0.00000000  0.0000000 0.0000
 43  -1659.9549532352  -0.000000202660 0.00000009  0.00000000  0.0000000 0.0000
                            ***DIIS convergence achieved***

               *****************************************************
               *                     SUCCESS                       *
               *           SCF CONVERGED AFTER  44 CYCLES          *
               *****************************************************


----------------
TOTAL SCF ENERGY
----------------

Total Energy       :        -1659.95495307 Eh          -45169.67065 eV

Components:
Nuclear Repulsion  :          109.41337367 Eh            2977.28926 eV
Electronic Energy  :        -1769.36832674 Eh          -48146.95991 eV
One Electron Energy:        -2513.31548620 Eh          -68390.79130 eV
Two Electron Energy:          743.94715946 Eh           20243.83139 eV

Virial components:
Potential Energy   :        -3320.12070521 Eh          -90345.07744 eV
Kinetic Energy     :         1660.16575214 Eh           45175.40679 eV
Virial Ratio       :            1.99987303


---------------
SCF CONVERGENCE
---------------

  Last Energy change         ...    1.6077e-07  Tolerance :   1.0000e-09
  Last MAX-Density change    ...    1.4656e-07  Tolerance :   1.0000e-08
  Last RMS-Density change    ...    2.8988e-09  Tolerance :   1.0000e-09
  Last DIIS Error            ...    1.9900e-08  Tolerance :   1.0000e-08

             **** THE GBW FILE WAS UPDATED (36_FeS.gbw) ****
             **** DENSITY FILE WAS UPDATED (36_FeS.scfp) ****
             **** ENERGY FILE WAS UPDATED (36_FeS.en.tmp) ****
----------------------
UHF SPIN CONTAMINATION
----------------------

Expectation value of <S**2>     :     6.521107
Ideal value S*(S+1) for S=2.0   :     6.000000
Deviation                       :     0.521107

             **** THE GBW FILE WAS UPDATED (36_FeS.gbw) ****
             **** DENSITY FILE WAS UPDATED (36_FeS.scfp) ****
----------------
ORBITAL ENERGIES
----------------
                 SPIN UP ORBITALS
  NO   OCC          E(Eh)            E(eV) 
   0   1.0000    -261.401034     -7113.0838 
   1   1.0000     -91.895360     -2500.5999 
   2   1.0000     -32.021565      -871.3511 
   3   1.0000     -27.519600      -748.8464 
   4   1.0000     -27.488043      -747.9877 
   5   1.0000     -27.488043      -747.9877 
   6   1.0000      -8.903476      -242.2759 
   7   1.0000      -6.583620      -179.1494 
   8   1.0000      -6.583620      -179.1494 
   9   1.0000      -6.573016      -178.8609 
  10   1.0000      -4.368897      -118.8837 
  11   1.0000      -3.027652       -82.3866 
  12   1.0000      -2.953706       -80.3744 
  13   1.0000      -2.953706       -80.3744 
  14   1.0000      -0.846158       -23.0251 
  15   1.0000      -0.733981       -19.9726 
  16   1.0000      -0.733981       -19.9726 
  17   1.0000      -0.701978       -19.1018 
  18   1.0000      -0.699013       -19.0211 
  19   1.0000      -0.649314       -17.6687 
  20   1.0000      -0.331319        -9.0157 
  21   1.0000      -0.331319        -9.0157 
  22   1.0000      -0.319709        -8.6997 
  23   0.0000      -0.026439        -0.7194 
  24   0.0000       0.073772         2.0074 
  25   0.0000       0.073772         2.0074 
  26   0.0000       0.149347         4.0639 
  27   0.0000       0.216185         5.8827 
  28   0.0000       0.237681         6.4676 
  29   0.0000       0.240406         6.5418 
  30   0.0000       0.294217         8.0061 
  31   0.0000       0.294217         8.0061 
  32   0.0000       0.305382         8.3099 
  33   0.0000       0.453014        12.3271 
  34   0.0000       0.453014        12.3271 
  35   0.0000       0.456573        12.4240 
  36   0.0000       0.563648        15.3377 
  37   0.0000       0.563648        15.3377 
  38   0.0000       0.607356        16.5270 
  39   0.0000       0.607582        16.5331 
  40   0.0000       0.627016        17.0620 
  41   0.0000       0.728678        19.8283 
  42   0.0000       0.728678        19.8283 
  43   0.0000       0.815396        22.1880 
  44   0.0000       1.003281        27.3007 
  45   0.0000       1.017919        27.6990 
  46   0.0000       1.092268        29.7221 
  47   0.0000       1.092268        29.7221 
  48   0.0000       1.111304        30.2401 
  49   0.0000       1.287721        35.0407 
  50   0.0000       1.782064        48.4924 
  51   0.0000       1.820556        49.5398 
  52   0.0000       1.820768        49.5456 
  53   0.0000       1.882143        51.2157 
  54   0.0000       1.882143        51.2157 
  55   0.0000       1.968404        53.5630 
  56   0.0000       1.969783        53.6005 
  57   0.0000       1.999054        54.3970 
  58   0.0000       1.999054        54.3970 
  59   0.0000       2.014690        54.8225 
  60   0.0000       2.014690        54.8225 
  61   0.0000       2.043980        55.6195 
  62   0.0000       2.185541        59.4716 
  63   0.0000       2.185541        59.4716 
  64   0.0000       2.369749        64.4841 
  65   0.0000       2.528115        68.7935 
  66   0.0000       2.528115        68.7935 
  67   0.0000       2.563374        69.7529 
  68   0.0000       2.579650        70.1958 
  69   0.0000       2.581772        70.2536 
  70   0.0000       2.581772        70.2536 
  71   0.0000       2.662534        72.4512 
  72   0.0000       2.949508        80.2602 
  73   0.0000       2.949508        80.2602 
  74   0.0000       3.089150        84.0600 
  75   0.0000       3.399893        92.5158 
  76   0.0000       3.810265       103.6826 
  77   0.0000       3.832908       104.2987 
  78   0.0000       3.832908       104.2987 
  79   0.0000       3.843347       104.5828 
  80   0.0000       4.069356       110.7328 
  81   0.0000       7.286951       198.2880 
  82   0.0000       7.286982       198.2889 
  83   0.0000       7.346295       199.9029 
  84   0.0000       7.346295       199.9029 
  85   0.0000       7.387496       201.0240 
  86   0.0000       8.904856       242.3135 
  87   0.0000       8.914279       242.5699 
  88   0.0000       8.914279       242.5699 
  89   0.0000       8.927648       242.9337 
  90   0.0000       8.929719       242.9900 
  91   0.0000       8.939728       243.2624 
  92   0.0000       8.939728       243.2624 
  93   0.0000       8.964209       243.9285 
  94   0.0000       8.966948       244.0031 
  95   0.0000       9.588542       260.9175 
  96   0.0000       9.588542       260.9175 
  97   0.0000       9.659389       262.8454 
  98   0.0000       9.692700       263.7518 
  99   0.0000       9.710957       264.2486 
 100   0.0000       9.710957       264.2486 
 101   0.0000       9.779745       266.1204 
 102   0.0000       9.779745       266.1204 
 103   0.0000       9.814046       267.0538 
 104   0.0000      10.084331       274.4086 
 105   0.0000      19.228304       523.2288 

                 SPIN DOWN ORBITALS
  NO   OCC          E(Eh)            E(eV) 
   0   1.0000    -261.396992     -7112.9738 
   1   1.0000     -91.901936     -2500.7788 
   2   1.0000     -31.899859      -868.0393 
   3   1.0000     -27.382435      -745.1139 
   4   1.0000     -27.380065      -745.0494 
   5   1.0000     -27.380065      -745.0494 
   6   1.0000      -8.909569      -242.4417 
   7   1.0000      -6.602476      -179.6625 
   8   1.0000      -6.586914      -179.2390 
   9   1.0000      -6.586914      -179.2390 
  10   1.0000      -4.022192      -109.4494 
  11   1.0000      -2.581022       -70.2332 
  12   1.0000      -2.581022       -70.2332 
  13   1.0000      -2.535852       -69.0040 
  14   1.0000      -0.894453       -24.3393 
  15   1.0000      -0.508925       -13.8486 
  16   1.0000      -0.451135       -12.2760 
  17   1.0000      -0.355617        -9.6768 
  18   1.0000      -0.355617        -9.6768 
  19   0.0000       0.002124         0.0578 
  20   0.0000       0.117475         3.1967 
  21   0.0000       0.117475         3.1967 
  22   0.0000       0.123879         3.3709 
  23   0.0000       0.189558         5.1581 
  24   0.0000       0.197198         5.3660 
  25   0.0000       0.197198         5.3660 
  26   0.0000       0.212102         5.7716 
  27   0.0000       0.259463         7.0604 
  28   0.0000       0.286928         7.8077 
  29   0.0000       0.336050         9.1444 
  30   0.0000       0.356593         9.7034 
  31   0.0000       0.356593         9.7034 
  32   0.0000       0.365668         9.9503 
  33   0.0000       0.459257        12.4970 
  34   0.0000       0.459997        12.5172 
  35   0.0000       0.459997        12.5172 
  36   0.0000       0.603176        16.4133 
  37   0.0000       0.603176        16.4133 
  38   0.0000       0.609030        16.5725 
  39   0.0000       0.609502        16.5854 
  40   0.0000       0.613203        16.6861 
  41   0.0000       0.730236        19.8707 
  42   0.0000       0.730236        19.8707 
  43   0.0000       0.859469        23.3873 
  44   0.0000       1.065278        28.9877 
  45   0.0000       1.130654        30.7666 
  46   0.0000       1.165681        31.7198 
  47   0.0000       1.219030        33.1715 
  48   0.0000       1.219030        33.1715 
  49   0.0000       1.349177        36.7130 
  50   0.0000       1.767438        48.0944 
  51   0.0000       1.821013        49.5523 
  52   0.0000       1.821182        49.5569 
  53   0.0000       1.858500        50.5724 
  54   0.0000       1.858500        50.5724 
  55   0.0000       1.956812        53.2476 
  56   0.0000       1.959512        53.3210 
  57   0.0000       2.000884        54.4468 
  58   0.0000       2.000884        54.4468 
  59   0.0000       2.031090        55.2688 
  60   0.0000       2.031090        55.2688 
  61   0.0000       2.035658        55.3931 
  62   0.0000       2.185183        59.4619 
  63   0.0000       2.185183        59.4619 
  64   0.0000       2.377185        64.6865 
  65   0.0000       2.637792        71.7780 
  66   0.0000       2.637792        71.7780 
  67   0.0000       2.677003        72.8449 
  68   0.0000       2.677003        72.8449 
  69   0.0000       2.687777        73.1381 
  70   0.0000       2.722044        74.0706 
  71   0.0000       2.784582        75.7723 
  72   0.0000       3.057282        83.1929 
  73   0.0000       3.057282        83.1929 
  74   0.0000       3.201795        87.1253 
  75   0.0000       3.499297        95.2207 
  76   0.0000       3.913867       106.5017 
  77   0.0000       4.015300       109.2619 
  78   0.0000       4.027414       109.5915 
  79   0.0000       4.027414       109.5915 
  80   0.0000       4.224072       114.9428 
  81   0.0000       7.286506       198.2759 
  82   0.0000       7.286507       198.2759 
  83   0.0000       7.338986       199.7040 
  84   0.0000       7.338986       199.7040 
  85   0.0000       7.380128       200.8235 
  86   0.0000       9.049731       246.2557 
  87   0.0000       9.056351       246.4358 
  88   0.0000       9.056351       246.4358 
  89   0.0000       9.061140       246.5662 
  90   0.0000       9.063766       246.6376 
  91   0.0000       9.065488       246.6845 
  92   0.0000       9.066515       246.7124 
  93   0.0000       9.066515       246.7124 
  94   0.0000       9.076082       246.9728 
  95   0.0000       9.600226       261.2354 
  96   0.0000       9.600226       261.2354 
  97   0.0000       9.862261       268.3658 
  98   0.0000       9.899099       269.3682 
  99   0.0000       9.899099       269.3682 
 100   0.0000       9.904203       269.5071 
 101   0.0000       9.956168       270.9211 
 102   0.0000      10.033279       273.0194 
 103   0.0000      10.033279       273.0194 
 104   0.0000      10.270045       279.4621 
 105   0.0000      19.220310       523.0112 

                    ********************************
                    * MULLIKEN POPULATION ANALYSIS *
                    ********************************

--------------------------------------------
MULLIKEN ATOMIC CHARGES AND SPIN POPULATIONS
--------------------------------------------
   0 Fe:    0.654477    4.600446
   1 S :   -0.654477   -0.600446
Sum of atomic charges         :   -0.0000000
Sum of atomic spin populations:    4.0000000

-----------------------------------------------------
MULLIKEN REDUCED ORBITAL CHARGES AND SPIN POPULATIONS
-----------------------------------------------------
CHARGE
  0 Fes       :     6.772536  s :     6.772536
      pz      :     4.127409  p :    12.380404
      px      :     4.126498
      py      :     4.126498
      dz2     :     1.053853  d :     6.188463
      dxz     :     1.067877
      dyz     :     1.067877
      dx2y2   :     0.999765
      dxy     :     1.999091
      f0      :     0.001210  f :     0.004010
      f+1     :     0.001141
      f-1     :     0.001141
      f+2     :     0.000016
      f-2     :     0.000022
      f+3     :     0.000240
      f-3     :     0.000240
      g0      :     0.000030  g :     0.000110
      g+1     :     0.000020
      g-1     :     0.000020
      g+2     :     0.000005
      g-2     :     0.000012
      g+3     :     0.000002
      g-3     :     0.000002
      g+4     :     0.000020
      g-4     :     0.000000
  1 S s       :     5.908604  s :     5.908604
      pz      :     3.116672  p :    10.696856
      px      :     3.790092
      py      :     3.790092
      dz2     :     0.017346  d :     0.042644
      dxz     :     0.012211
      dyz     :     0.012211
      dx2y2   :     0.000170
      dxy     :     0.000705
      f0      :     0.002319  f :     0.006373
      f+1     :     0.001920
      f-1     :     0.001920
      f+2     :     0.000044
      f-2     :     0.000170
      f+3     :     0.000000
      f-3     :     0.000000

SPIN
  0 Fes       :     0.644388  s :     0.644388
      pz      :     0.061936  p :     0.155269
      px      :     0.046666
      py      :     0.046666
      dz2     :     0.919220  d :     3.802057
      dxz     :     0.941381
      dyz     :     0.941381
      dx2y2   :     0.999765
      dxy     :     0.000308
      f0      :    -0.000602  f :    -0.001311
      f+1     :    -0.000149
      f-1     :    -0.000149
      f+2     :     0.000016
      f-2     :     0.000011
      f+3     :    -0.000219
      f-3     :    -0.000219
      g0      :     0.000009  g :     0.000043
      g+1     :     0.000009
      g-1     :     0.000009
      g+2     :     0.000005
      g-2     :     0.000012
      g+3     :     0.000001
      g-3     :     0.000001
      g+4     :    -0.000004
      g-4     :    -0.000000
  1 S s       :    -0.017570  s :    -0.017570
      pz      :    -0.607619  p :    -0.574250
      px      :     0.016685
      py      :     0.016685
      dz2     :     0.000227  d :    -0.007080
      dxz     :    -0.003603
      dyz     :    -0.003603
      dx2y2   :     0.000170
      dxy     :    -0.000271
      f0      :     0.000013  f :    -0.001546
      f+1     :    -0.000772
      f-1     :    -0.000772
      f+2     :     0.000044
      f-2     :    -0.000060
      f+3     :    -0.000000
      f-3     :    -0.000000


                     *******************************
                     * LOEWDIN POPULATION ANALYSIS *
                     *******************************

-------------------------------------------
LOEWDIN ATOMIC CHARGES AND SPIN POPULATIONS
-------------------------------------------
   0 Fe:    0.044744    4.452095
   1 S :   -0.044744   -0.452095

----------------------------------------------------
LOEWDIN REDUCED ORBITAL CHARGES AND SPIN POPULATIONS
----------------------------------------------------
CHARGE
  0 Fes       :     6.773529  s :     6.773529
      pz      :     4.322173  p :    12.661757
      px      :     4.169792
      py      :     4.169792
      dz2     :     1.199445  d :     6.510070
      dxz     :     1.156473
      dyz     :     1.156473
      dx2y2   :     0.999439
      dxy     :     1.998240
      f0      :     0.004251  f :     0.009756
      f+1     :     0.002491
      f-1     :     0.002491
      f+2     :     0.000018
      f-2     :     0.000026
      f+3     :     0.000240
      f-3     :     0.000240
      g0      :     0.000049  g :     0.000145
      g+1     :     0.000028
      g-1     :     0.000028
      g+2     :     0.000004
      g-2     :     0.000012
      g+3     :     0.000002
      g-3     :     0.000002
      g+4     :     0.000020
      g-4     :     0.000000
  1 S s       :     5.503619  s :     5.503619
      pz      :     3.149748  p :    10.463831
      px      :     3.657041
      py      :     3.657041
      dz2     :     0.039319  d :     0.062683
      dxz     :     0.010906
      dyz     :     0.010906
      dx2y2   :     0.000355
      dxy     :     0.001197
      f0      :     0.007848  f :     0.014612
      f+1     :     0.003028
      f-1     :     0.003028
      f+2     :     0.000183
      f-2     :     0.000525
      f+3     :     0.000000
      f-3     :     0.000000

SPIN
  0 Fes       :     0.553796  s :     0.553796
      pz      :     0.053544  p :     0.149370
      px      :     0.047913
      py      :     0.047913
      dz2     :     0.891151  d :     3.751565
      dxz     :     0.930282
      dyz     :     0.930282
      dx2y2   :     0.999439
      dxy     :     0.000411
      f0      :    -0.001836  f :    -0.002657
      f+1     :    -0.000206
      f-1     :    -0.000206
      f+2     :     0.000018
      f-2     :     0.000012
      f+3     :    -0.000219
      f-3     :    -0.000219
      g0      :    -0.000005  g :     0.000021
      g+1     :     0.000005
      g-1     :     0.000005
      g+2     :     0.000004
      g-2     :     0.000012
      g+3     :     0.000001
      g-3     :     0.000001
      g+4     :    -0.000004
      g-4     :    -0.000000
  1 S s       :    -0.000577  s :    -0.000577
      pz      :    -0.507476  p :    -0.467896
      px      :     0.019790
      py      :     0.019790
      dz2     :     0.009136  d :     0.011662
      dxz     :     0.001252
      dyz     :     0.001252
      dx2y2   :     0.000355
      dxy     :    -0.000333
      f0      :     0.002271  f :     0.004716
      f+1     :     0.001182
      f-1     :     0.001182
      f+2     :     0.000183
      f-2     :    -0.000102
      f+3     :    -0.000000
      f-3     :    -0.000000


                      *****************************
                      * MAYER POPULATION ANALYSIS *
                      *****************************

  NA   - Mulliken gross atomic population
  ZA   - Total nuclear charge
  QA   - Mulliken gross atomic charge
  VA   - Mayer's total valence
  BVA  - Mayer's bonded valence
  FA   - Mayer's free valence

  ATOM       NA         ZA         QA         VA         BVA        FA
  0 Fe    25.3455    26.0000     0.6545     5.7804     1.4978     4.2826
  1 S     16.6545    16.0000    -0.6545     1.9170     1.4978     0.4192

  Mayer bond orders larger than 0.100000
B(  0-Fe,  1-S ) :   1.4978 

-------
TIMINGS
-------

Total SCF time: 0 days 0 hours 0 min 6 sec 

Total time                  ....       6.732 sec
Sum of individual times     ....       6.366 sec  ( 94.6%)

Fock matrix formation       ....       6.031 sec  ( 89.6%)
Diagonalization             ....       0.127 sec  (  1.9%)
Density matrix formation    ....       0.020 sec  (  0.3%)
Population analysis         ....       0.005 sec  (  0.1%)
Initial guess               ....       0.105 sec  (  1.6%)
Orbital Transformation      ....       0.000 sec  (  0.0%)
Orbital Orthonormalization  ....       0.000 sec  (  0.0%)
DIIS solution               ....       0.058 sec  (  0.9%)


           ************************************************************
           *        Program running with 24 parallel MPI-processes    *
           *              working on a common directory               *
           ************************************************************


------------------------------------------------------------------------------- 
                              ORCA-MATRIX DRIVEN CI                            
------------------------------------------------------------------------------- 

--------------------------------
AUTOMATIC CHOICE OF INCORE LEVEL
--------------------------------

Memory available                           ...   2500.00 MB
Memory needed for S+T                      ...     14.35 MB
Memory needed for J+K                      ...     28.81 MB
Memory needed for DIIS                     ...    200.88 MB
Memory needed for 3-ext                    ...     56.71 MB
Memory needed for 4-ext                    ...    183.22 MB
Memory needed for triples                  ...     21.81 MB
 -> Final InCoreLevel    ... 5
 -> check shows that triples correction can be computed


Wavefunction type
-----------------
Correlation treatment                      ...      CCSD     
Single excitations                         ... ON
Orbital optimization                       ... OFF
Calculation of Z vector                    ... OFF
Calculation of Brueckner orbitals          ... OFF
Perturbative triple excitations            ... ON
Calculation of F12 correction              ... OFF
Frozen core treatment                      ... chemical core (20 el)
Reference Wavefunction                     ... UHF
  Alpha-MOs occ    :    10 ...   22 ( 13 MO's/ 13 electrons)
  Beta-MOs occ     :    10 ...   18 (  9 MO's/  9 electrons)
  Alpha-MOs virt   :    23 ...  105 ( 83 MO's              )
  Beta-MOs virt    :    19 ...  105 ( 87 MO's              )
Number of AO's                             ...    106
Number of electrons                        ...     42
Number of correlated electrons             ...     22

Algorithmic settings
--------------------
Integral transformation                    ... AO direct full transformation
K(C) Formation                             ... FULL-MO TRAFO
Maximum number of iterations               ...        50
Convergence tolerance (max. residuum)      ... 1.000e-06
Level shift for amplitude update           ... 2.000e-01
Maximum number of DIIS vectors             ...         7
DIIS turned on at iteration                ...         0
Damping before turning on DIIS             ...     0.500
Damping after turning on DIIS              ...     0.000
Pair specific amplitude update             ... OFF
Natural orbital iterations                 ... OFF
Perturbative natural orbital generation    ... OFF
Printlevel                                 ... 2

Memory handling:
----------------
Maximum memory for working arrays          ...   2500 MB
Data storage in matrix containers          ... UNCOMPRESSED
Data type for integral storage             ... DOUBLE
In-Core Storage of quantities:
   Amplitudes+Sigma Vector      ... YES
   J+K operators                ... YES
   DIIS vectors                 ... YES
   3-external integrals         ... YES
   4-external integrals         ... YES


Initializing the integral package          ... done
Warning: reference  - re-canonicalizations have been set to INT 1 VIRT 1

--------------------------
UNRESTRICTED FOCK OPERATOR
--------------------------

<ss|ss>:         1953 b           71 skpd (  3.6%)    0.001 s ( 0.000 ms/b)
<ss|sp>:         6510 b          245 skpd (  3.8%)    0.002 s ( 0.000 ms/b)
<ss|sd>:         4588 b          163 skpd (  3.6%)    0.001 s ( 0.000 ms/b)
<ss|sf>:         1984 b          127 skpd (  6.4%)    0.000 s ( 0.000 ms/b)
<ss|sg>:          682 b           50 skpd (  7.3%)    0.001 s ( 0.001 ms/b)
<ss|pp>:         3348 b          134 skpd (  4.0%)    0.001 s ( 0.000 ms/b)
<ss|pd>:         4278 b          179 skpd (  4.2%)    0.002 s ( 0.000 ms/b)
<ss|pf>:         1860 b          116 skpd (  6.2%)    0.001 s ( 0.000 ms/b)
<ss|pg>:          620 b           32 skpd (  5.2%)    0.001 s ( 0.001 ms/b)
<ss|dd>:         1736 b           56 skpd (  3.2%)    0.001 s ( 0.001 ms/b)
<ss|df>:         1302 b           61 skpd (  4.7%)    0.001 s ( 0.000 ms/b)
<ss|dg>:          434 b           22 skpd (  5.1%)    0.001 s ( 0.002 ms/b)
<ss|ff>:          372 b           14 skpd (  3.8%)    0.000 s ( 0.001 ms/b)
<ss|fg>:          186 b            7 skpd (  3.8%)    0.000 s ( 0.002 ms/b)
<ss|gg>:           62 b            2 skpd (  3.2%)    0.001 s ( 0.010 ms/b)
<sp|sp>:         5565 b          138 skpd (  2.5%)    0.002 s ( 0.000 ms/b)
<sp|sd>:         7770 b          174 skpd (  2.2%)    0.002 s ( 0.000 ms/b)
<sp|sf>:         3360 b          167 skpd (  5.0%)    0.001 s ( 0.000 ms/b)
<sp|sg>:         1155 b           96 skpd (  8.3%)    0.001 s ( 0.001 ms/b)
<sp|pp>:         5670 b          131 skpd (  2.3%)    0.003 s ( 0.000 ms/b)
<sp|pd>:         7245 b          116 skpd (  1.6%)    0.004 s ( 0.001 ms/b)
<sp|pf>:         3150 b          148 skpd (  4.7%)    0.002 s ( 0.001 ms/b)
<sp|pg>:         1050 b           26 skpd (  2.5%)    0.002 s ( 0.002 ms/b)
<sp|dd>:         2940 b           43 skpd (  1.5%)    0.004 s ( 0.001 ms/b)
<sp|df>:         2205 b           56 skpd (  2.5%)    0.002 s ( 0.001 ms/b)
<sp|dg>:          735 b           18 skpd (  2.4%)    0.002 s ( 0.003 ms/b)
<sp|ff>:          630 b            7 skpd (  1.1%)    0.001 s ( 0.002 ms/b)
<sp|fg>:          315 b            4 skpd (  1.3%)    0.001 s ( 0.005 ms/b)
<sp|gg>:          105 b            1 skpd (  1.0%)    0.002 s ( 0.019 ms/b)
<sd|sd>:         2775 b           32 skpd (  1.2%)    0.001 s ( 0.000 ms/b)
<sd|sf>:         2368 b           99 skpd (  4.2%)    0.001 s ( 0.001 ms/b)
<sd|sg>:          814 b           74 skpd (  9.1%)    0.001 s ( 0.002 ms/b)
<sd|pp>:         3996 b           96 skpd (  2.4%)    0.003 s ( 0.001 ms/b)
<sd|pd>:         5106 b           46 skpd (  0.9%)    0.005 s ( 0.001 ms/b)
<sd|pf>:         2220 b          102 skpd (  4.6%)    0.002 s ( 0.001 ms/b)
<sd|pg>:          740 b           18 skpd (  2.4%)    0.003 s ( 0.004 ms/b)
<sd|dd>:         2072 b            8 skpd (  0.4%)    0.005 s ( 0.003 ms/b)
<sd|df>:         1554 b           33 skpd (  2.1%)    0.002 s ( 0.001 ms/b)
<sd|dg>:          518 b            8 skpd (  1.5%)    0.003 s ( 0.007 ms/b)
<sd|ff>:          444 b            3 skpd (  0.7%)    0.002 s ( 0.003 ms/b)
<sd|fg>:          222 b            3 skpd (  1.4%)    0.002 s ( 0.010 ms/b)
<sd|gg>:           74 b            0 skpd (  0.0%)    0.003 s ( 0.040 ms/b)
<sf|sf>:          528 b           33 skpd (  6.2%)    0.001 s ( 0.001 ms/b)
<sf|sg>:          352 b           48 skpd ( 13.6%)    0.001 s ( 0.003 ms/b)
<sf|pp>:         1728 b           86 skpd (  5.0%)    0.002 s ( 0.001 ms/b)
<sf|pd>:         2208 b           84 skpd (  3.8%)    0.003 s ( 0.001 ms/b)
<sf|pf>:          960 b           67 skpd (  7.0%)    0.002 s ( 0.002 ms/b)
<sf|pg>:          320 b           17 skpd (  5.3%)    0.002 s ( 0.006 ms/b)
<sf|dd>:          896 b           32 skpd (  3.6%)    0.004 s ( 0.004 ms/b)
<sf|df>:          672 b           38 skpd (  5.7%)    0.002 s ( 0.003 ms/b)
<sf|dg>:          224 b           11 skpd (  4.9%)    0.002 s ( 0.012 ms/b)
<sf|ff>:          192 b            6 skpd (  3.1%)    0.001 s ( 0.007 ms/b)
<sf|fg>:           96 b            3 skpd (  3.1%)    0.002 s ( 0.017 ms/b)
<sf|gg>:           32 b            1 skpd (  3.1%)    0.002 s ( 0.070 ms/b)
<sg|sg>:           66 b           14 skpd ( 21.2%)    0.000 s ( 0.005 ms/b)
<sg|pp>:          594 b           46 skpd (  7.7%)    0.001 s ( 0.003 ms/b)
<sg|pd>:          759 b           76 skpd ( 10.0%)    0.002 s ( 0.003 ms/b)
<sg|pf>:          330 b           47 skpd ( 14.2%)    0.001 s ( 0.003 ms/b)
<sg|pg>:          110 b           14 skpd ( 12.7%)    0.001 s ( 0.012 ms/b)
<sg|dd>:          308 b           26 skpd (  8.4%)    0.002 s ( 0.009 ms/b)
<sg|df>:          231 b           31 skpd ( 13.4%)    0.001 s ( 0.005 ms/b)
<sg|dg>:           77 b           11 skpd ( 14.3%)    0.002 s ( 0.023 ms/b)
<sg|ff>:           66 b            7 skpd ( 10.6%)    0.001 s ( 0.009 ms/b)
<sg|fg>:           33 b            4 skpd ( 12.1%)    0.001 s ( 0.034 ms/b)
<sg|gg>:           11 b            1 skpd (  9.1%)    0.001 s ( 0.124 ms/b)
<pp|pp>:         1485 b           24 skpd (  1.6%)    0.003 s ( 0.002 ms/b)
<pp|pd>:         3726 b           60 skpd (  1.6%)    0.004 s ( 0.001 ms/b)
<pp|pf>:         1620 b           64 skpd (  4.0%)    0.002 s ( 0.002 ms/b)
<pp|pg>:          540 b            9 skpd (  1.7%)    0.002 s ( 0.004 ms/b)
<pp|dd>:         1512 b           25 skpd (  1.7%)    0.005 s ( 0.003 ms/b)
<pp|df>:         1134 b           27 skpd (  2.4%)    0.002 s ( 0.002 ms/b)
<pp|dg>:          378 b            8 skpd (  2.1%)    0.003 s ( 0.008 ms/b)
<pp|ff>:          324 b            6 skpd (  1.9%)    0.002 s ( 0.005 ms/b)
<pp|fg>:          162 b            3 skpd (  1.9%)    0.002 s ( 0.014 ms/b)
<pp|gg>:           54 b            1 skpd (  1.9%)    0.003 s ( 0.056 ms/b)
<pd|pd>:         2415 b           10 skpd (  0.4%)    0.006 s ( 0.003 ms/b)
<pd|pf>:         2070 b           74 skpd (  3.6%)    0.005 s ( 0.002 ms/b)
<pd|pg>:          690 b            7 skpd (  1.0%)    0.005 s ( 0.007 ms/b)
<pd|dd>:         1932 b            3 skpd (  0.2%)    0.010 s ( 0.005 ms/b)
<pd|df>:         1449 b           15 skpd (  1.0%)    0.005 s ( 0.003 ms/b)
<pd|dg>:          483 b            5 skpd (  1.0%)    0.007 s ( 0.014 ms/b)
<pd|ff>:          414 b            0 skpd (  0.0%)    0.004 s ( 0.009 ms/b)
<pd|fg>:          207 b            0 skpd (  0.0%)    0.005 s ( 0.024 ms/b)
<pd|gg>:           69 b            0 skpd (  0.0%)    0.007 s ( 0.101 ms/b)
<pf|pf>:          465 b           31 skpd (  6.7%)    0.002 s ( 0.004 ms/b)
<pf|pg>:          300 b           11 skpd (  3.7%)    0.003 s ( 0.011 ms/b)
<pf|dd>:          840 b           26 skpd (  3.1%)    0.006 s ( 0.008 ms/b)
<pf|df>:          630 b           30 skpd (  4.8%)    0.003 s ( 0.005 ms/b)
<pf|dg>:          210 b            8 skpd (  3.8%)    0.004 s ( 0.021 ms/b)
<pf|ff>:          180 b            6 skpd (  3.3%)    0.003 s ( 0.016 ms/b)
<pf|fg>:           90 b            3 skpd (  3.3%)    0.003 s ( 0.040 ms/b)
<pf|gg>:           30 b            1 skpd (  3.3%)    0.004 s ( 0.152 ms/b)
<pg|pg>:           55 b            1 skpd (  1.8%)    0.001 s ( 0.025 ms/b)
<pg|dd>:          280 b            2 skpd (  0.7%)    0.004 s ( 0.015 ms/b)
<pg|df>:          210 b            6 skpd (  2.9%)    0.002 s ( 0.009 ms/b)
<pg|dg>:           70 b            2 skpd (  2.9%)    0.003 s ( 0.044 ms/b)
<pg|ff>:           60 b            0 skpd (  0.0%)    0.001 s ( 0.020 ms/b)
<pg|fg>:           30 b            0 skpd (  0.0%)    0.002 s ( 0.073 ms/b)
<pg|gg>:           10 b            0 skpd (  0.0%)    0.003 s ( 0.262 ms/b)
<dd|dd>:          406 b            1 skpd (  0.2%)    0.005 s ( 0.012 ms/b)
<dd|df>:          588 b            6 skpd (  1.0%)    0.003 s ( 0.005 ms/b)
<dd|dg>:          196 b            1 skpd (  0.5%)    0.005 s ( 0.024 ms/b)
<dd|ff>:          168 b            0 skpd (  0.0%)    0.003 s ( 0.015 ms/b)
<dd|fg>:           84 b            0 skpd (  0.0%)    0.004 s ( 0.043 ms/b)
<dd|gg>:           28 b            0 skpd (  0.0%)    0.005 s ( 0.179 ms/b)
<df|df>:          231 b            9 skpd (  3.9%)    0.003 s ( 0.015 ms/b)
<df|dg>:          147 b            4 skpd (  2.7%)    0.005 s ( 0.034 ms/b)
<df|ff>:          126 b            3 skpd (  2.4%)    0.003 s ( 0.027 ms/b)
<df|fg>:           63 b            3 skpd (  4.8%)    0.004 s ( 0.068 ms/b)
<df|gg>:           21 b            1 skpd (  4.8%)    0.005 s ( 0.275 ms/b)
<dg|dg>:           28 b            1 skpd (  3.6%)    0.003 s ( 0.094 ms/b)
<dg|ff>:           42 b            0 skpd (  0.0%)    0.001 s ( 0.034 ms/b)
<dg|fg>:           21 b            0 skpd (  0.0%)    0.002 s ( 0.117 ms/b)
<dg|gg>:            7 b            0 skpd (  0.0%)    0.003 s ( 0.418 ms/b)
<ff|ff>:           21 b            0 skpd (  0.0%)    0.001 s ( 0.053 ms/b)
<ff|fg>:           18 b            0 skpd (  0.0%)    0.002 s ( 0.109 ms/b)
<ff|gg>:            6 b            0 skpd (  0.0%)    0.003 s ( 0.444 ms/b)
<fg|fg>:            6 b            0 skpd (  0.0%)    0.001 s ( 0.243 ms/b)
<fg|gg>:            3 b            0 skpd (  0.0%)    0.002 s ( 0.738 ms/b)
<gg|gg>:            1 b            0 skpd (  0.0%)    0.002 s ( 1.770 ms/b)
Recanonicalizing the internal orbitals
Recanonicalizing the virtual orbitals
Time needed for Fock operator              ...            0.315 sec
Reference energy                           ...  -1659.954953363
Warning: for UHF the TrafoType has to be JK
Warning: for UHF the K(C)-option cannot be MO but must be AOX

-------------------------------
PARTIAL EXCHANGE TRANSFORMATION
-------------------------------

Transformation type                        ... two-operators
Generation of integrals (i,mue|j,nue)      ... ON
Generation of integrals (mue,kappa|nue,tau)... ON
Generation of integrals (i,mue|a,nue)      ... ON
Dimension of the basis                     ...  106
Number of internal alpha-MOs               ...   13 (  10-  22)
Number of internal beta-MOs                ...    9 (  10-  18)
Number of external alpha-MOs               ...   83 (  23- 105)
Number of external beta-MOs                ...   87 (  19- 105)
Pair cutoff                                ... 0.000e+00 Eh
Number of AO pairs in the trafo            ... 5671
Total Number of distinct AO pairs          ... 5671
Memory devoted for trafo                   ... 2500.0 MB 
Max. Number of MO pairs treated together   ... 29163      
Number Format for Storage                  ... Double (8 Byte)
Integral package used                      ... LIBINT

Starting integral evaluation:
    ... done with AO integral generation
Closing buffer AOK[aa] ( 0.00 GB; CompressionRatio= 0.99)
Closing buffer AOK[bb] ( 0.00 GB; CompressionRatio= 0.98)
Closing buffer AOK[ab] ( 0.00 GB; CompressionRatio= 0.99)
Closing buffer AOK[ba] ( 0.00 GB; CompressionRatio= 0.99)
Collecting buffer AOK 
Closing buffer IAAO1[aa] ( 0.00 GB; CompressionRatio= 1.00)
Closing buffer IAAO1[bb] ( 0.00 GB; CompressionRatio= 1.00)
Closing buffer IAAO1[ab] ( 0.00 GB; CompressionRatio= 1.00)
Closing buffer IAAO1[ba] ( 0.00 GB; CompressionRatio= 1.00)
Closing buffer IAAO2[aa] ( 0.00 GB; CompressionRatio= 1.00)
Closing buffer IAAO2[bb] ( 0.00 GB; CompressionRatio= 1.00)
Closing buffer IAAO2[ab] ( 0.00 GB; CompressionRatio= 1.00)
Closing buffer IAAO2[ba] ( 0.00 GB; CompressionRatio= 1.00)
Collecting buffer IAAO 
Closing buffer PRQS    ( 0.01 GB; CompressionRatio= 1.00)
Collecting buffer PRQS 
Number of alpha/alpha MO pairs in trafo    ...   91
Number of beta /beta  MO pairs in trafo    ...   45
Number of alpha/ beta MO pairs in trafo    ...  117
------------------------
SORTING OF (i,mue|j,nue)
------------------------

SORTING OF ALPHA/ALPHA PAIRS
IBATCH = 1 of  1
Closing buffer KAO[aa] ( 0.00 GB; CompressionRatio= 1.00)
Collecting buffer KAO 
SORTING OF BETA /BETA  PAIRS
IBATCH = 1 of  1
Closing buffer KAO[bb] ( 0.00 GB; CompressionRatio= 1.00)
Collecting buffer KAO 
SORTING OF ALPHA/BETA  PAIRS
IBATCH = 1 of  1
Closing buffer KAO[ab] ( 0.00 GB; CompressionRatio= 0.999866518354)
Collecting buffer KAO[ab] 
------------------------
SORTING OF (i,mue|a,nue)
------------------------

Number of alpha/alpha (i,a) pairs in trafo  ... 1079
Number of beta /beta  (i,a) pairs in trafo  ...  783
Number of alpha/ beta (i,a) pairs in trafo  ... 1131
Number of beta /alpha (i,a) pairs in trafo  ...  747
Setting up the alpha/alpha list             ... done
Setting up the beta /beta  list             ... done
Setting up the alpha/beta  list             ... done
Setting up the beta /alpha list             ... done
    ... Now sorting (i,mue|a,nue)integrals
    ... Integrals (i,b|a,c) will be made on the fly
SORTING OF ALPHA/ALPHA PAIRS
IBATCH = 1 of  1
Closing buffer IPAQ[aa]  0.00 GB; CompressionRatio= 1.00)
SORTING OF BETA /BETA  PAIRS
IBATCH = 1 of  1
Closing buffer IPAQ[bb]( 0.00 GB; CompressionRatio= 1.00)
SORTING OF ALPHA/BETA  PAIRS (NMatSort_ab=48)
IBATCH = 1 of  1
Closing buffer IPAQ[ab]( 0.00 GB; CompressionRatio= 1.00)
SORTING OF BETA/ALPHA  PAIRS
IBATCH = 1 of  1
Closing buffer IPAQ[ba]( 0.00 GB; CompressionRatio= 1.00)
N(AO-Batches) Done                         ...      8595 
N(AO-Batches) Skipped                      ...         0 
N(IJ)-pairs Skipped                        ...         0 
TOTAL TIME for half transformation         ...     1.469 sec
AO-integral generation                     ...     0.052 sec
Half transformation                        ...     0.015 sec
K-integral sorting                         ...     0.868 sec
<ss|**>: 
------------------------------
PARTIAL COULOMB TRANSFORMATION
------------------------------

Transformation type                        ... two-operators
Dimension of the basis                     ...  106
Number of internal alpha-MOs               ...   13 (10-22)
Number of internal beta-MOs                ...    9 (10-18)
Pair cutoff                                ... 0.000e+00 Eh
Number of AO pairs included in the trafo   ... 5671
Total Number of distinct AO pairs          ... 5671
Memory devoted for trafo                   ... 2500.0 MB 
Max. Number of MO pairs treated together   ... 57781      
Max. Number of MOs treated per batch       ...  545      
Number Format for Storage                  ... Double (8 Byte)
AO-integral source                         ... DIRECT
Integral package used                      ... LIBINT

Starting integral evaluation:
       31806 b        0 skpd     0.010 s (  0.000 ms/b)
<sp|**>: <sd|**>:        53865 b        0 skpd     0.029 s (  0.001 ms/b)
<sf|**>:        37962 b        0 skpd     0.025 s (  0.001 ms/b)
       16416 b        0 skpd     0.014 s (  0.001 ms/b)
<sg|**>:         5643 b        0 skpd     0.020 s (  0.004 ms/b)
<pp|**>:        27702 b        0 skpd     0.029 s (  0.001 ms/b)
<pd|**>:        35397 b        0 skpd     0.047 s (  0.001 ms/b)
<pf|**>:        15390 b        0 skpd     0.027 s (  0.002 ms/b)
<pg|**>:         5130 b        0 skpd     0.031 s (  0.006 ms/b)
<dd|**>:        14364 b        0 skpd     0.059 s (  0.004 ms/b)
<df|**>:        10773 b        0 skpd     0.026 s (  0.002 ms/b)
<dg|**>:         3591 b        0 skpd     0.039 s (  0.011 ms/b)
<ff|**>:         3078 b        0 skpd     0.017 s (  0.006 ms/b)
<fg|**>:         1539 b        0 skpd     0.025 s (  0.016 ms/b)
<gg|**>:          513 b        0 skpd     0.038 s (  0.073 ms/b)
Closing buffer AOJ[aa] ( 0.00 GB; CompressionRatio= 0.98)
Closing buffer AOJ[bb] ( 0.00 GB; CompressionRatio= 0.00)
Collecting buffer AOJ 
    ... done with AO integral generation
Number of Alpha-MO pairs included          ...   91
Number of Beta-MO pairs included           ...   45
    ... Now sorting integrals
SORTING ALPHA/ALPHA PAIRS
IBATCH = 1 of  1
Closing buffer JAO[aa] ( 0.00 GB; CompressionRatio= 1.00)
SORTING BETA/BETA PAIRS
IBATCH = 1 of  1
Closing buffer JAO[bb] ( 0.00 GB; CompressionRatio= 1.00)
Collecting buffer JAO 
TOTAL TIME for half transformation         ...     0.469 sec
AO-integral generation                     ...     0.434 sec
Half transformation                        ...     0.013 sec
J-integral sorting                         ...     0.016 sec

-------------------------- SECOND HALF TRANSFORMATION -------------------------
Formation of (ij|kl),(ij|ka), (ij|ab)      ... ok (     0.055 sec)
Formation of (ik|jl),(ik|ja), (ia|jb)      ... ok (     0.094 sec)


-----------------------
SPIN UNRESTRICTED GUESS
-----------------------

Entering MDCI_UHF_Guess, Tailored=0
Spin-components of the MP2 energy:
EMP2(aa)=     -0.157531584
EMP2(bb)=     -0.069780110
EMP2(ab)=     -0.459358976

Initial guess performed in     0.040 sec
E(0)                                       ...  -1659.954953363
E(MP2)                                     ...     -0.686670670
Initial E(tot)                             ...  -1660.641624032
<T|T>                                      ...      0.163514563
Number of pairs included                   ... 231

------------------------------------------------
                  UHF COUPLED CLUSTER ITERATIONS
------------------------------------------------

Number of amplitudes to be optimized       ...      1250643

Iter       E(tot)           E(Corr)          Delta-E          Residual     Time      <S|S>**1/2
  0  -1660.641624032     -0.686670670      0.000000000      0.023283005    1.31      0.000000056
                           *** Turning on DIIS ***
  1  -1660.625502470     -0.670549108      0.016121562      0.014025647    1.37      0.072534964
  2  -1660.643071718     -0.688118355     -0.017569247      0.012380750    1.40      0.092573101
  3  -1660.650036930     -0.695083567     -0.006965212      0.010611372    1.41      0.135109612
  4  -1660.655223449     -0.700270086     -0.005186519      0.008482748    1.44      0.175055742
  5  -1660.663710890     -0.708757527     -0.008487441      0.004049607    1.47      0.258233616
  6  -1660.666757959     -0.711804596     -0.003047069      0.001641117    1.46      0.299228007
  7  -1660.668537446     -0.713584084     -0.001779487      0.000718861    1.46      0.321484483
  8  -1660.668907954     -0.713954591     -0.000370507      0.000602196    1.47      0.326675425
  9  -1660.669026861     -0.714073499     -0.000118908      0.000377293    1.44      0.328275719
 10  -1660.669135823     -0.714182461     -0.000108962      0.000291787    1.48      0.329083275
 11  -1660.669017085     -0.714063722      0.000118739      0.000146086    1.43      0.327865113
 12  -1660.669029608     -0.714076246     -0.000012523      0.000087899    1.42      0.327608304
 13  -1660.668998292     -0.714044930      0.000031316      0.000038148    1.49      0.327125305
 14  -1660.669004149     -0.714050787     -0.000005857      0.000029332    1.45      0.327071579
 15  -1660.669008527     -0.714055164     -0.000004377      0.000015704    1.45      0.327069313
 16  -1660.669010954     -0.714057592     -0.000002427      0.000006790    1.46      0.327078263
 17  -1660.669010577     -0.714057215      0.000000377      0.000003972    1.41      0.327072772
 18  -1660.669010128     -0.714056765      0.000000450      0.000002910    1.51      0.327067258
 19  -1660.669010414     -0.714057052     -0.000000287      0.000002036    1.48      0.327070565
 20  -1660.669010958     -0.714057596     -0.000000544      0.000001416    1.47      0.327077143
 21  -1660.669011295     -0.714057932     -0.000000336      0.000000693    1.42      0.327082589
               --- The Coupled-Cluster iterations have converged ---

----------------------
COUPLED CLUSTER ENERGY
----------------------

E(0)                                       ...  -1659.954953363
E(CORR)                                    ...     -0.714057932
E(TOT)                                     ...  -1660.669011295
Singles norm <S|S>**1/2                    ...      0.327082589 ( 0.180937242, 0.146145347)  
T1 diagnostic                              ...      0.069734242                              

------------------
LARGEST AMPLITUDES
------------------
  22a-> 23a  -1a-> -1a       0.272477
  18b-> 24b  -1b-> -1b       0.154378
  17b-> 25b  -1b-> -1b       0.154378
  16b-> 22b  -1b-> -1b       0.123576
  18b-> 25b  -1b-> -1b       0.085375
  17b-> 24b  -1b-> -1b       0.085375
  16b-> 28b  -1b-> -1b       0.084104
  18b-> 30b  -1b-> -1b       0.070130
  17b-> 31b  -1b-> -1b       0.070130
  16b-> 29b  -1b-> -1b       0.064407
  16b-> 19b  -1b-> -1b       0.059144
  22a-> 23a  16b-> 19b       0.053391
  16b-> 33b  -1b-> -1b       0.053060
  17a-> 23a  -1a-> -1a       0.052705
  18b-> 31b  -1b-> -1b       0.047712
  17b-> 30b  -1b-> -1b       0.047712

----------------------
UHF TRIPLES CORRECTION (Algorithm 1)
----------------------

Multiplier for the singles contribution    ...      1.000000000

SPIN-CASE Alpha-Alpha-Alpha:
10% done
20% done
30% done
40% done
50% done
60% done
70% done
80% done
90% done


SPIN-CASE Beta-Beta-Beta:
10% done
20% done
30% done
40% done
50% done
60% done
70% done
80% done
90% done


SPIN-CASE Alpha-Alpha-Beta:
10% done
20% done
30% done
40% done
50% done
60% done
70% done
80% done
90% done


SPIN-CASE Beta-Beta-Alpha:
10% done
20% done
30% done
40% done
50% done
60% done
70% done
80% done
90% done


Triples Correction (T)                     ...     -0.032863068
    alpha-alpha-alpha ... -0.001590336 (  4.8%)
    alpha-alpha-beta  ... -0.017424221 ( 53.0%)
    alpha-beta -beta  ... -0.013040353 ( 39.7%)
    beta -beta -beta  ... -0.000808159 (  2.5%)
Scaling of triples based on CCSD energies (Peterson et al. Molecular Physics 113, 1551 (2015))
E(T*) = f*E(T) where f = E(F12-CCSD)/E(CCSD) 
f = CCSD (with F12)/ CCSD (without F12)    ...      1.000000000
Scaled triples correction (T)              ...     -0.032863068

Final correlation energy                   ...     -0.746921000
E(CCSD)                                    ...  -1660.669011295
E(CCSD(T))                                 ...  -1660.701874363



        !!!!!!!!!!!!!!!!!!!!!!!!!!!!!!!!!!!!!!!!!!!!!!!!!!!!!!!!!!!!!!!!!!!!!!!!!! 
        !  Warning: Densities are linearized densities                           !
        !!!!!!!!!!!!!!!!!!!!!!!!!!!!!!!!!!!!!!!!!!!!!!!!!!!!!!!!!!!!!!!!!!!!!!!!!! 

NORM  =      1.447137615 sqrt=     1.202970330
W(HF) =      0.691019285
------------------------------------------------------------------------------
                           ORCA POPULATION ANALYSIS
------------------------------------------------------------------------------
Input electron density              ... 36_FeS.mdcip
Input spin density                  ... 36_FeS.mdcir
BaseName (.gbw .S,...)              ... 36_FeS

                    ********************************
                    * MULLIKEN POPULATION ANALYSIS *
                    ********************************

------------------------------------------
MULLIKEN ATOMIC CHARGES AND SPIN DENSITIES
------------------------------------------
   0 Fe:    0.425540    3.824174
   1 S :   -0.425540    0.175826
Sum of atomic charges       :   -0.0000000
Sum of atomic spin densities:    4.0000000

---------------------------------------------------
MULLIKEN REDUCED ORBITAL CHARGES AND SPIN DENSITIES
---------------------------------------------------
CHARGE
  0 Fes       :     6.612907  s :     6.612907
      pz      :     4.052754  p :    12.370277
      px      :     4.158762
      py      :     4.158762
      dz2     :     1.129714  d :     6.554536
      dxz     :     1.218718
      dyz     :     1.218718
      dx2y2   :     1.001457
      dxy     :     1.985929
      f0      :     0.005088  f :     0.033428
      f+1     :     0.005057
      f-1     :     0.005057
      f+2     :     0.003958
      f-2     :     0.004832
      f+3     :     0.004719
      f-3     :     0.004719
      g0      :     0.000374  g :     0.003312
      g+1     :     0.000365
      g-1     :     0.000365
      g+2     :     0.000326
      g-2     :     0.000386
      g+3     :     0.000365
      g-3     :     0.000365
      g+4     :     0.000383
      g-4     :     0.000384
  1 S s       :     5.866152  s :     5.866152
      pz      :     3.258883  p :    10.391665
      px      :     3.566391
      py      :     3.566391
      dz2     :     0.034786  d :     0.148744
      dxz     :     0.035619
      dyz     :     0.035619
      dx2y2   :     0.020782
      dxy     :     0.021939
      f0      :     0.004419  f :     0.018979
      f+1     :     0.004003
      f-1     :     0.004003
      f+2     :     0.001756
      f-2     :     0.001961
      f+3     :     0.001418
      f-3     :     0.001418

SPIN
  0 Fes       :     0.375346  s :     0.375346
      pz      :     0.007692  p :     0.161766
      px      :     0.077037
      py      :     0.077037
      dz2     :     0.748782  d :     3.272468
      dxz     :     0.765037
      dyz     :     0.765037
      dx2y2   :     0.988917
      dxy     :     0.004694
      f0      :     0.002155  f :     0.013232
      f+1     :     0.002207
      f-1     :     0.002207
      f+2     :     0.002556
      f-2     :     0.001472
      f+3     :     0.001318
      f-3     :     0.001318
      g0      :     0.000175  g :     0.001363
      g+1     :     0.000170
      g-1     :     0.000170
      g+2     :     0.000177
      g-2     :     0.000154
      g+3     :     0.000147
      g-3     :     0.000147
      g+4     :     0.000111
      g-4     :     0.000110
  1 S s       :    -0.004054  s :    -0.004054
      pz      :    -0.125270  p :     0.192334
      px      :     0.158802
      py      :     0.158802
      dz2     :    -0.002940  d :    -0.011164
      dxz     :    -0.005448
      dyz     :    -0.005448
      dx2y2   :     0.001803
      dxy     :     0.000869
      f0      :     0.000007  f :    -0.001290
      f+1     :    -0.000657
      f-1     :    -0.000657
      f+2     :     0.000010
      f-2     :    -0.000156
      f+3     :     0.000081
      f-3     :     0.000081


                     *******************************
                     * LOEWDIN POPULATION ANALYSIS *
                     *******************************

-----------------------------------------
LOEWDIN ATOMIC CHARGES AND SPIN DENSITIES
-----------------------------------------
   0 Fe:   -0.062428    3.766687
   1 S :    0.062428    0.233313

--------------------------------------------------
LOEWDIN REDUCED ORBITAL CHARGES AND SPIN DENSITIES
--------------------------------------------------
CHARGE
  0 Fes       :     6.605251  s :     6.605251
      pz      :     4.212555  p :    12.589054
      px      :     4.188249
      py      :     4.188249
      dz2     :     1.270174  d :     6.826393
      dxz     :     1.285116
      dyz     :     1.285116
      dx2y2   :     1.001164
      dxy     :     1.984823
      f0      :     0.007983  f :     0.038388
      f+1     :     0.006077
      f-1     :     0.006077
      f+2     :     0.003968
      f-2     :     0.004846
      f+3     :     0.004719
      f-3     :     0.004719
      g0      :     0.000393  g :     0.003342
      g+1     :     0.000371
      g-1     :     0.000371
      g+2     :     0.000326
      g-2     :     0.000386
      g+3     :     0.000365
      g-3     :     0.000365
      g+4     :     0.000383
      g-4     :     0.000384
  1 S s       :     5.493590  s :     5.493590
      pz      :     3.308989  p :    10.240942
      px      :     3.465976
      py      :     3.465976
      dz2     :     0.056082  d :     0.174193
      dxz     :     0.037333
      dyz     :     0.037333
      dx2y2   :     0.020883
      dxy     :     0.022561
      f0      :     0.010059  f :     0.028848
      f+1     :     0.005792
      f-1     :     0.005792
      f+2     :     0.001938
      f-2     :     0.002431
      f+3     :     0.001418
      f-3     :     0.001418

SPIN
  0 Fes       :     0.328820  s :     0.328820
      pz      :     0.003808  p :     0.170789
      px      :     0.083490
      py      :     0.083490
      dz2     :     0.738302  d :     3.252689
      dxz     :     0.760539
      dyz     :     0.760539
      dx2y2   :     0.988434
      dxy     :     0.004876
      f0      :     0.001664  f :     0.013035
      f+1     :     0.002352
      f-1     :     0.002352
      f+2     :     0.002559
      f-2     :     0.001472
      f+3     :     0.001318
      f-3     :     0.001318
      g0      :     0.000170  g :     0.001354
      g+1     :     0.000169
      g-1     :     0.000169
      g+2     :     0.000177
      g-2     :     0.000154
      g+3     :     0.000147
      g-3     :     0.000147
      g+4     :     0.000111
      g-4     :     0.000110
  1 S s       :     0.003090  s :     0.003090
      pz      :    -0.075953  p :     0.223736
      px      :     0.149844
      py      :     0.149844
      dz2     :     0.000323  d :     0.002463
      dxz     :    -0.000342
      dyz     :    -0.000342
      dx2y2   :     0.002089
      dxy     :     0.000735
      f0      :     0.001669  f :     0.004024
      f+1     :     0.001097
      f-1     :     0.001097
      f+2     :     0.000204
      f-2     :    -0.000205
      f+3     :     0.000081
      f-3     :     0.000081


                      *****************************
                      * MAYER POPULATION ANALYSIS *
                      *****************************

  NA   - Mulliken gross atomic population
  ZA   - Total nuclear charge
  QA   - Mulliken gross atomic charge
  VA   - Mayer's total valence
  BVA  - Mayer's bonded valence
  FA   - Mayer's free valence

  ATOM       NA         ZA         QA         VA         BVA        FA
  0 Fe    25.5745    26.0000     0.4255     6.0150     2.1023     3.9127
  1 S     16.4255    16.0000    -0.4255     2.8836     2.1023     0.7812

  Mayer bond orders larger than 0.100000
B(  0-Fe,  1-S ) :   2.1023 



------------------------------------------------------------------------------- 
                                     TIMINGS                                   
------------------------------------------------------------------------------- 


Total execution time                   ...       37.964 sec

Fock Matrix Formation                  ...        0.315 sec (  0.8%)
Initial Guess                          ...        0.040 sec (  0.1%)
DIIS Solver                            ...        2.653 sec (  7.0%)
State Vector Update                    ...        0.115 sec (  0.3%)
Sigma-vector construction              ...       28.926 sec ( 76.2%)
  <0|H|D>                              ...        0.006 sec (  0.0% of sigma)
  <D|H|D>(0-ext Fock)                  ...        0.052 sec (  0.2% of sigma)
  <D|H|D>(0-ext)                       ...        0.273 sec (  0.9% of sigma)
  <D|H|D>(2-ext Fock)                  ...        0.013 sec (  0.0% of sigma)
  <D|H|D>(2-ext)                       ...        0.694 sec (  2.4% of sigma)
  <D|H|D>(4-ext)                       ...       15.572 sec ( 53.8% of sigma)
  <S|H|0>                              ...        1.381 sec (  4.8% of sigma)
  <S|H|S>                              ...        0.003 sec (  0.0% of sigma)
  <S|H|D>(1-ext)                       ...        0.014 sec (  0.0% of sigma)
  <D|H|S>(1-ext)                       ...        0.187 sec (  0.6% of sigma)
  Fock-dressing                        ...        4.113 sec ( 14.2% of sigma)
  (ik|jl)-dressing                     ...        0.369 sec (  1.3% of sigma)
  (ij|ab),(ia|jb)-dressing             ...        4.957 sec ( 17.1% of sigma)
  Pair energies                        ...        0.009 sec (  0.0% of sigma)
Total Time for computing (T)           ...        3.279 sec (  8.6% of ALL)
  I/O of integral and amplitudes       ...        0.757 sec ( 23.1% of (T))
  External N**7 contributions          ...        0.879 sec ( 26.8% of (T))
  Internal N**7 contributions          ...        0.460 sec ( 14.0% of (T))
  N**6 triples energy contributions    ...        1.145 sec ( 34.9% of (T))

----- Orbital basis set information -----
Your calculation utilizes the basis: def2-QZVPP
   F. Weigend and R. Ahlrichs, Phys. Chem. Chem. Phys. 7, 3297 (2005).

----- AuxJ basis set information -----
Your calculation utilizes the auxiliary basis: def2/J
   F. Weigend, Phys. Chem. Chem. Phys. 8, 1057 (2006).

----- AuxC basis set information -----
Your calculation utilizes the auxiliary basis: def2-QZVPP/C
  H-La, Hf-Rn : A. Hellweg, C. Hattig, S. Hofener and W. Klopper, Theor. Chem. Acc. 117, 587 (2007).
        Ce-Lu : J. Chmela and M. E. Harding, Mol. Phys. (2018).

----- AuxJK basis set information -----
Your calculation utilizes the auxiliary basis: def2/JK
   H-Ba, Hf-Rn: F. Weigend, J. Comput. Chem. 29, 167 (2008).

All done

                     -----------------------------------------
                     Extrapolated Energy 2 Basis=  def2-QZVPP
                     -----------------------------------------

---------------------------------
CARTESIAN COORDINATES (ANGSTROEM)
---------------------------------
  Fe     0.000000    0.000000   -0.005991
  S      0.000000    0.000000    2.005991

----------------------------
CARTESIAN COORDINATES (A.U.)
----------------------------
  NO LB      ZA    FRAG     MASS         X           Y           Z
   0 Fe   26.0000    0    55.850    0.000000    0.000000   -0.011321
   1 S    16.0000    0    32.060    0.000000    0.000000    3.790773

--------------------------------
INTERNAL COORDINATES (ANGSTROEM)
--------------------------------
 Fe     0   0   0     0.000000000000     0.00000000     0.00000000
 S      1   0   0     2.011981819713     0.00000000     0.00000000

---------------------------
INTERNAL COORDINATES (A.U.)
---------------------------
 Fe     0   0   0     0.000000000000     0.00000000     0.00000000
 S      1   0   0     3.802094625686     0.00000000     0.00000000

---------------------
BASIS SET INFORMATION
---------------------
There are 2 groups of distinct atoms

 Group   1 Type Fe  : 24s18p10d4f2g contracted to 11s6p5d4f2g pattern {114111111111/951111/61111/1111/11}
 Group   2 Type S   : 20s14p4d2f1g contracted to 9s6p4d2f1g pattern {1031111111/821111/1111/11/1}

Atom   0Fe   basis set group =>   1
Atom   1S    basis set group =>   2
---------------------------------
AUXILIARY/J BASIS SET INFORMATION
---------------------------------
There are 2 groups of distinct atoms

 Group   1 Type Fe  : 19s5p5d3f3g contracted to 8s5p5d2f3g pattern {121111111/11111/11111/21/111}
 Group   2 Type S   : 14s5p5d2f1g contracted to 8s4p3d1f1g pattern {71111111/2111/311/2/1}

Atom   0Fe   basis set group =>   1
Atom   1S    basis set group =>   2
---------------------------------
AUXILIARY/C BASIS SET INFORMATION
---------------------------------
There are 2 groups of distinct atoms

 Group   1 Type Fe  : 15s13p11d8f7g5h2i contracted to 15s13p11d8f7g5h2i pattern {111111111111111/1111111111111/11111111111/11111111/1111111/11111/11}
 Group   2 Type S   : 12s10p9d6f3g1h contracted to 12s10p9d6f3g1h pattern {111111111111/1111111111/111111111/111111/111/1}

Atom   0Fe   basis set group =>   1
Atom   1S    basis set group =>   2
----------------------------------
AUXILIARY/JK BASIS SET INFORMATION
----------------------------------
There are 2 groups of distinct atoms

 Group   1 Type Fe  : 19s14p12d10f7g3h1i contracted to 16s13p11d9f5g3h1i pattern {4111111111111111/2111111111111/21111111111/211111111/31111/111/1}
 Group   2 Type S   : 16s12p10d4f1g contracted to 13s11p9d4f1g pattern {4111111111111/21111111111/211111111/1111/1}

Atom   0Fe   basis set group =>   1
Atom   1S    basis set group =>   2

[...]
 13  -1660.743032933     -0.749963299      0.000034745      0.000035316    5.84      0.330450719
 14  -1660.743036166     -0.749966532     -0.000003233      0.000028921    5.89      0.330367357
 15  -1660.743041127     -0.749971494     -0.000004961      0.000015851    5.96      0.330376415
 16  -1660.743045493     -0.749975859     -0.000004366      0.000007416    5.90      0.330403916
 17  -1660.743045963     -0.749976329     -0.000000470      0.000004696    5.87      0.330405618
 18  -1660.743045447     -0.749975814      0.000000516      0.000003003    5.90      0.330401084
 19  -1660.743045396     -0.749975762      0.000000051      0.000001966    5.84      0.330400384
 20  -1660.743045739     -0.749976106     -0.000000343      0.000001226    5.83      0.330405178
 21  -1660.743045953     -0.749976320     -0.000000214      0.000000605    5.87      0.330409089
               --- The Coupled-Cluster iterations have converged ---

----------------------
COUPLED CLUSTER ENERGY
----------------------

E(0)                                       ...  -1659.993069634
E(CORR)                                    ...     -0.749976320
E(TOT)                                     ...  -1660.743045953
Singles norm <S|S>**1/2                    ...      0.330409089 ( 0.184408939, 0.146000151)  
T1 diagnostic                              ...      0.070443455                              

------------------
LARGEST AMPLITUDES
------------------
  22a-> 23a  -1a-> -1a       0.273427
  18b-> 30b  -1b-> -1b       0.146774
  17b-> 29b  -1b-> -1b       0.146774
  17b-> 32b  -1b-> -1b       0.104270
  18b-> 33b  -1b-> -1b       0.104270
  16b-> 24b  -1b-> -1b       0.093581
  16b-> 36b  -1b-> -1b       0.083775
  16b-> 34b  -1b-> -1b       0.065715
  16b-> 23b  -1b-> -1b       0.062750
  16b-> 19b  -1b-> -1b       0.058856
  16b-> 31b  -1b-> -1b       0.056492
  18b-> 38b  -1b-> -1b       0.050529
  17b-> 37b  -1b-> -1b       0.050529
  17b-> 25b  -1b-> -1b       0.050288
  18b-> 26b  -1b-> -1b       0.050288
  22a-> 26a  -1a-> -1a       0.049674

----------------------
UHF TRIPLES CORRECTION (Algorithm 1)
----------------------

Multiplier for the singles contribution    ...      1.000000000

SPIN-CASE Alpha-Alpha-Alpha:
10% done
20% done
30% done
40% done
50% done
60% done
70% done
80% done
90% done


SPIN-CASE Beta-Beta-Beta:
10% done
20% done
30% done
40% done
50% done
60% done
70% done
80% done
90% done


SPIN-CASE Alpha-Alpha-Beta:
10% done
20% done
30% done
40% done
50% done
60% done
70% done
80% done
90% done


SPIN-CASE Beta-Beta-Alpha:
10% done
20% done
30% done
40% done
50% done
60% done
70% done
80% done
90% done


Triples Correction (T)                     ...     -0.037738900
    alpha-alpha-alpha ... -0.002017591 (  5.3%)
    alpha-alpha-beta  ... -0.020032628 ( 53.1%)
    alpha-beta -beta  ... -0.014800007 ( 39.2%)
    beta -beta -beta  ... -0.000888674 (  2.4%)
Scaling of triples based on CCSD energies (Peterson et al. Molecular Physics 113, 1551 (2015))
E(T*) = f*E(T) where f = E(F12-CCSD)/E(CCSD) 
f = CCSD (with F12)/ CCSD (without F12)    ...      1.000000000
Scaled triples correction (T)              ...     -0.037738900

Final correlation energy                   ...     -0.787715219
E(CCSD)                                    ...  -1660.743045953
E(CCSD(T))                                 ...  -1660.780784853



        !!!!!!!!!!!!!!!!!!!!!!!!!!!!!!!!!!!!!!!!!!!!!!!!!!!!!!!!!!!!!!!!!!!!!!!!!! 
        !  Warning: Densities are linearized densities                           !
        !!!!!!!!!!!!!!!!!!!!!!!!!!!!!!!!!!!!!!!!!!!!!!!!!!!!!!!!!!!!!!!!!!!!!!!!!! 

NORM  =      1.454494147 sqrt=     1.206024107
W(HF) =      0.687524252
------------------------------------------------------------------------------
                           ORCA POPULATION ANALYSIS
------------------------------------------------------------------------------
Input electron density              ... 36_FeS.mdcip
Input spin density                  ... 36_FeS.mdcir
BaseName (.gbw .S,...)              ... 36_FeS

                    ********************************
                    * MULLIKEN POPULATION ANALYSIS *
                    ********************************

------------------------------------------
MULLIKEN ATOMIC CHARGES AND SPIN DENSITIES
------------------------------------------
   0 Fe:    0.379843    3.836716
   1 S :   -0.379843    0.163284
Sum of atomic charges       :   -0.0000000
Sum of atomic spin densities:    4.0000000

---------------------------------------------------
MULLIKEN REDUCED ORBITAL CHARGES AND SPIN DENSITIES
---------------------------------------------------
CHARGE
  0 Fes       :     6.641139  s :     6.641139
      pz      :     4.062869  p :    12.375955
      px      :     4.156543
      py      :     4.156543
      dz2     :     1.131661  d :     6.545907
      dxz     :     1.215615
      dyz     :     1.215615
      dx2y2   :     1.000316
      dxy     :     1.982700
      f0      :     0.009387  f :     0.052193
      f+1     :     0.010262
      f-1     :     0.010262
      f+2     :     0.005065
      f-2     :     0.006238
      f+3     :     0.005489
      f-3     :     0.005489
      g0      :     0.000638  g :     0.004963
      g+1     :     0.000609
      g-1     :     0.000609
      g+2     :     0.000460
      g-2     :     0.000559
      g+3     :     0.000509
      g-3     :     0.000509
      g+4     :     0.000536
      g-4     :     0.000536
  1 S s       :     5.846019  s :     5.846019
      pz      :     3.232617  p :    10.347698
      px      :     3.557540
      py      :     3.557540
      dz2     :     0.032321  d :     0.156122
      dxz     :     0.039587
      dyz     :     0.039587
      dx2y2   :     0.021518
      dxy     :     0.023109
      f0      :     0.004406  f :     0.026190
      f+1     :     0.006221
      f-1     :     0.006221
      f+2     :     0.002540
      f-2     :     0.003179
      f+3     :     0.001812
      f-3     :     0.001812
      g0      :     0.000786  g :     0.003815
      g+1     :     0.000689
      g-1     :     0.000689
      g+2     :     0.000324
      g-2     :     0.000409
      g+3     :     0.000237
      g-3     :     0.000237
      g+4     :     0.000221
      g-4     :     0.000221

SPIN
  0 Fes       :     0.387887  s :     0.387887
      pz      :     0.001984  p :     0.159063
      px      :     0.078539
      py      :     0.078539
      dz2     :     0.745351  d :     3.269676
      dxz     :     0.765710
      dyz     :     0.765710
      dx2y2   :     0.987816
      dxy     :     0.005089
      f0      :     0.002054  f :     0.018374
      f+1     :     0.004693
      f-1     :     0.004693
      f+2     :     0.002724
      f-2     :     0.001418
      f+3     :     0.001396
      f-3     :     0.001396
      g0      :     0.000210  g :     0.001716
      g+1     :     0.000195
      g-1     :     0.000195
      g+2     :     0.000231
      g-2     :     0.000200
      g+3     :     0.000194
      g-3     :     0.000194
      g+4     :     0.000148
      g-4     :     0.000148
  1 S s       :    -0.006022  s :    -0.006022
      pz      :    -0.130207  p :     0.177278
      px      :     0.153742
      py      :     0.153742
      dz2     :    -0.001137  d :    -0.007716
      dxz     :    -0.004709
      dyz     :    -0.004709
      dx2y2   :     0.002053
      dxy     :     0.000785
      f0      :     0.000862  f :    -0.000594
      f+1     :    -0.000799
      f-1     :    -0.000799
      f+2     :     0.000227
      f-2     :    -0.000288
      f+3     :     0.000101
      f-3     :     0.000101
      g0      :     0.000219  g :     0.000338
      g+1     :     0.000049
      g-1     :     0.000049
      g+2     :     0.000044
      g-2     :    -0.000028
      g+3     :     0.000002
      g-3     :     0.000002
      g+4     :     0.000000
      g-4     :     0.000000


                     *******************************
                     * LOEWDIN POPULATION ANALYSIS *
                     *******************************

-----------------------------------------
LOEWDIN ATOMIC CHARGES AND SPIN DENSITIES
-----------------------------------------
   0 Fe:   -0.355011    3.765675
   1 S :    0.355011    0.234325

--------------------------------------------------
LOEWDIN REDUCED ORBITAL CHARGES AND SPIN DENSITIES
--------------------------------------------------
CHARGE
  0 Fes       :     6.569156  s :     6.569156
      pz      :     4.243344  p :    12.662937
      px      :     4.209796
      py      :     4.209796
      dz2     :     1.298603  d :     6.872355
      dxz     :     1.298024
      dyz     :     1.298024
      dx2y2   :     0.998955
      dxy     :     1.978750
      f0      :     0.077385  f :     0.244733
      f+1     :     0.071908
      f-1     :     0.071908
      f+2     :     0.005642
      f-2     :     0.006901
      f+3     :     0.005495
      f-3     :     0.005495
      g0      :     0.001090  g :     0.005832
      g+1     :     0.000815
      g-1     :     0.000815
      g+2     :     0.000462
      g-2     :     0.000559
      g+3     :     0.000509
      g-3     :     0.000509
      g+4     :     0.000536
      g-4     :     0.000536
  1 S s       :     5.363052  s :     5.363052
      pz      :     3.298225  p :    10.004120
      px      :     3.352948
      py      :     3.352948
      dz2     :     0.070506  d :     0.193030
      dxz     :     0.038709
      dyz     :     0.038709
      dx2y2   :     0.021309
      dxy     :     0.023796
      f0      :     0.034952  f :     0.072958
      f+1     :     0.012804
      f-1     :     0.012804
      f+2     :     0.003375
      f-2     :     0.005410
      f+3     :     0.001806
      f-3     :     0.001806
      g0      :     0.005530  g :     0.011829
      g+1     :     0.002063
      g-1     :     0.002063
      g+2     :     0.000480
      g-2     :     0.000777
      g+3     :     0.000237
      g-3     :     0.000237
      g+4     :     0.000221
      g-4     :     0.000221

SPIN
  0 Fes       :     0.309943  s :     0.309943
      pz      :     0.002961  p :     0.186926
      px      :     0.091983
      py      :     0.091983
      dz2     :     0.736199  d :     3.236081
      dxz     :     0.754015
      dyz     :     0.754015
      dx2y2   :     0.986196
      dxy     :     0.005656
      f0      :     0.000922  f :     0.031077
      f+1     :     0.011575
      f-1     :     0.011575
      f+2     :     0.002795
      f-2     :     0.001418
      f+3     :     0.001396
      f-3     :     0.001396
      g0      :     0.000125  g :     0.001649
      g+1     :     0.000206
      g-1     :     0.000206
      g+2     :     0.000229
      g-2     :     0.000198
      g+3     :     0.000194
      g-3     :     0.000194
      g+4     :     0.000148
      g-4     :     0.000148
  1 S s       :     0.004757  s :     0.004757
      pz      :    -0.058105  p :     0.206763
      px      :     0.132434
      py      :     0.132434
      dz2     :     0.001411  d :     0.009063
      dxz     :     0.002329
      dyz     :     0.002329
      dx2y2   :     0.002498
      dxy     :     0.000495
      f0      :     0.001789  f :     0.010394
      f+1     :     0.003881
      f-1     :     0.003881
      f+2     :     0.001175
      f-2     :    -0.000535
      f+3     :     0.000101
      f-3     :     0.000101
      g0      :     0.001200  g :     0.003349
      g+1     :     0.000999
      g-1     :     0.000999
      g+2     :     0.000202
      g-2     :    -0.000055
      g+3     :     0.000002
      g-3     :     0.000002
      g+4     :     0.000000
      g-4     :     0.000000


                      *****************************
                      * MAYER POPULATION ANALYSIS *
                      *****************************

  NA   - Mulliken gross atomic population
  ZA   - Total nuclear charge
  QA   - Mulliken gross atomic charge
  VA   - Mayer's total valence
  BVA  - Mayer's bonded valence
  FA   - Mayer's free valence

  ATOM       NA         ZA         QA         VA         BVA        FA
  0 Fe    25.6202    26.0000     0.3798     6.1289     2.1638     3.9651
  1 S     16.3798    16.0000    -0.3798     2.9543     2.1638     0.7905

  Mayer bond orders larger than 0.100000
B(  0-Fe,  1-S ) :   2.1638 



------------------------------------------------------------------------------- 
                                     TIMINGS                                   
------------------------------------------------------------------------------- 


Total execution time                   ...      166.979 sec

Fock Matrix Formation                  ...        1.382 sec (  0.8%)
Initial Guess                          ...        0.116 sec (  0.1%)
DIIS Solver                            ...        8.593 sec (  5.1%)
State Vector Update                    ...        0.368 sec (  0.2%)
Sigma-vector construction              ...      119.772 sec ( 71.7%)
  <0|H|D>                              ...        0.018 sec (  0.0% of sigma)
  <D|H|D>(0-ext Fock)                  ...        0.180 sec (  0.1% of sigma)
  <D|H|D>(0-ext)                       ...        0.957 sec (  0.8% of sigma)
  <D|H|D>(2-ext Fock)                  ...        0.056 sec (  0.0% of sigma)
  <D|H|D>(2-ext)                       ...        3.049 sec (  2.5% of sigma)
  <D|H|D>(4-ext)                       ...       65.056 sec ( 54.3% of sigma)
  <S|H|0>                              ...        7.643 sec (  6.4% of sigma)
  <S|H|S>                              ...        0.007 sec (  0.0% of sigma)
  <S|H|D>(1-ext)                       ...        0.042 sec (  0.0% of sigma)
  <D|H|S>(1-ext)                       ...        0.585 sec (  0.5% of sigma)
  Fock-dressing                        ...       19.747 sec ( 16.5% of sigma)
  (ik|jl)-dressing                     ...        1.087 sec (  0.9% of sigma)
  (ij|ab),(ia|jb)-dressing             ...       17.728 sec ( 14.8% of sigma)
  Pair energies                        ...        0.028 sec (  0.0% of sigma)
Total Time for computing (T)           ...       24.401 sec ( 14.6% of ALL)
  I/O of integral and amplitudes       ...        4.528 sec ( 18.6% of (T))
  External N**7 contributions          ...        8.414 sec ( 34.5% of (T))
  Internal N**7 contributions          ...        2.599 sec ( 10.7% of (T))
  N**6 triples energy contributions    ...        8.061 sec ( 33.0% of (T))


-------------------
EXTRAPOLATED ENERGY
-------------------


-----------------------------------------------------------------
                      EP1 - MDCI extrapolation:
-----------------------------------------------------------------
NOTE: We use as reference SCF energy, for the extrapolation, the one from the MDCI module and not the one 
from the SCF calculation. In case the first step is a DFT calculation these two might be different.

NOTE: For the SCF part we extrapolate based on the scheme proposed in J. Chem. Phys. 2008, 129, 184116
using the exponents from J. Chem. Theory Comput., 7, 33-43 (2011)

NOTE: For the correlation part we extrapolate based on the scheme proposed in J. Chem. Phys. 1997, 106, 9639
using the exponents from J. Chem. Theory Comput., 7, 33-43 (2011)


Alpha(3/4)     :  7.880 (SCF Extrapolation)
Beta(3/4)      :  2.970 (correlation extrapolation)

SCF energy with basis def2-TZVPP:                     -1659.954953363
SCF energy with basis def2-QZVPP:                     -1659.993069634
Extrapolated CBS SCF energy (3/4) :                   -1659.998319719 (-0.005250085) 

MDCI energy with basis def2-TZVPP:                       -0.746921000
MDCI energy with basis def2-QZVPP:                       -0.787715219
Extrapolated CBS correlation energy (3/4) :              -0.817933137 (-0.030217917)

Estimated CBS total energy (3/4) :                    -1660.816252856



-------------------------   --------------------
FINAL SINGLE POINT ENERGY     -1660.816252855542
-------------------------   --------------------


                            ***************************************
                            *     ORCA property calculations      *
                            ***************************************

                                    ---------------------
                                    Active property flags
                                    ---------------------
   (+) Dipole Moment


------------------------------------------------------------------------------
                       ORCA ELECTRIC PROPERTIES CALCULATION
------------------------------------------------------------------------------

Dipole Moment Calculation                       ... on
Quadrupole Moment Calculation                   ... off
Polarizability Calculation                      ... off
GBWName                                         ... 36_FeS.gbw
Electron density file                           ... 36_FeS.scfp
The origin for moment calculation is the CENTER OF MASS  = ( 0.000000,  0.000000  1.375269)

-------------
DIPOLE MOMENT
-------------
                                X             Y             Z
Electronic contribution:      0.00000      -0.00000      -4.64414
Nuclear contribution   :      0.00000       0.00000       2.59672
                        -----------------------------------------
Total Dipole Moment    :      0.00000      -0.00000      -2.04742
                        -----------------------------------------
Magnitude (a.u.)       :      2.04742
Magnitude (Debye)      :      5.20413



--------------------
Rotational spectrum 
--------------------
 
Rotational constants in cm-1:     0.000000     0.204456     0.204456 
Rotational constants in MHz :     0.000000  6129.444038  6129.444038 

 Dipole components along the rotational axes: 
x,y,z [a.u.] :    -2.047420    -0.000000     0.000000 
x,y,z [Debye]:    -5.204127    -0.000000     0.000000 

 

                           *** MDCI DENSITY ***

------------------------------------------------------------------------------
                       ORCA ELECTRIC PROPERTIES CALCULATION
------------------------------------------------------------------------------

Dipole Moment Calculation                       ... on
Quadrupole Moment Calculation                   ... off
Polarizability Calculation                      ... off
GBWName                                         ... 36_FeS.gbw
Electron density file                           ... 36_FeS.mdcip
The origin for moment calculation is the CENTER OF MASS  = ( 0.000000,  0.000000  1.375269)

-------------
DIPOLE MOMENT
-------------
                                X             Y             Z
Electronic contribution:     -0.00000       0.00000      -4.70366
Nuclear contribution   :      0.00000       0.00000       2.59672
                        -----------------------------------------
Total Dipole Moment    :     -0.00000       0.00000      -2.10694
                        -----------------------------------------
Magnitude (a.u.)       :      2.10694
Magnitude (Debye)      :      5.35541



--------------------
Rotational spectrum 
--------------------
 
Rotational constants in cm-1:     0.000000     0.204456     0.204456 
Rotational constants in MHz :     0.000000  6129.444038  6129.444038 

 Dipole components along the rotational axes: 
x,y,z [a.u.] :    -2.106939     0.000000    -0.000000 
x,y,z [Debye]:    -5.355412     0.000000    -0.000000 

 

Timings for individual modules:

Sum of individual times         ...      227.532 sec (=   3.792 min)
GTO integral calculation        ...        1.907 sec (=   0.032 min)   0.8 %
SCF iterations                  ...       18.683 sec (=   0.311 min)   8.2 %
MDCI module                     ...      206.941 sec (=   3.449 min)  91.0 %
                             ****ORCA TERMINATED NORMALLY****
TOTAL RUN TIME: 0 days 0 hours 3 minutes 48 seconds 477 msec
