
                                 *****************
                                 * O   R   C   A *
                                 *****************

           --- An Ab Initio, DFT and Semiempirical electronic structure package ---

                  #######################################################
                  #                        -***-                        #
                  #          Department of theory and spectroscopy      #
                  #               Directorship: Frank Neese             #
                  #        Max Planck Institute fuer Kohlenforschung    #
                  #                Kaiser Wilhelm Platz 1               #
                  #                 D-45470 Muelheim/Ruhr               #
                  #                      Germany                        #
                  #                                                     #
                  #                  All rights reserved                #
                  #                        -***-                        #
                  #######################################################


                         Program Version 4.2.0 -  RELEASE  -


 With contributions from (in alphabetic order):
   Daniel Aravena         : Magnetic Suceptibility
   Michael Atanasov       : Ab Initio Ligand Field Theory (pilot matlab implementation)
   Alexander A. Auer      : GIAO ZORA, VPT2
   Ute Becker             : Parallelization
   Giovanni Bistoni       : ED, misc. LED, open-shell LED, HFLED
   Martin Brehm           : Molecular dynamics
   Dmytro Bykov           : SCF Hessian
   Vijay G. Chilkuri      : MRCI spin determinant printing, contributions to CSF-ICE
   Dipayan Datta          : RHF DLPNO-CCSD density
   Achintya Kumar Dutta   : EOM-CC, STEOM-CC
   Dmitry Ganyushin       : Spin-Orbit,Spin-Spin,Magnetic field MRCI
   Miquel Garcia          : C-PCM Hessian, Gaussian charge scheme
   Yang Guo               : DLPNO-NEVPT2, CIM, IAO-localization
   Andreas Hansen         : Spin unrestricted coupled pair/coupled cluster methods
   Benjamin Helmich-Paris : CASSCF linear response (MC-RPA)
   Lee Huntington         : MR-EOM, pCC
   Robert Izsak           : Overlap fitted RIJCOSX, COSX-SCS-MP3, EOM
   Christian Kollmar      : KDIIS, OOCD, Brueckner-CCSD(T), CCSD density
   Simone Kossmann        : Meta GGA functionals, TD-DFT gradient, OOMP2, MP2 Hessian
   Martin Krupicka        : AUTO-CI
   Lucas Lang             : DCDCAS
   Dagmar Lenk            : GEPOL surface, SMD
   Dimitrios Liakos       : Extrapolation schemes; Compound Job, initial MDCI parallelization
   Dimitrios Manganas     : Further ROCIS development; embedding schemes
   Dimitrios Pantazis     : SARC Basis sets
   Taras Petrenko         : DFT Hessian,TD-DFT gradient, ASA, ECA, R-Raman, ABS, FL, XAS/XES, NRVS
   Peter Pinski           : DLPNO-MP2, DLPNO-MP2 Gradient
   Christoph Reimann      : Effective Core Potentials
   Marius Retegan         : Local ZFS, SOC
   Christoph Riplinger    : Optimizer, TS searches, QM/MM, DLPNO-CCSD(T), (RO)-DLPNO pert. Triples
   Tobias Risthaus        : Range-separated hybrids, TD-DFT gradient, RPA, STAB
   Michael Roemelt        : Original ROCIS implementation
   Masaaki Saitow         : Open-shell DLPNO-CCSD energy and density
   Barbara Sandhoefer     : DKH picture change effects
   Avijit Sen             : IP-ROCIS
   Kantharuban Sivalingam : CASSCF convergence, NEVPT2, FIC-MRCI
   Bernardo de Souza      : ESD, SOC TD-DFT
   Georgi Stoychev        : AutoAux, RI-MP2 NMR
   Willem Van den Heuvel  : Paramagnetic NMR
   Boris Wezisla          : Elementary symmetry handling
   Frank Wennmohs         : Technical directorship


 We gratefully acknowledge several colleagues who have allowed us to
 interface, adapt or use parts of their codes:
   Stefan Grimme, W. Hujo, H. Kruse,             : VdW corrections, initial TS optimization,
                  C. Bannwarth                     DFT functionals, gCP, sTDA/sTD-DF
   Ed Valeev, F. Pavosevic, A. Kumar             : LibInt (2-el integral package), F12 methods
   Garnet Chan, S. Sharma, J. Yang, R. Olivares  : DMRG
   Ulf Ekstrom                                   : XCFun DFT Library
   Mihaly Kallay                                 : mrcc  (arbitrary order and MRCC methods)
   Andreas Klamt, Michael Diedenhofen            : otool_cosmo (COSMO solvation model)
   Jiri Pittner, Ondrej Demel                    : Mk-CCSD
   Frank Weinhold                                : gennbo (NPA and NBO analysis)
   Christopher J. Cramer and Donald G. Truhlar   : smd solvation model
   Lars Goerigk                                  : TD-DFT with DH, B97 family of functionals
   V. Asgeirsson, H. Jonsson                     : NEB implementation
   FAccTs GmbH                                   : IRC, NEB, NEB-TS, Multilevel, MM, QM/MM, CI optimization
   S Lehtola, MJT Oliveira, MAL Marques          : LibXC Library


 Your calculation uses the libint2 library for the computation of 2-el integrals
 For citations please refer to: http://libint.valeyev.net

 Your ORCA version has been built with support for libXC version: 4.2.3
 For citations please refer to: https://tddft.org/programs/libxc/

 This ORCA versions uses:
   CBLAS   interface :  Fast vector & matrix operations
   LAPACKE interface :  Fast linear algebra routines
   SCALAPACK package :  Parallel linear algebra routines


----- Orbital basis set information -----
Your calculation utilizes the basis: def2-TZVPP
   F. Weigend and R. Ahlrichs, Phys. Chem. Chem. Phys. 7, 3297 (2005).

================================================================================
                                        WARNINGS
                       Please study these warnings very carefully!
================================================================================


WARNING: your system is open-shell and RHF/RKS was chosen
  ===> : WILL SWITCH to UHF/UKS


WARNING: MDCI localization with Augmented Hessian Foster-Boys
  ===> : Switching off randomization!

WARNING: Post HF methods need fully converged wavefunctions
  ===> : Setting SCFConvForced true
         You can overwrite this default with %scf ConvForced false 


INFO   : the flag for use of LIBINT has been found!

================================================================================
                                       INPUT FILE
================================================================================
NAME = 37_CoH.in
|  1> #
|  2> # 37_CoH ccsd(t)/cbs
|  3> #
|  4> ! ccsd(t) extrapolate(3/4,def2) verytightscf
|  5> 
|  6> *xyz 0 3
|  7>   Co  0.00000000000000      0.00000000000000      0.23964953556340
|  8>   H   0.00000000000000      0.00000000000000      1.76035046443660
|  9> *
| 10> 
| 11> %maxcore 5000
| 12> %pal
| 13> nprocs 24
| 14> end
| 15> 
| 16> 
| 17>                          ****END OF INPUT****
================================================================================

                   *****************************************
                   * Extrapolated Single Point Calculation *
                   *****************************************

----- Orbital basis set information -----
Your calculation utilizes the basis: def2-TZVPP
   F. Weigend and R. Ahlrichs, Phys. Chem. Chem. Phys. 7, 3297 (2005).

----- AuxJ basis set information -----
Your calculation utilizes the auxiliary basis: def2/J
   F. Weigend, Phys. Chem. Chem. Phys. 8, 1057 (2006).

----- AuxC basis set information -----
Your calculation utilizes the auxiliary basis: def2-TZVPP/C
  H-La, Hf-Rn : A. Hellweg, C. Hattig, S. Hofener and W. Klopper, Theor. Chem. Acc. 117, 587 (2007).
        Ce-Lu : J. Chmela and M. E. Harding, Mol. Phys. (2018).

----- AuxJK basis set information -----
Your calculation utilizes the auxiliary basis: def2/JK
   H-Ba, Hf-Rn: F. Weigend, J. Comput. Chem. 29, 167 (2008).

All done

                     -----------------------------------------
                     Extrapolated Energy 1 Basis=  def2-TZVPP
                     -----------------------------------------

---------------------------------
CARTESIAN COORDINATES (ANGSTROEM)
---------------------------------
  Co     0.000000    0.000000    0.239650
  H      0.000000    0.000000    1.760350

----------------------------
CARTESIAN COORDINATES (A.U.)
----------------------------
  NO LB      ZA    FRAG     MASS         X           Y           Z
   0 Co   27.0000    0    58.930    0.000000    0.000000    0.452872
   1 H     1.0000    0     1.008    0.000000    0.000000    3.326580

--------------------------------
INTERNAL COORDINATES (ANGSTROEM)
--------------------------------
 Co     0   0   0     0.000000000000     0.00000000     0.00000000
 H      1   0   0     1.520700928873     0.00000000     0.00000000

---------------------------
INTERNAL COORDINATES (A.U.)
---------------------------
 Co     0   0   0     0.000000000000     0.00000000     0.00000000
 H      1   0   0     2.873708287170     0.00000000     0.00000000

---------------------
BASIS SET INFORMATION
---------------------
There are 2 groups of distinct atoms

 Group   1 Type Co  : 17s12p7d2f1g contracted to 6s5p4d2f1g pattern {842111/63111/4111/11/1}
 Group   2 Type H   : 5s2p1d contracted to 3s2p1d pattern {311/11/1}

Atom   0Co   basis set group =>   1
Atom   1H    basis set group =>   2
---------------------------------
AUXILIARY/J BASIS SET INFORMATION
---------------------------------
There are 2 groups of distinct atoms

 Group   1 Type Co  : 19s5p5d3f3g contracted to 8s5p5d2f3g pattern {121111111/11111/11111/21/111}
 Group   2 Type H   : 5s2p1d contracted to 3s1p1d pattern {311/2/1}

Atom   0Co   basis set group =>   1
Atom   1H    basis set group =>   2
---------------------------------
AUXILIARY/C BASIS SET INFORMATION
---------------------------------
There are 2 groups of distinct atoms

 Group   1 Type Co  : 9s9p8d7f5g3h1i contracted to 9s9p8d7f5g3h1i pattern {111111111/111111111/11111111/1111111/11111/111/1}
 Group   2 Type H   : 4s3p2d1f contracted to 4s3p2d1f pattern {1111/111/11/1}

Atom   0Co   basis set group =>   1
Atom   1H    basis set group =>   2
----------------------------------
AUXILIARY/JK BASIS SET INFORMATION
----------------------------------
There are 2 groups of distinct atoms

 Group   1 Type Co  : 19s14p12d10f7g3h1i contracted to 16s13p11d9f5g3h1i pattern {4111111111111111/2111111111111/21111111111/211111111/31111/111/1}
 Group   2 Type H   : 4s2p2d contracted to 2s2p2d pattern {31/11/11}

Atom   0Co   basis set group =>   1
Atom   1H    basis set group =>   2


           ************************************************************
           *        Program running with 24 parallel MPI-processes    *
           *              working on a common directory               *
           ************************************************************
------------------------------------------------------------------------------
                           ORCA GTO INTEGRAL CALCULATION
------------------------------------------------------------------------------

                         BASIS SET STATISTICS AND STARTUP INFO

 # of primitive gaussian shells          ...   47
 # of primitive gaussian functions       ...  127
 # of contracted shells                  ...   24
 # of contracted basis functions         ...   78
 Highest angular momentum                ...    4
 Maximum contraction depth               ...    8
 Integral package used                   ... LIBINT
 Integral threshhold            Thresh   ...  1.000e-12
 Primitive cut-off              TCut     ...  1.000e-14


------------------------------ INTEGRAL EVALUATION ----------------------------


 * One electron integrals 
 Pre-screening matrix                    ... done
 Shell pair data                         ... done (   0.000 sec)



           ************************************************************
           *        Program running with 24 parallel MPI-processes    *
           *              working on a common directory               *
           ************************************************************
-------------------------------------------------------------------------------
                                 ORCA SCF
-------------------------------------------------------------------------------

------------
SCF SETTINGS
------------
Hamiltonian:
 Ab initio Hamiltonian  Method          .... Hartree-Fock(GTOs)


General Settings:
 Integral files         IntName         .... 37_CoH
 Hartree-Fock type      HFTyp           .... UHF
 Total Charge           Charge          ....    0
 Multiplicity           Mult            ....    3
 Number of Electrons    NEL             ....   28
 Basis Dimension        Dim             ....   78
 Nuclear Repulsion      ENuc            ....      9.3955256769 Eh

Convergence Acceleration:
 DIIS                   CNVDIIS         .... on
   Start iteration      DIISMaxIt       ....    12
   Startup error        DIISStart       ....  0.200000
   # of expansion vecs  DIISMaxEq       ....     5
   Bias factor          DIISBfac        ....   1.050
   Max. coefficient     DIISMaxC        ....  10.000
 Newton-Raphson         CNVNR           .... off
 SOSCF                  CNVSOSCF        .... off
 Level Shifting         CNVShift        .... on
   Level shift para.    LevelShift      ....    0.2500
   Turn off err/grad.   ShiftErr        ....    0.0010
 Zerner damping         CNVZerner       .... off
 Static damping         CNVDamp         .... on
   Fraction old density DampFac         ....    0.7000
   Max. Damping (<1)    DampMax         ....    0.9800
   Min. Damping (>=0)   DampMin         ....    0.0000
   Turn off err/grad.   DampErr         ....    0.1000
 Fernandez-Rico         CNVRico         .... off

SCF Procedure:
 Maximum # iterations   MaxIter         ....   125
 SCF integral mode      SCFMode         .... Direct
   Integral package                     .... LIBINT
 Reset frequency        DirectResetFreq ....    20
 Integral Threshold     Thresh          ....  1.000e-12 Eh
 Primitive CutOff       TCut            ....  1.000e-14 Eh

Convergence Tolerance:
 Convergence Check Mode ConvCheckMode   .... Total+1el-Energy
 Convergence forced     ConvForced      .... 1
 Energy Change          TolE            ....  1.000e-09 Eh
 1-El. energy change                    ....  1.000e-06 Eh
 DIIS Error             TolErr          ....  1.000e-08


Diagonalization of the overlap matrix:
Smallest eigenvalue                        ... 1.102e-02
Time for diagonalization                   ...    0.019 sec
Threshold for overlap eigenvalues          ... 1.000e-08
Number of eigenvalues below threshold      ... 0
Time for construction of square roots      ...    0.006 sec
Total time needed                          ...    0.025 sec

-------------------
DFT GRID GENERATION
-------------------

General Integration Accuracy     IntAcc      ...  4.340
Radial Grid Type                 RadialGrid  ... Gauss-Chebyshev
Angular Grid (max. acc.)         AngularGrid ... Lebedev-110
Angular grid pruning method      GridPruning ... 3 (G Style)
Weight generation scheme         WeightScheme... Becke
Basis function cutoff            BFCut       ...    1.0000e-12
Integration weight cutoff        WCut        ...    1.0000e-14
Grids for H and He will be reduced by one unit

# of grid points (after initial pruning)     ...   3706 (   0.0 sec)
# of grid points (after weights+screening)   ...   3680 (   0.0 sec)
nearest neighbour list constructed           ...    0.0 sec
Grid point re-assignment to atoms done       ...    0.0 sec
Grid point division into batches done        ...    0.0 sec
Reduced shell lists constructed in    0.0 sec

Total number of grid points                  ...     3680
Total number of batches                      ...       59
Average number of points per batch           ...       62
Average number of grid points per atom       ...     1840
Average number of shells per batch           ...     7.00 (29.17%)
Average number of basis functions per batch  ...    18.00 (23.08%)
Average number of large shells per batch     ...     5.25 (75.00%)
Average number of large basis fcns per batch ...    14.25 (79.17%)
Maximum spatial batch extension              ...  37.20, 28.73, 20.01 au
Average spatial batch extension              ...   1.30,  1.32,  0.87 au

Time for grid setup =    0.018 sec

------------------------------
INITIAL GUESS: MODEL POTENTIAL
------------------------------
Loading Hartree-Fock densities                     ... done
Calculating cut-offs                               ... done
Setting up the integral package                    ... done
Initializing the effective Hamiltonian             ... done
Starting the Coulomb interaction                   ... done (   0.0 sec)
Reading the grid                                   ... done
Mapping shells                                     ... done
Starting the XC term evaluation                    ... done (   0.0 sec)
Transforming the Hamiltonian                       ... done (   0.0 sec)
Diagonalizing the Hamiltonian                      ... done (   0.0 sec)
Back transforming the eigenvectors                 ... done (   0.0 sec)
Now organizing SCF variables                       ... done
                      ------------------
                      INITIAL GUESS DONE (   0.1 sec)
                      ------------------
--------------
SCF ITERATIONS
--------------
ITER       Energy         Delta-E        Max-DP      RMS-DP      [F,P]     Damp
               ***  Starting incremental Fock matrix formation  ***
  0  -1381.7269660879   0.000000000000 0.02349030  0.00085084  0.2663513 0.7000
  1  -1381.7686635785  -0.041697490569 0.02198498  0.00055562  0.1489054 0.7000
                               ***Turning on DIIS***
  2  -1381.7914002840  -0.022736705490 0.05424717  0.00129892  0.0973667 0.0000
  3  -1381.6921179987   0.099282285278 0.01460385  0.00056072  0.0625196 0.0000
  4  -1382.3587063499  -0.666588351211 0.01014936  0.00039563  0.0492657 0.0000
  5  -1381.9179450014   0.440761348549 0.00841152  0.00032337  0.0238034 0.0000
  6  -1381.9304315526  -0.012486551279 0.00475788  0.00016961  0.0091874 0.0000
  7  -1381.8910243702   0.039407182482 0.00412635  0.00011558  0.0043366 0.0000
  8  -1381.8843851211   0.006639249010 0.00338765  0.00008765  0.0022056 0.0000
  9  -1381.8801718586   0.004213262499 0.00262468  0.00006642  0.0011757 0.0000
 10  -1381.8780255901   0.002146268499 0.00268050  0.00006913  0.0006482 0.0000
 11  -1381.8800270023  -0.002001412154 0.00098145  0.00002156  0.0002147 0.0000
 12  -1381.8815567399  -0.001529737571 0.00046494  0.00000972  0.0001366 0.0000
 13  -1381.8797708902   0.001785849690 0.00047506  0.00000990  0.0000660 0.0000
 14  -1381.8804476539  -0.000676763707 0.00033773  0.00000703  0.0000526 0.0000
 15  -1381.8806330579  -0.000185404057 0.00071165  0.00001477  0.0000427 0.0000
 16  -1381.8807405252  -0.000107467274 0.00048889  0.00001021  0.0000204 0.0000
 17  -1381.8806399258   0.000100599390 0.00004392  0.00000091  0.0000048 0.0000
 18  -1381.8805989987   0.000040927110 0.00002188  0.00000041  0.0000020 0.0000
 19  -1381.8805936673   0.000005331431 0.00001480  0.00000033  0.0000009 0.0000
               *** Restarting incremental Fock matrix formation ***
                                   *** Resetting DIIS ***
 20  -1381.8805908012   0.000002866112 0.00000127  0.00000003  0.0000011 0.0000
 21  -1381.8805774394   0.000013361742 0.00000037  0.00000001  0.0000011 0.0000
 22  -1381.8805934208  -0.000015981385 0.00000102  0.00000003  0.0000003 0.0000
 23  -1381.8805909709   0.000002449960 0.00000051  0.00000001  0.0000001 0.0000
 24  -1381.8805907226   0.000000248301 0.00000048  0.00000001  0.0000001 0.0000
                 **** Energy Check signals convergence ****

               *****************************************************
               *                     SUCCESS                       *
               *           SCF CONVERGED AFTER  25 CYCLES          *
               *****************************************************


----------------
TOTAL SCF ENERGY
----------------

Total Energy       :        -1381.88059072 Eh          -37602.88257 eV

Components:
Nuclear Repulsion  :            9.39552568 Eh             255.66525 eV
Electronic Energy  :        -1391.27611640 Eh          -37858.54782 eV
One Electron Energy:        -1938.46947989 Eh          -52748.43623 eV
Two Electron Energy:          547.19336350 Eh           14889.88841 eV

Virial components:
Potential Energy   :        -2763.58872460 Eh          -75201.07235 eV
Kinetic Energy     :         1381.70813388 Eh           37598.18978 eV
Virial Ratio       :            2.00012481


---------------
SCF CONVERGENCE
---------------

  Last Energy change         ...    7.0236e-10  Tolerance :   1.0000e-09
  Last MAX-Density change    ...    2.7708e-07  Tolerance :   1.0000e-08
  Last RMS-Density change    ...    5.4937e-09  Tolerance :   1.0000e-09
  Last DIIS Error            ...    2.8228e-08  Tolerance :   1.0000e-08

             **** THE GBW FILE WAS UPDATED (37_CoH.gbw) ****
             **** DENSITY FILE WAS UPDATED (37_CoH.scfp) ****
             **** ENERGY FILE WAS UPDATED (37_CoH.en.tmp) ****
----------------------
UHF SPIN CONTAMINATION
----------------------

Expectation value of <S**2>     :     2.057102
Ideal value S*(S+1) for S=1.0   :     2.000000
Deviation                       :     0.057102

             **** THE GBW FILE WAS UPDATED (37_CoH.gbw) ****
             **** DENSITY FILE WAS UPDATED (37_CoH.scfp) ****
----------------
ORBITAL ENERGIES
----------------
                 SPIN UP ORBITALS
  NO   OCC          E(Eh)            E(eV) 
   0   1.0000    -282.866915     -7697.2001 
   1   1.0000     -34.677373      -943.6193 
   2   1.0000     -29.932856      -814.5144 
   3   1.0000     -29.932856      -814.5144 
   4   1.0000     -29.931192      -814.4691 
   5   1.0000      -4.397079      -119.6506 
   6   1.0000      -2.913046       -79.2680 
   7   1.0000      -2.911090       -79.2148 
   8   1.0000      -2.911090       -79.2148 
   9   1.0000      -0.502320       -13.6688 
  10   1.0000      -0.499099       -13.5812 
  11   1.0000      -0.452213       -12.3053 
  12   1.0000      -0.452213       -12.3053 
  13   1.0000      -0.450373       -12.2553 
  14   1.0000      -0.305145        -8.3034 
  15   0.0000       0.033069         0.8999 
  16   0.0000       0.120570         3.2809 
  17   0.0000       0.120570         3.2809 
  18   0.0000       0.211910         5.7664 
  19   0.0000       0.267173         7.2701 
  20   0.0000       0.298832         8.1316 
  21   0.0000       0.300718         8.1829 
  22   0.0000       0.300718         8.1829 
  23   0.0000       0.302362         8.2277 
  24   0.0000       0.391819        10.6619 
  25   0.0000       0.544454        14.8153 
  26   0.0000       0.681913        18.5558 
  27   0.0000       0.681913        18.5558 
  28   0.0000       0.835746        22.7418 
  29   0.0000       1.030542        28.0425 
  30   0.0000       1.030542        28.0425 
  31   0.0000       1.203308        32.7437 
  32   0.0000       1.220521        33.2121 
  33   0.0000       1.268572        34.5196 
  34   0.0000       1.268572        34.5196 
  35   0.0000       1.301075        35.4041 
  36   0.0000       1.432697        38.9857 
  37   0.0000       2.801286        76.2269 
  38   0.0000       2.925789        79.6148 
  39   0.0000       2.925789        79.6148 
  40   0.0000       2.934487        79.8514 
  41   0.0000       3.012305        81.9690 
  42   0.0000       3.012305        81.9690 
  43   0.0000       3.028297        82.4042 
  44   0.0000       3.045304        82.8669 
  45   0.0000       3.055730        83.1506 
  46   0.0000       3.055730        83.1506 
  47   0.0000       3.220609        87.6372 
  48   0.0000       3.367615        91.6375 
  49   0.0000       3.628160        98.7273 
  50   0.0000       3.630108        98.7803 
  51   0.0000       4.055238       110.3486 
  52   0.0000       4.055238       110.3486 
  53   0.0000       4.156709       113.1098 
  54   0.0000       4.237710       115.3140 
  55   0.0000       4.237710       115.3140 
  56   0.0000       4.347806       118.3098 
  57   0.0000       4.382738       119.2604 
  58   0.0000       4.428142       120.4959 
  59   0.0000       4.428142       120.4959 
  60   0.0000       4.555474       123.9608 
  61   0.0000       5.523330       150.2975 
  62   0.0000      10.676176       290.5135 
  63   0.0000      10.677743       290.5562 
  64   0.0000      10.689005       290.8626 
  65   0.0000      10.698124       291.1107 
  66   0.0000      10.698124       291.1107 
  67   0.0000      10.715100       291.5727 
  68   0.0000      10.721263       291.7404 
  69   0.0000      10.721263       291.7404 
  70   0.0000      10.738088       292.1982 
  71   0.0000      11.279669       306.9354 
  72   0.0000      11.279669       306.9354 
  73   0.0000      11.299634       307.4787 
  74   0.0000      11.334026       308.4145 
  75   0.0000      11.401224       310.2431 
  76   0.0000      11.401224       310.2431 
  77   0.0000      11.652533       317.0815 

                 SPIN DOWN ORBITALS
  NO   OCC          E(Eh)            E(eV) 
   0   1.0000    -282.865217     -7697.1539 
   1   1.0000     -34.614468      -941.9076 
   2   1.0000     -29.872512      -812.8724 
   3   1.0000     -29.870882      -812.8280 
   4   1.0000     -29.870882      -812.8280 
   5   1.0000      -4.221422      -114.8707 
   6   1.0000      -2.702454       -73.5375 
   7   1.0000      -2.701250       -73.5047 
   8   1.0000      -2.701250       -73.5047 
   9   1.0000      -0.385643       -10.4939 
  10   1.0000      -0.380980       -10.3670 
  11   1.0000      -0.380467       -10.3530 
  12   1.0000      -0.380467       -10.3530 
  13   0.0000       0.029010         0.7894 
  14   0.0000       0.143666         3.9094 
  15   0.0000       0.143666         3.9094 
  16   0.0000       0.193817         5.2740 
  17   0.0000       0.254924         6.9368 
  18   0.0000       0.260259         7.0820 
  19   0.0000       0.307785         8.3753 
  20   0.0000       0.307785         8.3753 
  21   0.0000       0.310999         8.4627 
  22   0.0000       0.364475         9.9179 
  23   0.0000       0.486721        13.2443 
  24   0.0000       0.490541        13.3483 
  25   0.0000       0.548739        14.9319 
  26   0.0000       0.711111        19.3503 
  27   0.0000       0.711111        19.3503 
  28   0.0000       0.865123        23.5412 
  29   0.0000       1.021283        27.7905 
  30   0.0000       1.021283        27.7905 
  31   0.0000       1.243746        33.8440 
  32   0.0000       1.287690        35.0398 
  33   0.0000       1.287690        35.0398 
  34   0.0000       1.355436        36.8833 
  35   0.0000       1.373543        37.3760 
  36   0.0000       1.471793        40.0495 
  37   0.0000       2.841972        77.3340 
  38   0.0000       2.917652        79.3933 
  39   0.0000       2.967970        80.7626 
  40   0.0000       2.967970        80.7626 
  41   0.0000       3.050413        83.0060 
  42   0.0000       3.076333        83.7113 
  43   0.0000       3.076333        83.7113 
  44   0.0000       3.087491        84.0149 
  45   0.0000       3.155340        85.8612 
  46   0.0000       3.155340        85.8612 
  47   0.0000       3.278920        89.2240 
  48   0.0000       3.434187        93.4490 
  49   0.0000       3.619887        98.5021 
  50   0.0000       3.623698        98.6058 
  51   0.0000       4.053475       110.3007 
  52   0.0000       4.053475       110.3007 
  53   0.0000       4.241358       115.4132 
  54   0.0000       4.241358       115.4132 
  55   0.0000       4.270846       116.2156 
  56   0.0000       4.416571       120.1810 
  57   0.0000       4.458168       121.3129 
  58   0.0000       4.458168       121.3129 
  59   0.0000       4.520458       123.0079 
  60   0.0000       4.566902       124.2717 
  61   0.0000       5.575700       151.7225 
  62   0.0000      10.751537       292.5642 
  63   0.0000      10.752350       292.5863 
  64   0.0000      10.752350       292.5863 
  65   0.0000      10.763945       292.9018 
  66   0.0000      10.765255       292.9375 
  67   0.0000      10.765372       292.9407 
  68   0.0000      10.790466       293.6235 
  69   0.0000      10.790466       293.6235 
  70   0.0000      10.828109       294.6478 
  71   0.0000      11.359190       309.0993 
  72   0.0000      11.411715       310.5285 
  73   0.0000      11.424646       310.8804 
  74   0.0000      11.424646       310.8804 
  75   0.0000      11.532550       313.8166 
  76   0.0000      11.532550       313.8166 
  77   0.0000      11.812821       321.4432 

                    ********************************
                    * MULLIKEN POPULATION ANALYSIS *
                    ********************************

--------------------------------------------
MULLIKEN ATOMIC CHARGES AND SPIN POPULATIONS
--------------------------------------------
   0 Co:    0.335618    2.206006
   1 H :   -0.335618   -0.206006
Sum of atomic charges         :   -0.0000000
Sum of atomic spin populations:    2.0000000

-----------------------------------------------------
MULLIKEN REDUCED ORBITAL CHARGES AND SPIN POPULATIONS
-----------------------------------------------------
CHARGE
  0 Cos       :     6.558010  s :     6.558010
      pz      :     4.100421  p :    12.102088
      px      :     4.000834
      py      :     4.000834
      dz2     :     1.007453  d :     8.002600
      dxz     :     1.997622
      dyz     :     1.997622
      dx2y2   :     0.999970
      dxy     :     1.999932
      f0      :     0.000768  f :     0.001631
      f+1     :     0.000181
      f-1     :     0.000181
      f+2     :     0.000030
      f-2     :     0.000065
      f+3     :     0.000203
      f-3     :     0.000203
      g0      :     0.000020  g :     0.000053
      g+1     :     0.000000
      g-1     :     0.000000
      g+2     :     0.000005
      g-2     :     0.000004
      g+3     :     0.000004
      g-3     :     0.000004
      g+4     :     0.000016
      g-4     :     0.000000
  1 H s       :     1.327844  s :     1.327844
      pz      :     0.005153  p :     0.006933
      px      :     0.000890
      py      :     0.000890
      dz2     :     0.000316  d :     0.000841
      dxz     :     0.000266
      dyz     :     0.000266
      dx2y2   :    -0.000006
      dxy     :    -0.000001

SPIN
  0 Cos       :     0.282758  s :     0.282758
      pz      :    -0.001177  p :    -0.001389
      px      :    -0.000106
      py      :    -0.000106
      dz2     :     0.923313  d :     1.925514
      dxz     :     0.001108
      dyz     :     0.001108
      dx2y2   :     0.999970
      dxy     :     0.000013
      f0      :    -0.000324  f :    -0.000872
      f+1     :    -0.000104
      f-1     :    -0.000104
      f+2     :     0.000030
      f-2     :    -0.000003
      f+3     :    -0.000183
      f-3     :    -0.000183
      g0      :    -0.000003  g :    -0.000004
      g+1     :    -0.000000
      g-1     :    -0.000000
      g+2     :     0.000005
      g-2     :    -0.000001
      g+3     :    -0.000001
      g-3     :    -0.000001
      g+4     :    -0.000003
      g-4     :    -0.000000
  1 H s       :    -0.205644  s :    -0.205644
      pz      :     0.000801  p :    -0.000578
      px      :    -0.000689
      py      :    -0.000689
      dz2     :     0.000278  d :     0.000215
      dxz     :    -0.000024
      dyz     :    -0.000024
      dx2y2   :    -0.000006
      dxy     :    -0.000009


                     *******************************
                     * LOEWDIN POPULATION ANALYSIS *
                     *******************************

-------------------------------------------
LOEWDIN ATOMIC CHARGES AND SPIN POPULATIONS
-------------------------------------------
   0 Co:    0.236668    2.089917
   1 H :   -0.236668   -0.089917

----------------------------------------------------
LOEWDIN REDUCED ORBITAL CHARGES AND SPIN POPULATIONS
----------------------------------------------------
CHARGE
  0 Cos       :     6.593235  s :     6.593235
      pz      :     4.163304  p :    12.165449
      px      :     4.001073
      py      :     4.001073
      dz2     :     1.042055  d :     8.001794
      dxz     :     1.980104
      dyz     :     1.980104
      dx2y2   :     0.999863
      dxy     :     1.999668
      f0      :     0.001691  f :     0.002796
      f+1     :     0.000301
      f-1     :     0.000301
      f+2     :     0.000031
      f-2     :     0.000067
      f+3     :     0.000203
      f-3     :     0.000203
      g0      :     0.000024  g :     0.000058
      g+1     :     0.000001
      g-1     :     0.000001
      g+2     :     0.000005
      g-2     :     0.000004
      g+3     :     0.000004
      g-3     :     0.000004
      g+4     :     0.000016
      g-4     :     0.000000
  1 H s       :     1.161126  s :     1.161126
      pz      :     0.031328  p :     0.059247
      px      :     0.013960
      py      :     0.013960
      dz2     :     0.007222  d :     0.016295
      dxz     :     0.004356
      dyz     :     0.004356
      dx2y2   :     0.000101
      dxy     :     0.000261

SPIN
  0 Cos       :     0.235702  s :     0.235702
      pz      :    -0.040433  p :    -0.040954
      px      :    -0.000261
      py      :    -0.000261
      dz2     :     0.891790  d :     1.896460
      dxz     :     0.002389
      dyz     :     0.002389
      dx2y2   :     0.999863
      dxy     :     0.000029
      f0      :    -0.000717  f :    -0.001278
      f+1     :    -0.000111
      f-1     :    -0.000111
      f+2     :     0.000031
      f-2     :    -0.000003
      f+3     :    -0.000183
      f-3     :    -0.000183
      g0      :    -0.000011  g :    -0.000013
      g+1     :    -0.000001
      g-1     :    -0.000001
      g+2     :     0.000005
      g-2     :    -0.000001
      g+3     :    -0.000001
      g-3     :    -0.000001
      g+4     :    -0.000003
      g-4     :    -0.000000
  1 H s       :    -0.093816  s :    -0.093816
      pz      :     0.004692  p :     0.001390
      px      :    -0.001651
      py      :    -0.001651
      dz2     :     0.002794  d :     0.002508
      dxz     :    -0.000181
      dyz     :    -0.000181
      dx2y2   :     0.000101
      dxy     :    -0.000025


                      *****************************
                      * MAYER POPULATION ANALYSIS *
                      *****************************

  NA   - Mulliken gross atomic population
  ZA   - Total nuclear charge
  QA   - Mulliken gross atomic charge
  VA   - Mayer's total valence
  BVA  - Mayer's bonded valence
  FA   - Mayer's free valence

  ATOM       NA         ZA         QA         VA         BVA        FA
  0 Co    26.6644    27.0000     0.3356     2.9077     0.8702     2.0376
  1 H      1.3356     1.0000    -0.3356     0.9195     0.8702     0.0493

  Mayer bond orders larger than 0.100000
B(  0-Co,  1-H ) :   0.8702 

-------
TIMINGS
-------

Total SCF time: 0 days 0 hours 0 min 3 sec 

Total time                  ....       3.254 sec
Sum of individual times     ....       2.990 sec  ( 91.9%)

Fock matrix formation       ....       2.778 sec  ( 85.4%)
Diagonalization             ....       0.045 sec  (  1.4%)
Density matrix formation    ....       0.009 sec  (  0.3%)
Population analysis         ....       0.004 sec  (  0.1%)
Initial guess               ....       0.111 sec  (  3.4%)
Orbital Transformation      ....       0.000 sec  (  0.0%)
Orbital Orthonormalization  ....       0.000 sec  (  0.0%)
DIIS solution               ....       0.025 sec  (  0.8%)


           ************************************************************
           *        Program running with 24 parallel MPI-processes    *
           *              working on a common directory               *
           ************************************************************


------------------------------------------------------------------------------- 
                              ORCA-MATRIX DRIVEN CI                            
------------------------------------------------------------------------------- 

--------------------------------
AUTOMATIC CHOICE OF INCORE LEVEL
--------------------------------

Memory available                           ...   2500.00 MB
Memory needed for S+T                      ...      5.00 MB
Memory needed for J+K                      ...     10.05 MB
Memory needed for DIIS                     ...     69.95 MB
Memory needed for 3-ext                    ...     19.08 MB
Memory needed for 4-ext                    ...     61.05 MB
Memory needed for triples                  ...      9.54 MB
 -> Final InCoreLevel    ... 5
 -> check shows that triples correction can be computed


Wavefunction type
-----------------
Correlation treatment                      ...      CCSD     
Single excitations                         ... ON
Orbital optimization                       ... OFF
Calculation of Z vector                    ... OFF
Calculation of Brueckner orbitals          ... OFF
Perturbative triple excitations            ... ON
Calculation of F12 correction              ... OFF
Frozen core treatment                      ... chemical core (10 el)
Reference Wavefunction                     ... UHF
  Alpha-MOs occ    :     5 ...   14 ( 10 MO's/ 10 electrons)
  Beta-MOs occ     :     5 ...   12 (  8 MO's/  8 electrons)
  Alpha-MOs virt   :    15 ...   77 ( 63 MO's              )
  Beta-MOs virt    :    13 ...   77 ( 65 MO's              )
Number of AO's                             ...     78
Number of electrons                        ...     28
Number of correlated electrons             ...     18

Algorithmic settings
--------------------
Integral transformation                    ... AO direct full transformation
K(C) Formation                             ... FULL-MO TRAFO
Maximum number of iterations               ...        50
Convergence tolerance (max. residuum)      ... 1.000e-06
Level shift for amplitude update           ... 2.000e-01
Maximum number of DIIS vectors             ...         7
DIIS turned on at iteration                ...         0
Damping before turning on DIIS             ...     0.500
Damping after turning on DIIS              ...     0.000
Pair specific amplitude update             ... OFF
Natural orbital iterations                 ... OFF
Perturbative natural orbital generation    ... OFF
Printlevel                                 ... 2

Memory handling:
----------------
Maximum memory for working arrays          ...   2500 MB
Data storage in matrix containers          ... UNCOMPRESSED
Data type for integral storage             ... DOUBLE
In-Core Storage of quantities:
   Amplitudes+Sigma Vector      ... YES
   J+K operators                ... YES
   DIIS vectors                 ... YES
   3-external integrals         ... YES
   4-external integrals         ... YES


Initializing the integral package          ... done
Warning: reference  - re-canonicalizations have been set to INT 1 VIRT 1

--------------------------
UNRESTRICTED FOCK OPERATOR
--------------------------

<ss|ss>:         1035 b            0 skpd (  0.0%)    0.000 s ( 0.000 ms/b)
<ss|sp>:         2835 b            0 skpd (  0.0%)    0.001 s ( 0.000 ms/b)
<ss|sd>:         2025 b            0 skpd (  0.0%)    0.001 s ( 0.000 ms/b)
<ss|sf>:          810 b            0 skpd (  0.0%)    0.000 s ( 0.000 ms/b)
<ss|sg>:          405 b            0 skpd (  0.0%)    0.000 s ( 0.001 ms/b)
<ss|pp>:         1260 b            0 skpd (  0.0%)    0.001 s ( 0.001 ms/b)
<ss|pd>:         1575 b            0 skpd (  0.0%)    0.001 s ( 0.001 ms/b)
<ss|pf>:          630 b            0 skpd (  0.0%)    0.000 s ( 0.001 ms/b)
<ss|pg>:          315 b            0 skpd (  0.0%)    0.000 s ( 0.002 ms/b)
<ss|dd>:          675 b            0 skpd (  0.0%)    0.001 s ( 0.001 ms/b)
<ss|df>:          450 b            0 skpd (  0.0%)    0.000 s ( 0.001 ms/b)
<ss|dg>:          225 b            0 skpd (  0.0%)    0.001 s ( 0.002 ms/b)
<ss|ff>:          135 b            0 skpd (  0.0%)    0.000 s ( 0.002 ms/b)
<ss|fg>:           90 b            0 skpd (  0.0%)    0.000 s ( 0.004 ms/b)
<ss|gg>:           45 b            0 skpd (  0.0%)    0.000 s ( 0.009 ms/b)
<sp|sp>:         2016 b            0 skpd (  0.0%)    0.001 s ( 0.001 ms/b)
<sp|sd>:         2835 b            0 skpd (  0.0%)    0.001 s ( 0.000 ms/b)
<sp|sf>:         1134 b            0 skpd (  0.0%)    0.000 s ( 0.000 ms/b)
<sp|sg>:          567 b            0 skpd (  0.0%)    0.001 s ( 0.001 ms/b)
<sp|pp>:         1764 b            0 skpd (  0.0%)    0.002 s ( 0.001 ms/b)
<sp|pd>:         2205 b            0 skpd (  0.0%)    0.002 s ( 0.001 ms/b)
<sp|pf>:          882 b            0 skpd (  0.0%)    0.001 s ( 0.001 ms/b)
<sp|pg>:          441 b            0 skpd (  0.0%)    0.001 s ( 0.003 ms/b)
<sp|dd>:          945 b            0 skpd (  0.0%)    0.002 s ( 0.002 ms/b)
<sp|df>:          630 b            0 skpd (  0.0%)    0.001 s ( 0.002 ms/b)
<sp|dg>:          315 b            0 skpd (  0.0%)    0.001 s ( 0.004 ms/b)
<sp|ff>:          189 b            0 skpd (  0.0%)    0.001 s ( 0.003 ms/b)
<sp|fg>:          126 b            0 skpd (  0.0%)    0.001 s ( 0.007 ms/b)
<sp|gg>:           63 b            0 skpd (  0.0%)    0.001 s ( 0.020 ms/b)
<sd|sd>:         1035 b            0 skpd (  0.0%)    0.001 s ( 0.001 ms/b)
<sd|sf>:          810 b            0 skpd (  0.0%)    0.001 s ( 0.001 ms/b)
<sd|sg>:          405 b            0 skpd (  0.0%)    0.001 s ( 0.002 ms/b)
<sd|pp>:         1260 b            0 skpd (  0.0%)    0.002 s ( 0.002 ms/b)
<sd|pd>:         1575 b            0 skpd (  0.0%)    0.002 s ( 0.002 ms/b)
<sd|pf>:          630 b            0 skpd (  0.0%)    0.001 s ( 0.002 ms/b)
<sd|pg>:          315 b            0 skpd (  0.0%)    0.002 s ( 0.005 ms/b)
<sd|dd>:          675 b            0 skpd (  0.0%)    0.003 s ( 0.004 ms/b)
<sd|df>:          450 b            0 skpd (  0.0%)    0.001 s ( 0.003 ms/b)
<sd|dg>:          225 b            0 skpd (  0.0%)    0.002 s ( 0.010 ms/b)
<sd|ff>:          135 b            0 skpd (  0.0%)    0.001 s ( 0.007 ms/b)
<sd|fg>:           90 b            0 skpd (  0.0%)    0.001 s ( 0.015 ms/b)
<sd|gg>:           45 b            0 skpd (  0.0%)    0.002 s ( 0.043 ms/b)
<sf|sf>:          171 b            0 skpd (  0.0%)    0.000 s ( 0.001 ms/b)
<sf|sg>:          162 b            0 skpd (  0.0%)    0.001 s ( 0.003 ms/b)
<sf|pp>:          504 b            0 skpd (  0.0%)    0.001 s ( 0.002 ms/b)
<sf|pd>:          630 b            0 skpd (  0.0%)    0.001 s ( 0.002 ms/b)
<sf|pf>:          252 b            0 skpd (  0.0%)    0.001 s ( 0.002 ms/b)
<sf|pg>:          126 b            0 skpd (  0.0%)    0.001 s ( 0.008 ms/b)
<sf|dd>:          270 b            0 skpd (  0.0%)    0.002 s ( 0.006 ms/b)
<sf|df>:          180 b            0 skpd (  0.0%)    0.001 s ( 0.005 ms/b)
<sf|dg>:           90 b            0 skpd (  0.0%)    0.001 s ( 0.015 ms/b)
<sf|ff>:           54 b            0 skpd (  0.0%)    0.001 s ( 0.014 ms/b)
<sf|fg>:           36 b            0 skpd (  0.0%)    0.001 s ( 0.026 ms/b)
<sf|gg>:           18 b            0 skpd (  0.0%)    0.001 s ( 0.067 ms/b)
<sg|sg>:           45 b            0 skpd (  0.0%)    0.000 s ( 0.004 ms/b)
<sg|pp>:          252 b            0 skpd (  0.0%)    0.001 s ( 0.005 ms/b)
<sg|pd>:          315 b            0 skpd (  0.0%)    0.001 s ( 0.004 ms/b)
<sg|pf>:          126 b            0 skpd (  0.0%)    0.001 s ( 0.004 ms/b)
<sg|pg>:           63 b            0 skpd (  0.0%)    0.001 s ( 0.017 ms/b)
<sg|dd>:          135 b            0 skpd (  0.0%)    0.002 s ( 0.011 ms/b)
<sg|df>:           90 b            0 skpd (  0.0%)    0.001 s ( 0.009 ms/b)
<sg|dg>:           45 b            0 skpd (  0.0%)    0.001 s ( 0.031 ms/b)
<sg|ff>:           27 b            0 skpd (  0.0%)    0.001 s ( 0.019 ms/b)
<sg|fg>:           18 b            0 skpd (  0.0%)    0.001 s ( 0.047 ms/b)
<sg|gg>:            9 b            0 skpd (  0.0%)    0.001 s ( 0.126 ms/b)
<pp|pp>:          406 b            0 skpd (  0.0%)    0.001 s ( 0.003 ms/b)
<pp|pd>:          980 b            0 skpd (  0.0%)    0.002 s ( 0.002 ms/b)
<pp|pf>:          392 b            0 skpd (  0.0%)    0.001 s ( 0.002 ms/b)
<pp|pg>:          196 b            0 skpd (  0.0%)    0.001 s ( 0.007 ms/b)
<pp|dd>:          420 b            0 skpd (  0.0%)    0.002 s ( 0.005 ms/b)
<pp|df>:          280 b            0 skpd (  0.0%)    0.001 s ( 0.004 ms/b)
<pp|dg>:          140 b            0 skpd (  0.0%)    0.002 s ( 0.012 ms/b)
<pp|ff>:           84 b            0 skpd (  0.0%)    0.001 s ( 0.010 ms/b)
<pp|fg>:           56 b            0 skpd (  0.0%)    0.001 s ( 0.022 ms/b)
<pp|gg>:           28 b            0 skpd (  0.0%)    0.002 s ( 0.058 ms/b)
<pd|pd>:          630 b            0 skpd (  0.0%)    0.003 s ( 0.005 ms/b)
<pd|pf>:          490 b            0 skpd (  0.0%)    0.002 s ( 0.004 ms/b)
<pd|pg>:          245 b            0 skpd (  0.0%)    0.003 s ( 0.012 ms/b)
<pd|dd>:          525 b            0 skpd (  0.0%)    0.004 s ( 0.008 ms/b)
<pd|df>:          350 b            0 skpd (  0.0%)    0.003 s ( 0.008 ms/b)
<pd|dg>:          175 b            0 skpd (  0.0%)    0.004 s ( 0.023 ms/b)
<pd|ff>:          105 b            0 skpd (  0.0%)    0.002 s ( 0.018 ms/b)
<pd|fg>:           70 b            0 skpd (  0.0%)    0.003 s ( 0.040 ms/b)
<pd|gg>:           35 b            0 skpd (  0.0%)    0.004 s ( 0.110 ms/b)
<pf|pf>:          105 b            0 skpd (  0.0%)    0.001 s ( 0.006 ms/b)
<pf|pg>:           98 b            0 skpd (  0.0%)    0.002 s ( 0.016 ms/b)
<pf|dd>:          210 b            0 skpd (  0.0%)    0.002 s ( 0.010 ms/b)
<pf|df>:          140 b            0 skpd (  0.0%)    0.001 s ( 0.010 ms/b)
<pf|dg>:           70 b            0 skpd (  0.0%)    0.002 s ( 0.030 ms/b)
<pf|ff>:           42 b            0 skpd (  0.0%)    0.001 s ( 0.034 ms/b)
<pf|fg>:           28 b            0 skpd (  0.0%)    0.002 s ( 0.063 ms/b)
<pf|gg>:           14 b            0 skpd (  0.0%)    0.002 s ( 0.157 ms/b)
<pg|pg>:           28 b            0 skpd (  0.0%)    0.001 s ( 0.029 ms/b)
<pg|dd>:          105 b            0 skpd (  0.0%)    0.002 s ( 0.021 ms/b)
<pg|df>:           70 b            0 skpd (  0.0%)    0.001 s ( 0.017 ms/b)
<pg|dg>:           35 b            0 skpd (  0.0%)    0.002 s ( 0.058 ms/b)
<pg|ff>:           21 b            0 skpd (  0.0%)    0.001 s ( 0.039 ms/b)
<pg|fg>:           14 b            0 skpd (  0.0%)    0.001 s ( 0.104 ms/b)
<pg|gg>:            7 b            0 skpd (  0.0%)    0.002 s ( 0.259 ms/b)
<dd|dd>:          120 b            0 skpd (  0.0%)    0.003 s ( 0.027 ms/b)
<dd|df>:          150 b            0 skpd (  0.0%)    0.002 s ( 0.014 ms/b)
<dd|dg>:           75 b            0 skpd (  0.0%)    0.003 s ( 0.042 ms/b)
<dd|ff>:           45 b            0 skpd (  0.0%)    0.002 s ( 0.034 ms/b)
<dd|fg>:           30 b            0 skpd (  0.0%)    0.002 s ( 0.074 ms/b)
<dd|gg>:           15 b            0 skpd (  0.0%)    0.003 s ( 0.202 ms/b)
<df|df>:           55 b            0 skpd (  0.0%)    0.002 s ( 0.032 ms/b)
<df|dg>:           50 b            0 skpd (  0.0%)    0.003 s ( 0.052 ms/b)
<df|ff>:           30 b            0 skpd (  0.0%)    0.002 s ( 0.060 ms/b)
<df|fg>:           20 b            0 skpd (  0.0%)    0.002 s ( 0.113 ms/b)
<df|gg>:           10 b            0 skpd (  0.0%)    0.003 s ( 0.290 ms/b)
<dg|dg>:           15 b            0 skpd (  0.0%)    0.002 s ( 0.124 ms/b)
<dg|ff>:           15 b            0 skpd (  0.0%)    0.001 s ( 0.069 ms/b)
<dg|fg>:           10 b            0 skpd (  0.0%)    0.002 s ( 0.174 ms/b)
<dg|gg>:            5 b            0 skpd (  0.0%)    0.002 s ( 0.445 ms/b)
<ff|ff>:            6 b            0 skpd (  0.0%)    0.001 s ( 0.090 ms/b)
<ff|fg>:            6 b            0 skpd (  0.0%)    0.001 s ( 0.171 ms/b)
<ff|gg>:            3 b            0 skpd (  0.0%)    0.001 s ( 0.469 ms/b)
<fg|fg>:            3 b            0 skpd (  0.0%)    0.001 s ( 0.321 ms/b)
<fg|gg>:            2 b            0 skpd (  0.0%)    0.002 s ( 0.764 ms/b)
<gg|gg>:            1 b            0 skpd (  0.0%)    0.002 s ( 1.619 ms/b)
Recanonicalizing the internal orbitals
Recanonicalizing the virtual orbitals
Time needed for Fock operator              ...            0.236 sec
Reference energy                           ...  -1381.880590801
Warning: for UHF the TrafoType has to be JK
Warning: for UHF the K(C)-option cannot be MO but must be AOX

-------------------------------
PARTIAL EXCHANGE TRANSFORMATION
-------------------------------

Transformation type                        ... two-operators
Generation of integrals (i,mue|j,nue)      ... ON
Generation of integrals (mue,kappa|nue,tau)... ON
Generation of integrals (i,mue|a,nue)      ... ON
Dimension of the basis                     ...   78
Number of internal alpha-MOs               ...   10 (   5-  14)
Number of internal beta-MOs                ...    8 (   5-  12)
Number of external alpha-MOs               ...   63 (  15-  77)
Number of external beta-MOs                ...   65 (  13-  77)
Pair cutoff                                ... 0.000e+00 Eh
Number of AO pairs in the trafo            ... 3081
Total Number of distinct AO pairs          ... 3081
Memory devoted for trafo                   ... 2500.0 MB 
Max. Number of MO pairs treated together   ... 53859      
Number Format for Storage                  ... Double (8 Byte)
Integral package used                      ... LIBINT

Starting integral evaluation:
    ... done with AO integral generation
Closing buffer AOK[aa] ( 0.00 GB; CompressionRatio= 0.99)
Closing buffer AOK[bb] ( 0.00 GB; CompressionRatio= 0.98)
Closing buffer AOK[ab] ( 0.00 GB; CompressionRatio= 0.98)
Closing buffer AOK[ba] ( 0.00 GB; CompressionRatio= 0.98)
Collecting buffer AOK 
Closing buffer IAAO1[aa] ( 0.00 GB; CompressionRatio= 1.00)
Closing buffer IAAO1[bb] ( 0.00 GB; CompressionRatio= 1.00)
Closing buffer IAAO1[ab] ( 0.00 GB; CompressionRatio= 1.00)
Closing buffer IAAO1[ba] ( 0.00 GB; CompressionRatio= 1.00)
Closing buffer IAAO2[aa] ( 0.00 GB; CompressionRatio= 1.00)
Closing buffer IAAO2[bb] ( 0.00 GB; CompressionRatio= 1.00)
Closing buffer IAAO2[ab] ( 0.00 GB; CompressionRatio= 1.00)
Closing buffer IAAO2[ba] ( 0.00 GB; CompressionRatio= 1.00)
Collecting buffer IAAO 
Closing buffer PRQS    ( 0.00 GB; CompressionRatio= 1.00)
Collecting buffer PRQS 
Number of alpha/alpha MO pairs in trafo    ...   55
Number of beta /beta  MO pairs in trafo    ...   36
Number of alpha/ beta MO pairs in trafo    ...   80
------------------------
SORTING OF (i,mue|j,nue)
------------------------

SORTING OF ALPHA/ALPHA PAIRS
IBATCH = 1 of  1
Closing buffer KAO[aa] ( 0.00 GB; CompressionRatio= 1.00)
Collecting buffer KAO 
SORTING OF BETA /BETA  PAIRS
IBATCH = 1 of  1
Closing buffer KAO[bb] ( 0.00 GB; CompressionRatio= 1.00)
Collecting buffer KAO 
SORTING OF ALPHA/BETA  PAIRS
IBATCH = 1 of  1
Closing buffer KAO[ab] ( 0.00 GB; CompressionRatio= 0.999753512448)
Collecting buffer KAO[ab] 
------------------------
SORTING OF (i,mue|a,nue)
------------------------

Number of alpha/alpha (i,a) pairs in trafo  ...  630
Number of beta /beta  (i,a) pairs in trafo  ...  520
Number of alpha/ beta (i,a) pairs in trafo  ...  650
Number of beta /alpha (i,a) pairs in trafo  ...  504
Setting up the alpha/alpha list             ... done
Setting up the beta /beta  list             ... done
Setting up the alpha/beta  list             ... done
Setting up the beta /alpha list             ... done
    ... Now sorting (i,mue|a,nue)integrals
    ... Integrals (i,b|a,c) will be made on the fly
SORTING OF ALPHA/ALPHA PAIRS
IBATCH = 1 of  1
Closing buffer IPAQ[aa]  0.00 GB; CompressionRatio= 1.00)
SORTING OF BETA /BETA  PAIRS
IBATCH = 1 of  1
Closing buffer IPAQ[bb]( 0.00 GB; CompressionRatio= 1.00)
SORTING OF ALPHA/BETA  PAIRS (NMatSort_ab=28)
IBATCH = 1 of  1
Closing buffer IPAQ[ab]( 0.00 GB; CompressionRatio= 1.00)
SORTING OF BETA/ALPHA  PAIRS
IBATCH = 1 of  1
Closing buffer IPAQ[ba]( 0.00 GB; CompressionRatio= 1.00)
N(AO-Batches) Done                         ...       576 
N(AO-Batches) Skipped                      ...         0 
N(IJ)-pairs Skipped                        ...         0 
TOTAL TIME for half transformation         ...     0.607 sec
AO-integral generation                     ...     0.006 sec
Half transformation                        ...     0.001 sec
K-integral sorting                         ...     0.327 sec
<ss|**>: 
------------------------------
PARTIAL COULOMB TRANSFORMATION
------------------------------

Transformation type                        ... two-operators
Dimension of the basis                     ...   78
Number of internal alpha-MOs               ...   10 (5-14)
Number of internal beta-MOs                ...    8 (5-12)
Pair cutoff                                ... 0.000e+00 Eh
Number of AO pairs included in the trafo   ... 3081
Total Number of distinct AO pairs          ... 3081
Memory devoted for trafo                   ... 2500.0 MB 
Max. Number of MO pairs treated together   ... 106355      
Max. Number of MOs treated per batch       ... 1363      
Number Format for Storage                  ... Double (8 Byte)
AO-integral source                         ... DIRECT
Integral package used                      ... LIBINT

Starting integral evaluation:
       13500 b        0 skpd     0.002 s (  0.000 ms/b)
<sp|**>: <sd|**>:        18900 b        0 skpd     0.011 s (  0.001 ms/b)
       13500 b        0 skpd     0.013 s (  0.001 ms/b)
<sf|**>:         5400 b        0 skpd     0.007 s (  0.001 ms/b)
<sg|**>:         2700 b        0 skpd     0.012 s (  0.005 ms/b)
<pp|**>:         8400 b        0 skpd     0.018 s (  0.002 ms/b)
<pd|**>:        10500 b        0 skpd     0.023 s (  0.002 ms/b)
<pf|**>:         4200 b        0 skpd     0.011 s (  0.003 ms/b)
<pg|**>:         2100 b        0 skpd     0.019 s (  0.009 ms/b)
<dd|**>:         4500 b        0 skpd     0.028 s (  0.006 ms/b)
<df|**>:         3000 b        0 skpd     0.015 s (  0.005 ms/b)
<dg|**>:         1500 b        0 skpd     0.024 s (  0.016 ms/b)
<ff|**>:          900 b        0 skpd     0.011 s (  0.012 ms/b)
<fg|**>:          600 b        0 skpd     0.016 s (  0.026 ms/b)
<gg|**>:          300 b        0 skpd     0.023 s (  0.077 ms/b)
Closing buffer AOJ[aa] ( 0.00 GB; CompressionRatio= 0.97)
Closing buffer AOJ[bb] ( 0.00 GB; CompressionRatio= 0.00)
Collecting buffer AOJ 
    ... done with AO integral generation
Number of Alpha-MO pairs included          ...   55
Number of Beta-MO pairs included           ...   36
    ... Now sorting integrals
SORTING ALPHA/ALPHA PAIRS
IBATCH = 1 of  1
Closing buffer JAO[aa] ( 0.00 GB; CompressionRatio= 1.00)
SORTING BETA/BETA PAIRS
IBATCH = 1 of  1
Closing buffer JAO[bb] ( 0.00 GB; CompressionRatio= 1.00)
Collecting buffer JAO 
TOTAL TIME for half transformation         ...     0.249 sec
AO-integral generation                     ...     0.232 sec
Half transformation                        ...     0.005 sec
J-integral sorting                         ...     0.008 sec

-------------------------- SECOND HALF TRANSFORMATION -------------------------
Formation of (ij|kl),(ij|ka), (ij|ab)      ... ok (     0.027 sec)
Formation of (ik|jl),(ik|ja), (ia|jb)      ... ok (     0.044 sec)


-----------------------
SPIN UNRESTRICTED GUESS
-----------------------

Entering MDCI_UHF_Guess, Tailored=0
Spin-components of the MP2 energy:
EMP2(aa)=     -0.147143550
EMP2(bb)=     -0.080579673
EMP2(ab)=     -0.471336881

Initial guess performed in     0.016 sec
E(0)                                       ...  -1381.880590801
E(MP2)                                     ...     -0.699060104
Initial E(tot)                             ...  -1382.579650905
<T|T>                                      ...      0.120751873
Number of pairs included                   ... 153

------------------------------------------------
                  UHF COUPLED CLUSTER ITERATIONS
------------------------------------------------

Number of amplitudes to be optimized       ...       476591

Iter       E(tot)           E(Corr)          Delta-E          Residual     Time      <S|S>**1/2
  0  -1382.579650905     -0.699060104      0.000000000      0.030403668    0.43      0.000000148
                           *** Turning on DIIS ***
  1  -1382.494842897     -0.614252096      0.084808008      0.011343542    0.46      0.079227055
  2  -1382.525601206     -0.645010405     -0.030758309      0.007223071    0.46      0.068468513
  3  -1382.526852325     -0.646261524     -0.001251119      0.005971570    0.45      0.087707628
  4  -1382.529187209     -0.648596408     -0.002334883      0.004467692    0.46      0.100609752
  5  -1382.531120367     -0.650529566     -0.001933159      0.002757135    0.49      0.118971312
  6  -1382.531587591     -0.650996789     -0.000467223      0.002189491    0.50      0.129226160
  7  -1382.531864530     -0.651273729     -0.000276939      0.001320142    0.50      0.137078293
  8  -1382.532036625     -0.651445824     -0.000172095      0.000839941    0.46      0.141571257
  9  -1382.532054981     -0.651464179     -0.000018356      0.000403428    0.46      0.143473209
 10  -1382.532119340     -0.651528539     -0.000064359      0.000229287    0.46      0.145204824
 11  -1382.532094901     -0.651504100      0.000024438      0.000151838    0.46      0.145601226
 12  -1382.532083059     -0.651492258      0.000011843      0.000093547    0.46      0.146032118
 13  -1382.532094926     -0.651504125     -0.000011867      0.000052720    0.46      0.146203001
 14  -1382.532095465     -0.651504664     -0.000000539      0.000022817    0.47      0.146442209
 15  -1382.532099065     -0.651508264     -0.000003600      0.000014029    0.49      0.146546339
 16  -1382.532098566     -0.651507764      0.000000500      0.000006960    0.50      0.146557844
 17  -1382.532097679     -0.651506877      0.000000887      0.000004135    0.47      0.146560453
 18  -1382.532097404     -0.651506602      0.000000275      0.000002292    0.46      0.146555724
 19  -1382.532097128     -0.651506327      0.000000276      0.000001306    0.46      0.146550640
 20  -1382.532097199     -0.651506398     -0.000000071      0.000000678    0.46      0.146551025
               --- The Coupled-Cluster iterations have converged ---

----------------------
COUPLED CLUSTER ENERGY
----------------------

E(0)                                       ...  -1381.880590801
E(CORR)                                    ...     -0.651506398
E(TOT)                                     ...  -1382.532097199
Singles norm <S|S>**1/2                    ...      0.146551025 ( 0.083189027, 0.063361998)  
T1 diagnostic                              ...      0.034542408                              

------------------
LARGEST AMPLITUDES
------------------
  10a-> 15a  -1a-> -1a       0.081078
  14a-> 15a  -1a-> -1a       0.071958
  10b-> 24b  -1b-> -1b       0.064735
  10b-> 13b  -1b-> -1b       0.051561
  10b-> 22b  -1b-> -1b       0.050753
  10b-> 16b  -1b-> -1b       0.050060
  14a-> 15a  10b-> 13b       0.049774
  10b-> 25b  -1b-> -1b       0.048751
  10a-> 19a  -1a-> -1a       0.041220
  14a-> 18a  -1a-> -1a       0.040140
   9b-> 21b  -1b-> -1b       0.035138
  14a-> 15a  10b-> 25b       0.034122
  12b-> 19b  -1b-> -1b       0.033555
  11b-> 20b  -1b-> -1b       0.033555
  14a-> 19a  -1a-> -1a       0.033375
  10a-> 15a  10b-> 25b       0.032465

----------------------
UHF TRIPLES CORRECTION (Algorithm 1)
----------------------

Multiplier for the singles contribution    ...      1.000000000

SPIN-CASE Alpha-Alpha-Alpha:
10% done
20% done
30% done
40% done
50% done
60% done
70% done
80% done
90% done


SPIN-CASE Beta-Beta-Beta:
10% done
20% done
30% done
40% done
50% done
60% done
70% done
80% done
90% done


SPIN-CASE Alpha-Alpha-Beta:
10% done
20% done
30% done
40% done
50% done
60% done
70% done
80% done
90% done


SPIN-CASE Beta-Beta-Alpha:
10% done
20% done
30% done
40% done
50% done
60% done
70% done
80% done
90% done


Triples Correction (T)                     ...     -0.020531385
    alpha-alpha-alpha ... -0.001232637 (  6.0%)
    alpha-alpha-beta  ... -0.011028503 ( 53.7%)
    alpha-beta -beta  ... -0.007829189 ( 38.1%)
    beta -beta -beta  ... -0.000441056 (  2.1%)
Scaling of triples based on CCSD energies (Peterson et al. Molecular Physics 113, 1551 (2015))
E(T*) = f*E(T) where f = E(F12-CCSD)/E(CCSD) 
f = CCSD (with F12)/ CCSD (without F12)    ...      1.000000000
Scaled triples correction (T)              ...     -0.020531385

Final correlation energy                   ...     -0.672037783
E(CCSD)                                    ...  -1382.532097199
E(CCSD(T))                                 ...  -1382.552628584



        !!!!!!!!!!!!!!!!!!!!!!!!!!!!!!!!!!!!!!!!!!!!!!!!!!!!!!!!!!!!!!!!!!!!!!!!!! 
        !  Warning: Densities are linearized densities                           !
        !!!!!!!!!!!!!!!!!!!!!!!!!!!!!!!!!!!!!!!!!!!!!!!!!!!!!!!!!!!!!!!!!!!!!!!!!! 

NORM  =      1.162906691 sqrt=     1.078381514
W(HF) =      0.859914220
------------------------------------------------------------------------------
                           ORCA POPULATION ANALYSIS
------------------------------------------------------------------------------
Input electron density              ... 37_CoH.mdcip
Input spin density                  ... 37_CoH.mdcir
BaseName (.gbw .S,...)              ... 37_CoH

                    ********************************
                    * MULLIKEN POPULATION ANALYSIS *
                    ********************************

------------------------------------------
MULLIKEN ATOMIC CHARGES AND SPIN DENSITIES
------------------------------------------
   0 Co:    0.213417    2.110325
   1 H :   -0.213417   -0.110325
Sum of atomic charges       :   -0.0000000
Sum of atomic spin densities:    2.0000000

---------------------------------------------------
MULLIKEN REDUCED ORBITAL CHARGES AND SPIN DENSITIES
---------------------------------------------------
CHARGE
  0 Cos       :     6.700425  s :     6.700425
      pz      :     4.072897  p :    12.082061
      px      :     4.004582
      py      :     4.004582
      dz2     :     1.011540  d :     7.968429
      dxz     :     1.983318
      dyz     :     1.983318
      dx2y2   :     1.001750
      dxy     :     1.988503
      f0      :     0.004631  f :     0.032347
      f+1     :     0.004566
      f-1     :     0.004566
      f+2     :     0.004612
      f-2     :     0.005381
      f+3     :     0.004296
      f-3     :     0.004296
      g0      :     0.000349  g :     0.003320
      g+1     :     0.000362
      g-1     :     0.000362
      g+2     :     0.000364
      g-2     :     0.000398
      g+3     :     0.000391
      g-3     :     0.000391
      g+4     :     0.000352
      g-4     :     0.000352
  1 H s       :     1.184272  s :     1.184272
      pz      :     0.011000  p :     0.027120
      px      :     0.008060
      py      :     0.008060
      dz2     :     0.000735  d :     0.002025
      dxz     :     0.000564
      dyz     :     0.000564
      dx2y2   :     0.000072
      dxy     :     0.000091

SPIN
  0 Cos       :     0.299007  s :     0.299007
      pz      :    -0.002965  p :     0.003106
      px      :     0.003036
      py      :     0.003036
      dz2     :     0.803253  d :     1.801384
      dxz     :     0.003722
      dyz     :     0.003722
      dx2y2   :     0.988742
      dxy     :     0.001944
      f0      :     0.001216  f :     0.006153
      f+1     :     0.000915
      f-1     :     0.000915
      f+2     :     0.000897
      f-2     :    -0.000187
      f+3     :     0.001199
      f-3     :     0.001199
      g0      :     0.000091  g :     0.000674
      g+1     :     0.000080
      g-1     :     0.000080
      g+2     :     0.000091
      g-2     :     0.000034
      g+3     :     0.000051
      g-3     :     0.000051
      g+4     :     0.000099
      g-4     :     0.000099
  1 H s       :    -0.108395  s :    -0.108395
      pz      :     0.000697  p :    -0.002077
      px      :    -0.001387
      py      :    -0.001387
      dz2     :     0.000264  d :     0.000146
      dxz     :    -0.000052
      dyz     :    -0.000052
      dx2y2   :    -0.000000
      dxy     :    -0.000012


                     *******************************
                     * LOEWDIN POPULATION ANALYSIS *
                     *******************************

-----------------------------------------
LOEWDIN ATOMIC CHARGES AND SPIN DENSITIES
-----------------------------------------
   0 Co:    0.190187    2.040949
   1 H :   -0.190187   -0.040949

--------------------------------------------------
LOEWDIN REDUCED ORBITAL CHARGES AND SPIN DENSITIES
--------------------------------------------------
CHARGE
  0 Cos       :     6.686233  s :     6.686233
      pz      :     4.111863  p :    12.121825
      px      :     4.004981
      py      :     4.004981
      dz2     :     1.047074  d :     7.964839
      dxz     :     1.963979
      dyz     :     1.963979
      dx2y2   :     1.001618
      dxy     :     1.988188
      f0      :     0.005669  f :     0.033589
      f+1     :     0.004668
      f-1     :     0.004668
      f+2     :     0.004612
      f-2     :     0.005381
      f+3     :     0.004296
      f-3     :     0.004296
      g0      :     0.000356  g :     0.003327
      g+1     :     0.000362
      g-1     :     0.000362
      g+2     :     0.000364
      g-2     :     0.000398
      g+3     :     0.000391
      g-3     :     0.000391
      g+4     :     0.000352
      g-4     :     0.000352
  1 H s       :     1.089365  s :     1.089365
      pz      :     0.038218  p :     0.083762
      px      :     0.022772
      py      :     0.022772
      dz2     :     0.007072  d :     0.017060
      dxz     :     0.004689
      dyz     :     0.004689
      dx2y2   :     0.000205
      dxy     :     0.000405

SPIN
  0 Cos       :     0.261242  s :     0.261242
      pz      :    -0.020935  p :    -0.015333
      px      :     0.002801
      py      :     0.002801
      dz2     :     0.788058  d :     1.788454
      dxz     :     0.004913
      dyz     :     0.004913
      dx2y2   :     0.988609
      dxy     :     0.001961
      f0      :     0.000984  f :     0.005917
      f+1     :     0.000912
      f-1     :     0.000912
      f+2     :     0.000898
      f-2     :    -0.000187
      f+3     :     0.001199
      f-3     :     0.001199
      g0      :     0.000086  g :     0.000668
      g+1     :     0.000079
      g-1     :     0.000079
      g+2     :     0.000091
      g-2     :     0.000034
      g+3     :     0.000051
      g-3     :     0.000051
      g+4     :     0.000099
      g-4     :     0.000099
  1 H s       :    -0.041653  s :    -0.041653
      pz      :     0.003175  p :    -0.001329
      px      :    -0.002252
      py      :    -0.002252
      dz2     :     0.002211  d :     0.002034
      dxz     :    -0.000140
      dyz     :    -0.000140
      dx2y2   :     0.000132
      dxy     :    -0.000029


                      *****************************
                      * MAYER POPULATION ANALYSIS *
                      *****************************

  NA   - Mulliken gross atomic population
  ZA   - Total nuclear charge
  QA   - Mulliken gross atomic charge
  VA   - Mayer's total valence
  BVA  - Mayer's bonded valence
  FA   - Mayer's free valence

  ATOM       NA         ZA         QA         VA         BVA        FA
  0 Co    26.7866    27.0000     0.2134     3.5984     0.9015     2.6969
  1 H      1.2134     1.0000    -0.2134     1.0533     0.9015     0.1517

  Mayer bond orders larger than 0.100000
B(  0-Co,  1-H ) :   0.9015 



------------------------------------------------------------------------------- 
                                     TIMINGS                                   
------------------------------------------------------------------------------- 


Total execution time                   ...       12.156 sec

Fock Matrix Formation                  ...        0.236 sec (  1.9%)
Initial Guess                          ...        0.016 sec (  0.1%)
DIIS Solver                            ...        0.958 sec (  7.9%)
State Vector Update                    ...        0.046 sec (  0.4%)
Sigma-vector construction              ...        8.812 sec ( 72.5%)
  <0|H|D>                              ...        0.003 sec (  0.0% of sigma)
  <D|H|D>(0-ext Fock)                  ...        0.014 sec (  0.2% of sigma)
  <D|H|D>(0-ext)                       ...        0.050 sec (  0.6% of sigma)
  <D|H|D>(2-ext Fock)                  ...        0.004 sec (  0.0% of sigma)
  <D|H|D>(2-ext)                       ...        0.192 sec (  2.2% of sigma)
  <D|H|D>(4-ext)                       ...        3.250 sec ( 36.9% of sigma)
  <S|H|0>                              ...        0.362 sec (  4.1% of sigma)
  <S|H|S>                              ...        0.002 sec (  0.0% of sigma)
  <S|H|D>(1-ext)                       ...        0.005 sec (  0.1% of sigma)
  <D|H|S>(1-ext)                       ...        0.070 sec (  0.8% of sigma)
  Fock-dressing                        ...        2.526 sec ( 28.7% of sigma)
  (ik|jl)-dressing                     ...        0.065 sec (  0.7% of sigma)
  (ij|ab),(ia|jb)-dressing             ...        1.766 sec ( 20.0% of sigma)
  Pair energies                        ...        0.004 sec (  0.0% of sigma)
Total Time for computing (T)           ...        0.702 sec (  5.8% of ALL)
  I/O of integral and amplitudes       ...        0.173 sec ( 24.7% of (T))
  External N**7 contributions          ...        0.184 sec ( 26.1% of (T))
  Internal N**7 contributions          ...        0.093 sec ( 13.3% of (T))
  N**6 triples energy contributions    ...        0.242 sec ( 34.4% of (T))

----- Orbital basis set information -----
Your calculation utilizes the basis: def2-QZVPP
   F. Weigend and R. Ahlrichs, Phys. Chem. Chem. Phys. 7, 3297 (2005).

----- AuxJ basis set information -----
Your calculation utilizes the auxiliary basis: def2/J
   F. Weigend, Phys. Chem. Chem. Phys. 8, 1057 (2006).

----- AuxC basis set information -----
Your calculation utilizes the auxiliary basis: def2-QZVPP/C
  H-La, Hf-Rn : A. Hellweg, C. Hattig, S. Hofener and W. Klopper, Theor. Chem. Acc. 117, 587 (2007).
        Ce-Lu : J. Chmela and M. E. Harding, Mol. Phys. (2018).

----- AuxJK basis set information -----
Your calculation utilizes the auxiliary basis: def2/JK
   H-Ba, Hf-Rn: F. Weigend, J. Comput. Chem. 29, 167 (2008).

All done

                     -----------------------------------------
                     Extrapolated Energy 2 Basis=  def2-QZVPP
                     -----------------------------------------

---------------------------------
CARTESIAN COORDINATES (ANGSTROEM)
---------------------------------
  Co     0.000000    0.000000    0.239650
  H      0.000000    0.000000    1.760350

----------------------------
CARTESIAN COORDINATES (A.U.)
----------------------------
  NO LB      ZA    FRAG     MASS         X           Y           Z
   0 Co   27.0000    0    58.930    0.000000    0.000000    0.452872
   1 H     1.0000    0     1.008    0.000000    0.000000    3.326580

--------------------------------
INTERNAL COORDINATES (ANGSTROEM)
--------------------------------
 Co     0   0   0     0.000000000000     0.00000000     0.00000000
 H      1   0   0     1.520700928873     0.00000000     0.00000000

---------------------------
INTERNAL COORDINATES (A.U.)
---------------------------
 Co     0   0   0     0.000000000000     0.00000000     0.00000000
 H      1   0   0     2.873708287170     0.00000000     0.00000000

---------------------
BASIS SET INFORMATION
---------------------
There are 2 groups of distinct atoms

 Group   1 Type Co  : 24s18p10d4f2g contracted to 11s6p5d4f2g pattern {114111111111/951111/61111/1111/11}
 Group   2 Type H   : 7s3p2d1f contracted to 4s3p2d1f pattern {4111/111/11/1}

Atom   0Co   basis set group =>   1
Atom   1H    basis set group =>   2
---------------------------------
AUXILIARY/J BASIS SET INFORMATION
---------------------------------
There are 2 groups of distinct atoms

 Group   1 Type Co  : 19s5p5d3f3g contracted to 8s5p5d2f3g pattern {121111111/11111/11111/21/111}
 Group   2 Type H   : 5s2p1d contracted to 3s1p1d pattern {311/2/1}

Atom   0Co   basis set group =>   1
Atom   1H    basis set group =>   2
---------------------------------
AUXILIARY/C BASIS SET INFORMATION
---------------------------------
There are 2 groups of distinct atoms

 Group   1 Type Co  : 15s13p11d8f7g5h2i contracted to 15s13p11d8f7g5h2i pattern {111111111111111/1111111111111/11111111111/11111111/1111111/11111/11}
 Group   2 Type H   : 6s4p3d2f1g contracted to 6s4p3d2f1g pattern {111111/1111/111/11/1}

Atom   0Co   basis set group =>   1
Atom   1H    basis set group =>   2
----------------------------------
AUXILIARY/JK BASIS SET INFORMATION
----------------------------------
There are 2 groups of distinct atoms

 Group   1 Type Co  : 19s14p12d10f7g3h1i contracted to 16s13p11d9f5g3h1i pattern {4111111111111111/2111111111111/21111111111/211111111/31111/111/1}
 Group   2 Type H   : 4s2p2d contracted to 2s2p2d pattern {31/11/11}

Atom   0Co   basis set group =>   1
Atom   1H    basis set group =>   2

Checking for AutoStart:
The File: 37_CoH.gbw exists
Trying to determine its content:
     ... Fine, the file contains calculation information
     ... Fine, the calculation information was read
     ... Fine, the file contains a basis set
     ... Fine, the basis set was read
     ... Fine, the file contains a geometry
     ... Fine, the geometry was read
     ... Fine, the file contains a set of orbitals
     ... Fine, the orbitals can be read
     => possible old guess file was deleted
     => GBW file was renamed to GES file
     => GES file is set as startup file
     => Guess is set to MORead
     ... now leaving AutoStart



           ************************************************************
           *        Program running with 24 parallel MPI-processes    *
           *              working on a common directory               *
           ************************************************************
------------------------------------------------------------------------------
                           ORCA GTO INTEGRAL CALCULATION
------------------------------------------------------------------------------

                         BASIS SET STATISTICS AND STARTUP INFO

 # of primitive gaussian shells          ...   71
 # of primitive gaussian functions       ...  207
 # of contracted shells                  ...   38
 # of contracted basis functions         ...  130
 Highest angular momentum                ...    4
 Maximum contraction depth               ...   11
 Integral package used                   ... LIBINT
 Integral threshhold            Thresh   ...  1.000e-12
 Primitive cut-off              TCut     ...  1.000e-14


------------------------------ INTEGRAL EVALUATION ----------------------------


 * One electron integrals 
 Pre-screening matrix                    ... done
 Shell pair data                         ... done (   0.000 sec)



           ************************************************************
           *        Program running with 24 parallel MPI-processes    *
           *              working on a common directory               *
           ************************************************************
-------------------------------------------------------------------------------
                                 ORCA SCF
-------------------------------------------------------------------------------

------------
SCF SETTINGS
------------
Hamiltonian:
 Ab initio Hamiltonian  Method          .... Hartree-Fock(GTOs)


General Settings:
 Integral files         IntName         .... 37_CoH
 Hartree-Fock type      HFTyp           .... UHF
 Total Charge           Charge          ....    0
 Multiplicity           Mult            ....    3
 Number of Electrons    NEL             ....   28
 Basis Dimension        Dim             ....  130
 Nuclear Repulsion      ENuc            ....      9.3955256769 Eh

Convergence Acceleration:
 DIIS                   CNVDIIS         .... on
   Start iteration      DIISMaxIt       ....    12
   Startup error        DIISStart       ....  0.200000
   # of expansion vecs  DIISMaxEq       ....     5
   Bias factor          DIISBfac        ....   1.050
   Max. coefficient     DIISMaxC        ....  10.000
 Newton-Raphson         CNVNR           .... off
 SOSCF                  CNVSOSCF        .... off
 Level Shifting         CNVShift        .... on
   Level shift para.    LevelShift      ....    0.2500
   Turn off err/grad.   ShiftErr        ....    0.0010
 Zerner damping         CNVZerner       .... off
 Static damping         CNVDamp         .... on
   Fraction old density DampFac         ....    0.7000
   Max. Damping (<1)    DampMax         ....    0.9800
   Min. Damping (>=0)   DampMin         ....    0.0000
   Turn off err/grad.   DampErr         ....    0.1000
 Fernandez-Rico         CNVRico         .... off

SCF Procedure:
 Maximum # iterations   MaxIter         ....   125
 SCF integral mode      SCFMode         .... Direct
   Integral package                     .... LIBINT
 Reset frequency        DirectResetFreq ....    20
 Integral Threshold     Thresh          ....  1.000e-12 Eh
 Primitive CutOff       TCut            ....  1.000e-14 Eh

Convergence Tolerance:
 Convergence Check Mode ConvCheckMode   .... Total+1el-Energy
 Convergence forced     ConvForced      .... 1
 Energy Change          TolE            ....  1.000e-09 Eh
 1-El. energy change                    ....  1.000e-06 Eh
 DIIS Error             TolErr          ....  1.000e-08


Diagonalization of the overlap matrix:
Smallest eigenvalue                        ... 4.960e-04
Time for diagonalization                   ...    0.005 sec
Threshold for overlap eigenvalues          ... 1.000e-08
Number of eigenvalues below threshold      ... 0
Time for construction of square roots      ...    0.002 sec
Total time needed                          ...    0.007 sec

---------------------
INITIAL GUESS: MOREAD
---------------------
Guess MOs are being read from file: 37_CoH.ges
Input Geometry matches current geometry (good)
Atom 0: N(Shells)= 28 and 18 - projection required
Input basis set needs projection
NBasis(read)= 78
NBasis(calc)= 130
Basis set overlap was calculated
Using GuessMode=FMatrix for the initial guess
C*T matrix was formed
Effective Fockian was calculated
Effective Fockian was diagonalized
Initial density was built
C*T matrix was formed
Effective Fockian was calculated
Effective Fockian was diagonalized
Initial density was built
                      ------------------
                      INITIAL GUESS DONE (   0.0 sec)
                      ------------------
--------------
SCF ITERATIONS
--------------
ITER       Energy         Delta-E        Max-DP      RMS-DP      [F,P]     Damp
               ***  Starting incremental Fock matrix formation  ***
  0  -1381.9068770300   0.000000000000 0.00599532  0.00017177  0.0705210 0.7000
  1  -1381.9076644669  -0.000787436869 0.00423018  0.00012513  0.0493414 0.7000
                               ***Turning on DIIS***
  2  -1381.9082322185  -0.000567751615 0.01081482  0.00030608  0.0345229 0.0000
  3  -1381.9095500921  -0.001317873564 0.00199039  0.00003992  0.0019624 0.0000
  4  -1381.9121229397  -0.002572847646 0.00159198  0.00002850  0.0009988 0.0000
[...]
                           *** Turning on DIIS ***
  1  -1382.549098824     -0.639454572      0.083854387      0.012030212    2.40      0.081694588
  2  -1382.580007263     -0.670363011     -0.030908439      0.007611205    2.42      0.070448438
  3  -1382.581084319     -0.671440067     -0.001077056      0.005960816    2.43      0.090279579
  4  -1382.583514198     -0.673869946     -0.002429879      0.003989533    2.42      0.103931198
  5  -1382.585431410     -0.675787158     -0.001917212      0.002611954    2.43      0.121993289
  6  -1382.586025388     -0.676381136     -0.000593978      0.001852533    2.55      0.132845521
  7  -1382.586258259     -0.676614007     -0.000232870      0.001273766    2.52      0.140499920
  8  -1382.586494238     -0.676849986     -0.000235979      0.000770072    2.53      0.145977107
  9  -1382.586501929     -0.676857677     -0.000007692      0.000449716    2.45      0.147558168
 10  -1382.586544366     -0.676900114     -0.000042436      0.000209538    2.46      0.149264556
 11  -1382.586567662     -0.676923410     -0.000023296      0.000133078    2.49      0.150065809
 12  -1382.586543151     -0.676898899      0.000024511      0.000102621    2.46      0.150225926
 13  -1382.586551508     -0.676907256     -0.000008357      0.000054282    2.50      0.150615437
 14  -1382.586542976     -0.676898724      0.000008533      0.000024283    2.52      0.150734873
 15  -1382.586544202     -0.676899950     -0.000001226      0.000020199    2.49      0.150840649
 16  -1382.586544615     -0.676900363     -0.000000413      0.000011525    2.48      0.150878645
 17  -1382.586544485     -0.676900233      0.000000129      0.000007405    2.48      0.150908420
 18  -1382.586545215     -0.676900963     -0.000000730      0.000003939    2.48      0.150908635
 19  -1382.586544970     -0.676900718      0.000000245      0.000002121    2.50      0.150901053
 20  -1382.586544758     -0.676900506      0.000000212      0.000000937    2.44      0.150900344
               --- The Coupled-Cluster iterations have converged ---

----------------------
COUPLED CLUSTER ENERGY
----------------------

E(0)                                       ...  -1381.909644252
E(CORR)                                    ...     -0.676900506
E(TOT)                                     ...  -1382.586544758
Singles norm <S|S>**1/2                    ...      0.150900344 ( 0.085678719, 0.065221624)  
T1 diagnostic                              ...      0.035567552                              

------------------
LARGEST AMPLITUDES
------------------
  14a-> 15a  -1a-> -1a       0.069406
  10a-> 15a  -1a-> -1a       0.063203
  12b-> 26b  -1b-> -1b       0.060798
  14a-> 19a  -1a-> -1a       0.059817
  12b-> 28b  -1b-> -1b       0.057332
  12b-> 34b  -1b-> -1b       0.051714
  12b-> 13b  -1b-> -1b       0.047652
  10a-> 19a  -1a-> -1a       0.044610
  12b-> 17b  -1b-> -1b       0.040054
   9b-> 22b  -1b-> -1b       0.032662
  10a-> 28a  -1a-> -1a       0.031050
  14a-> 15a  12b-> 13b       0.029364
  12a-> 25a  -1a-> -1a       0.028544
  11a-> 26a  -1a-> -1a       0.028544
  14a-> 29a  -1a-> -1a       0.028307
  13a-> 24a  -1a-> -1a       0.026872

----------------------
UHF TRIPLES CORRECTION (Algorithm 1)
----------------------

Multiplier for the singles contribution    ...      1.000000000

SPIN-CASE Alpha-Alpha-Alpha:
10% done
20% done
30% done
40% done
50% done
60% done
70% done
80% done
90% done


SPIN-CASE Beta-Beta-Beta:
10% done
20% done
30% done
40% done
50% done
60% done
70% done
80% done
90% done


SPIN-CASE Alpha-Alpha-Beta:
10% done
20% done
30% done
40% done
50% done
60% done
70% done
80% done
90% done


SPIN-CASE Beta-Beta-Alpha:
10% done
20% done
30% done
40% done
50% done
60% done
70% done
80% done
90% done


Triples Correction (T)                     ...     -0.025131123
    alpha-alpha-alpha ... -0.001582387 (  6.3%)
    alpha-alpha-beta  ... -0.013529342 ( 53.8%)
    alpha-beta -beta  ... -0.009481101 ( 37.7%)
    beta -beta -beta  ... -0.000538292 (  2.1%)
Scaling of triples based on CCSD energies (Peterson et al. Molecular Physics 113, 1551 (2015))
E(T*) = f*E(T) where f = E(F12-CCSD)/E(CCSD) 
f = CCSD (with F12)/ CCSD (without F12)    ...      1.000000000
Scaled triples correction (T)              ...     -0.025131123

Final correlation energy                   ...     -0.702031629
E(CCSD)                                    ...  -1382.586544758
E(CCSD(T))                                 ...  -1382.611675881



        !!!!!!!!!!!!!!!!!!!!!!!!!!!!!!!!!!!!!!!!!!!!!!!!!!!!!!!!!!!!!!!!!!!!!!!!!! 
        !  Warning: Densities are linearized densities                           !
        !!!!!!!!!!!!!!!!!!!!!!!!!!!!!!!!!!!!!!!!!!!!!!!!!!!!!!!!!!!!!!!!!!!!!!!!!! 

NORM  =      1.169350694 sqrt=     1.081365199
W(HF) =      0.855175445
------------------------------------------------------------------------------
                           ORCA POPULATION ANALYSIS
------------------------------------------------------------------------------
Input electron density              ... 37_CoH.mdcip
Input spin density                  ... 37_CoH.mdcir
BaseName (.gbw .S,...)              ... 37_CoH

                    ********************************
                    * MULLIKEN POPULATION ANALYSIS *
                    ********************************

------------------------------------------
MULLIKEN ATOMIC CHARGES AND SPIN DENSITIES
------------------------------------------
   0 Co:    0.186296    2.100437
   1 H :   -0.186296   -0.100437
Sum of atomic charges       :    0.0000000
Sum of atomic spin densities:    2.0000000

---------------------------------------------------
MULLIKEN REDUCED ORBITAL CHARGES AND SPIN DENSITIES
---------------------------------------------------
CHARGE
  0 Cos       :     6.726758  s :     6.726758
      pz      :     4.077355  p :    12.086050
      px      :     4.004348
      py      :     4.004348
      dz2     :     1.012833  d :     7.955268
      dxz     :     1.977413
      dyz     :     1.977413
      dx2y2   :     1.001141
      dxy     :     1.986468
      f0      :     0.006343  f :     0.040842
      f+1     :     0.005804
      f-1     :     0.005804
      f+2     :     0.005745
      f-2     :     0.006904
      f+3     :     0.005122
      f-3     :     0.005122
      g0      :     0.000518  g :     0.004785
      g+1     :     0.000521
      g-1     :     0.000521
      g+2     :     0.000525
      g-2     :     0.000587
      g+3     :     0.000565
      g-3     :     0.000565
      g+4     :     0.000492
      g-4     :     0.000492
  1 H s       :     1.150240  s :     1.150240
      pz      :     0.008949  p :     0.031931
      px      :     0.011491
      py      :     0.011491
      dz2     :     0.000880  d :     0.003784
      dxz     :     0.001191
      dyz     :     0.001191
      dx2y2   :     0.000199
      dxy     :     0.000324
      f0      :     0.000113  f :     0.000341
      f+1     :     0.000087
      f-1     :     0.000087
      f+2     :     0.000018
      f-2     :     0.000028
      f+3     :     0.000005
      f-3     :     0.000005

SPIN
  0 Cos       :     0.298895  s :     0.298895
      pz      :    -0.008215  p :    -0.001633
      px      :     0.003291
      py      :     0.003291
      dz2     :     0.796884  d :     1.796400
      dxz     :     0.004718
      dyz     :     0.004718
      dx2y2   :     0.987909
      dxy     :     0.002170
      f0      :     0.000728  f :     0.005837
      f+1     :     0.000928
      f-1     :     0.000928
      f+2     :     0.000994
      f-2     :    -0.000368
      f+3     :     0.001313
      f-3     :     0.001313
      g0      :     0.000140  g :     0.000938
      g+1     :     0.000109
      g-1     :     0.000109
      g+2     :     0.000125
      g-2     :     0.000043
      g+3     :     0.000069
      g-3     :     0.000069
      g+4     :     0.000137
      g-4     :     0.000137
  1 H s       :    -0.098860  s :    -0.098860
      pz      :     0.002257  p :    -0.001743
      px      :    -0.002000
      py      :    -0.002000
      dz2     :     0.000448  d :     0.000088
      dxz     :    -0.000165
      dyz     :    -0.000165
      dx2y2   :     0.000031
      dxy     :    -0.000062
      f0      :     0.000072  f :     0.000079
      f+1     :     0.000004
      f-1     :     0.000004
      f+2     :     0.000003
      f-2     :    -0.000005
      f+3     :     0.000000
      f-3     :     0.000000


                     *******************************
                     * LOEWDIN POPULATION ANALYSIS *
                     *******************************

-----------------------------------------
LOEWDIN ATOMIC CHARGES AND SPIN DENSITIES
-----------------------------------------
   0 Co:    0.207548    2.026185
   1 H :   -0.207548   -0.026185

--------------------------------------------------
LOEWDIN REDUCED ORBITAL CHARGES AND SPIN DENSITIES
--------------------------------------------------
CHARGE
  0 Cos       :     6.685122  s :     6.685122
      pz      :     4.107090  p :    12.114782
      px      :     4.003846
      py      :     4.003846
      dz2     :     1.052456  d :     7.930069
      dxz     :     1.945909
      dyz     :     1.945909
      dx2y2   :     1.000592
      dxy     :     1.985202
      f0      :     0.020990  f :     0.057499
      f+1     :     0.006786
      f-1     :     0.006786
      f+2     :     0.005751
      f-2     :     0.006943
      f+3     :     0.005122
      f-3     :     0.005122
      g0      :     0.000651  g :     0.004981
      g+1     :     0.000552
      g-1     :     0.000552
      g+2     :     0.000526
      g-2     :     0.000586
      g+3     :     0.000565
      g-3     :     0.000565
      g+4     :     0.000492
      g-4     :     0.000492
  1 H s       :     1.035001  s :     1.035001
      pz      :     0.049993  p :     0.106919
      px      :     0.028463
      py      :     0.028463
      dz2     :     0.028897  d :     0.057944
      dxz     :     0.013529
      dyz     :     0.013529
      dx2y2   :     0.000643
      dxy     :     0.001345
      f0      :     0.003788  f :     0.007683
      f+1     :     0.001769
      f-1     :     0.001769
      f+2     :     0.000114
      f-2     :     0.000235
      f+3     :     0.000005
      f-3     :     0.000005

SPIN
  0 Cos       :     0.254648  s :     0.254648
      pz      :    -0.024076  p :    -0.017882
      px      :     0.003097
      py      :     0.003097
      dz2     :     0.784101  d :     1.785579
      dxz     :     0.005949
      dyz     :     0.005949
      dx2y2   :     0.987360
      dxy     :     0.002220
      f0      :    -0.002077  f :     0.002923
      f+1     :     0.000864
      f-1     :     0.000864
      f+2     :     0.001018
      f-2     :    -0.000372
      f+3     :     0.001313
      f-3     :     0.001313
      g0      :     0.000108  g :     0.000916
      g+1     :     0.000112
      g-1     :     0.000112
      g+2     :     0.000127
      g-2     :     0.000045
      g+3     :     0.000069
      g-3     :     0.000069
      g+4     :     0.000137
      g-4     :     0.000137
  1 H s       :    -0.028800  s :    -0.028800
      pz      :     0.004349  p :    -0.001218
      px      :    -0.002784
      py      :    -0.002784
      dz2     :     0.003134  d :     0.002806
      dxz     :    -0.000344
      dyz     :    -0.000344
      dx2y2   :     0.000464
      dxy     :    -0.000104
      f0      :     0.000963  f :     0.001028
      f+1     :    -0.000009
      f-1     :    -0.000009
      f+2     :     0.000094
      f-2     :    -0.000011
      f+3     :     0.000000
      f-3     :     0.000000


                      *****************************
                      * MAYER POPULATION ANALYSIS *
                      *****************************

  NA   - Mulliken gross atomic population
  ZA   - Total nuclear charge
  QA   - Mulliken gross atomic charge
  VA   - Mayer's total valence
  BVA  - Mayer's bonded valence
  FA   - Mayer's free valence

  ATOM       NA         ZA         QA         VA         BVA        FA
  0 Co    26.8137    27.0000     0.1863     3.6739     0.9349     2.7390
  1 H      1.1863     1.0000    -0.1863     1.0765     0.9349     0.1417

  Mayer bond orders larger than 0.100000
B(  0-Co,  1-H ) :   0.9349 



------------------------------------------------------------------------------- 
                                     TIMINGS                                   
------------------------------------------------------------------------------- 


Total execution time                   ...       63.815 sec

Fock Matrix Formation                  ...        0.769 sec (  1.2%)
Initial Guess                          ...        0.047 sec (  0.1%)
DIIS Solver                            ...        3.152 sec (  4.9%)
State Vector Update                    ...        0.140 sec (  0.2%)
Sigma-vector construction              ...       48.408 sec ( 75.9%)
  <0|H|D>                              ...        0.007 sec (  0.0% of sigma)
  <D|H|D>(0-ext Fock)                  ...        0.052 sec (  0.1% of sigma)
  <D|H|D>(0-ext)                       ...        0.200 sec (  0.4% of sigma)
  <D|H|D>(2-ext Fock)                  ...        0.019 sec (  0.0% of sigma)
  <D|H|D>(2-ext)                       ...        0.817 sec (  1.7% of sigma)
  <D|H|D>(4-ext)                       ...       24.665 sec ( 51.0% of sigma)
  <S|H|0>                              ...        2.008 sec (  4.1% of sigma)
  <S|H|S>                              ...        0.004 sec (  0.0% of sigma)
  <S|H|D>(1-ext)                       ...        0.013 sec (  0.0% of sigma)
  <D|H|S>(1-ext)                       ...        0.226 sec (  0.5% of sigma)
  Fock-dressing                        ...       11.892 sec ( 24.6% of sigma)
  (ik|jl)-dressing                     ...        0.241 sec (  0.5% of sigma)
  (ij|ab),(ia|jb)-dressing             ...        6.707 sec ( 13.9% of sigma)
  Pair energies                        ...        0.011 sec (  0.0% of sigma)
Total Time for computing (T)           ...        5.827 sec (  9.1% of ALL)
  I/O of integral and amplitudes       ...        1.313 sec ( 22.5% of (T))
  External N**7 contributions          ...        1.911 sec ( 32.8% of (T))
  Internal N**7 contributions          ...        0.695 sec ( 11.9% of (T))
  N**6 triples energy contributions    ...        1.829 sec ( 31.4% of (T))


-------------------
EXTRAPOLATED ENERGY
-------------------


-----------------------------------------------------------------
                      EP1 - MDCI extrapolation:
-----------------------------------------------------------------
NOTE: We use as reference SCF energy, for the extrapolation, the one from the MDCI module and not the one 
from the SCF calculation. In case the first step is a DFT calculation these two might be different.

NOTE: For the SCF part we extrapolate based on the scheme proposed in J. Chem. Phys. 2008, 129, 184116
using the exponents from J. Chem. Theory Comput., 7, 33-43 (2011)

NOTE: For the correlation part we extrapolate based on the scheme proposed in J. Chem. Phys. 1997, 106, 9639
using the exponents from J. Chem. Theory Comput., 7, 33-43 (2011)


Alpha(3/4)     :  7.880 (SCF Extrapolation)
Beta(3/4)      :  2.970 (correlation extrapolation)

SCF energy with basis def2-TZVPP:                     -1381.880590801
SCF energy with basis def2-QZVPP:                     -1381.909644252
Extrapolated CBS SCF energy (3/4) :                   -1381.913646036 (-0.004001784) 

MDCI energy with basis def2-TZVPP:                       -0.672037783
MDCI energy with basis def2-QZVPP:                       -0.702031629
Extrapolated CBS correlation energy (3/4) :              -0.724249276 (-0.022217647)

Estimated CBS total energy (3/4) :                    -1382.637895312



-------------------------   --------------------
FINAL SINGLE POINT ENERGY     -1382.637895312050
-------------------------   --------------------


                            ***************************************
                            *     ORCA property calculations      *
                            ***************************************

                                    ---------------------
                                    Active property flags
                                    ---------------------
   (+) Dipole Moment


------------------------------------------------------------------------------
                       ORCA ELECTRIC PROPERTIES CALCULATION
------------------------------------------------------------------------------

Dipole Moment Calculation                       ... on
Quadrupole Moment Calculation                   ... off
Polarizability Calculation                      ... off
GBWName                                         ... 37_CoH.gbw
Electron density file                           ... 37_CoH.scfp
The origin for moment calculation is the CENTER OF MASS  = ( 0.000000,  0.000000  0.501200)

-------------
DIPOLE MOMENT
-------------
                                X             Y             Z
Electronic contribution:     -0.00000      -0.00000      -3.17885
Nuclear contribution   :      0.00000       0.00000       1.52052
                        -----------------------------------------
Total Dipole Moment    :     -0.00000      -0.00000      -1.65833
                        -----------------------------------------
Magnitude (a.u.)       :      1.65833
Magnitude (Debye)      :      4.21514



--------------------
Rotational spectrum 
--------------------
 
Rotational constants in cm-1:     0.000000     7.355540     7.355540 
Rotational constants in MHz :     0.000000 220513.537195 220513.537195 

 Dipole components along the rotational axes: 
x,y,z [a.u.] :    -1.658330    -0.000000    -0.000000 
x,y,z [Debye]:    -4.215141    -0.000000    -0.000000 

 

                           *** MDCI DENSITY ***

------------------------------------------------------------------------------
                       ORCA ELECTRIC PROPERTIES CALCULATION
------------------------------------------------------------------------------

Dipole Moment Calculation                       ... on
Quadrupole Moment Calculation                   ... off
Polarizability Calculation                      ... off
GBWName                                         ... 37_CoH.gbw
Electron density file                           ... 37_CoH.mdcip
The origin for moment calculation is the CENTER OF MASS  = ( 0.000000,  0.000000  0.501200)

-------------
DIPOLE MOMENT
-------------
                                X             Y             Z
Electronic contribution:     -0.00000      -0.00000      -2.70249
Nuclear contribution   :      0.00000       0.00000       1.52052
                        -----------------------------------------
Total Dipole Moment    :     -0.00000      -0.00000      -1.18197
                        -----------------------------------------
Magnitude (a.u.)       :      1.18197
Magnitude (Debye)      :      3.00434



--------------------
Rotational spectrum 
--------------------
 
Rotational constants in cm-1:     0.000000     7.355540     7.355540 
Rotational constants in MHz :     0.000000 220513.537195 220513.537195 

 Dipole components along the rotational axes: 
x,y,z [a.u.] :    -1.181973    -0.000000    -0.000000 
x,y,z [Debye]:    -3.004337    -0.000000    -0.000000 

 

Timings for individual modules:

Sum of individual times         ...       89.127 sec (=   1.485 min)
GTO integral calculation        ...        1.809 sec (=   0.030 min)   2.0 %
SCF iterations                  ...        9.804 sec (=   0.163 min)  11.0 %
MDCI module                     ...       77.514 sec (=   1.292 min)  87.0 %
                             ****ORCA TERMINATED NORMALLY****
TOTAL RUN TIME: 0 days 0 hours 1 minutes 30 seconds 208 msec
