
                                 *****************
                                 * O   R   C   A *
                                 *****************

           --- An Ab Initio, DFT and Semiempirical electronic structure package ---

                  #######################################################
                  #                        -***-                        #
                  #          Department of theory and spectroscopy      #
                  #               Directorship: Frank Neese             #
                  #        Max Planck Institute fuer Kohlenforschung    #
                  #                Kaiser Wilhelm Platz 1               #
                  #                 D-45470 Muelheim/Ruhr               #
                  #                      Germany                        #
                  #                                                     #
                  #                  All rights reserved                #
                  #                        -***-                        #
                  #######################################################


                         Program Version 4.2.0 -  RELEASE  -


 With contributions from (in alphabetic order):
   Daniel Aravena         : Magnetic Suceptibility
   Michael Atanasov       : Ab Initio Ligand Field Theory (pilot matlab implementation)
   Alexander A. Auer      : GIAO ZORA, VPT2
   Ute Becker             : Parallelization
   Giovanni Bistoni       : ED, misc. LED, open-shell LED, HFLED
   Martin Brehm           : Molecular dynamics
   Dmytro Bykov           : SCF Hessian
   Vijay G. Chilkuri      : MRCI spin determinant printing, contributions to CSF-ICE
   Dipayan Datta          : RHF DLPNO-CCSD density
   Achintya Kumar Dutta   : EOM-CC, STEOM-CC
   Dmitry Ganyushin       : Spin-Orbit,Spin-Spin,Magnetic field MRCI
   Miquel Garcia          : C-PCM Hessian, Gaussian charge scheme
   Yang Guo               : DLPNO-NEVPT2, CIM, IAO-localization
   Andreas Hansen         : Spin unrestricted coupled pair/coupled cluster methods
   Benjamin Helmich-Paris : CASSCF linear response (MC-RPA)
   Lee Huntington         : MR-EOM, pCC
   Robert Izsak           : Overlap fitted RIJCOSX, COSX-SCS-MP3, EOM
   Christian Kollmar      : KDIIS, OOCD, Brueckner-CCSD(T), CCSD density
   Simone Kossmann        : Meta GGA functionals, TD-DFT gradient, OOMP2, MP2 Hessian
   Martin Krupicka        : AUTO-CI
   Lucas Lang             : DCDCAS
   Dagmar Lenk            : GEPOL surface, SMD
   Dimitrios Liakos       : Extrapolation schemes; Compound Job, initial MDCI parallelization
   Dimitrios Manganas     : Further ROCIS development; embedding schemes
   Dimitrios Pantazis     : SARC Basis sets
   Taras Petrenko         : DFT Hessian,TD-DFT gradient, ASA, ECA, R-Raman, ABS, FL, XAS/XES, NRVS
   Peter Pinski           : DLPNO-MP2, DLPNO-MP2 Gradient
   Christoph Reimann      : Effective Core Potentials
   Marius Retegan         : Local ZFS, SOC
   Christoph Riplinger    : Optimizer, TS searches, QM/MM, DLPNO-CCSD(T), (RO)-DLPNO pert. Triples
   Tobias Risthaus        : Range-separated hybrids, TD-DFT gradient, RPA, STAB
   Michael Roemelt        : Original ROCIS implementation
   Masaaki Saitow         : Open-shell DLPNO-CCSD energy and density
   Barbara Sandhoefer     : DKH picture change effects
   Avijit Sen             : IP-ROCIS
   Kantharuban Sivalingam : CASSCF convergence, NEVPT2, FIC-MRCI
   Bernardo de Souza      : ESD, SOC TD-DFT
   Georgi Stoychev        : AutoAux, RI-MP2 NMR
   Willem Van den Heuvel  : Paramagnetic NMR
   Boris Wezisla          : Elementary symmetry handling
   Frank Wennmohs         : Technical directorship


 We gratefully acknowledge several colleagues who have allowed us to
 interface, adapt or use parts of their codes:
   Stefan Grimme, W. Hujo, H. Kruse,             : VdW corrections, initial TS optimization,
                  C. Bannwarth                     DFT functionals, gCP, sTDA/sTD-DF
   Ed Valeev, F. Pavosevic, A. Kumar             : LibInt (2-el integral package), F12 methods
   Garnet Chan, S. Sharma, J. Yang, R. Olivares  : DMRG
   Ulf Ekstrom                                   : XCFun DFT Library
   Mihaly Kallay                                 : mrcc  (arbitrary order and MRCC methods)
   Andreas Klamt, Michael Diedenhofen            : otool_cosmo (COSMO solvation model)
   Jiri Pittner, Ondrej Demel                    : Mk-CCSD
   Frank Weinhold                                : gennbo (NPA and NBO analysis)
   Christopher J. Cramer and Donald G. Truhlar   : smd solvation model
   Lars Goerigk                                  : TD-DFT with DH, B97 family of functionals
   V. Asgeirsson, H. Jonsson                     : NEB implementation
   FAccTs GmbH                                   : IRC, NEB, NEB-TS, Multilevel, MM, QM/MM, CI optimization
   S Lehtola, MJT Oliveira, MAL Marques          : LibXC Library


 Your calculation uses the libint2 library for the computation of 2-el integrals
 For citations please refer to: http://libint.valeyev.net

 Your ORCA version has been built with support for libXC version: 4.2.3
 For citations please refer to: https://tddft.org/programs/libxc/

 This ORCA versions uses:
   CBLAS   interface :  Fast vector & matrix operations
   LAPACKE interface :  Fast linear algebra routines
   SCALAPACK package :  Parallel linear algebra routines


----- Orbital basis set information -----
Your calculation utilizes the basis: def2-TZVPP
   F. Weigend and R. Ahlrichs, Phys. Chem. Chem. Phys. 7, 3297 (2005).

================================================================================
                                        WARNINGS
                       Please study these warnings very carefully!
================================================================================


WARNING: your system is open-shell and RHF/RKS was chosen
  ===> : WILL SWITCH to UHF/UKS


WARNING: MDCI localization with Augmented Hessian Foster-Boys
  ===> : Switching off randomization!

WARNING: Post HF methods need fully converged wavefunctions
  ===> : Setting SCFConvForced true
         You can overwrite this default with %scf ConvForced false 


INFO   : the flag for use of LIBINT has been found!

================================================================================
                                       INPUT FILE
================================================================================
NAME = 40_CoBr.in
|  1> #
|  2> # 40_CoBr ccsd(t)/cbs
|  3> #
|  4> ! ccsd(t) extrapolate(3/4,def2) verytightscf
|  5> 
|  6> *xyz 0 3
|  7>   Co  0.00000000000000      0.00000000000000     -0.10327875603907
|  8>   Br  0.00000000000000      0.00000000000000      2.10327875603907
|  9> *
| 10> 
| 11> %maxcore 5000
| 12> %pal
| 13> nprocs 24
| 14> end
| 15> 
| 16> 
| 17>                          ****END OF INPUT****
================================================================================

                   *****************************************
                   * Extrapolated Single Point Calculation *
                   *****************************************

----- Orbital basis set information -----
Your calculation utilizes the basis: def2-TZVPP
   F. Weigend and R. Ahlrichs, Phys. Chem. Chem. Phys. 7, 3297 (2005).

----- AuxJ basis set information -----
Your calculation utilizes the auxiliary basis: def2/J
   F. Weigend, Phys. Chem. Chem. Phys. 8, 1057 (2006).

----- AuxC basis set information -----
Your calculation utilizes the auxiliary basis: def2-TZVPP/C
  H-La, Hf-Rn : A. Hellweg, C. Hattig, S. Hofener and W. Klopper, Theor. Chem. Acc. 117, 587 (2007).
        Ce-Lu : J. Chmela and M. E. Harding, Mol. Phys. (2018).

----- AuxJK basis set information -----
Your calculation utilizes the auxiliary basis: def2/JK
   H-Ba, Hf-Rn: F. Weigend, J. Comput. Chem. 29, 167 (2008).

All done

                     -----------------------------------------
                     Extrapolated Energy 1 Basis=  def2-TZVPP
                     -----------------------------------------

---------------------------------
CARTESIAN COORDINATES (ANGSTROEM)
---------------------------------
  Co     0.000000    0.000000   -0.103279
  Br     0.000000    0.000000    2.103279

----------------------------
CARTESIAN COORDINATES (A.U.)
----------------------------
  NO LB      ZA    FRAG     MASS         X           Y           Z
   0 Co   27.0000    0    58.930    0.000000    0.000000   -0.195169
   1 Br   35.0000    0    79.900    0.000000    0.000000    3.974621

--------------------------------
INTERNAL COORDINATES (ANGSTROEM)
--------------------------------
 Co     0   0   0     0.000000000000     0.00000000     0.00000000
 Br     1   0   0     2.206557512078     0.00000000     0.00000000

---------------------------
INTERNAL COORDINATES (A.U.)
---------------------------
 Co     0   0   0     0.000000000000     0.00000000     0.00000000
 Br     1   0   0     4.169789396574     0.00000000     0.00000000

---------------------
BASIS SET INFORMATION
---------------------
There are 2 groups of distinct atoms

 Group   1 Type Co  : 17s12p7d2f1g contracted to 6s5p4d2f1g pattern {842111/63111/4111/11/1}
 Group   2 Type Br  : 17s13p8d1f contracted to 6s5p4d1f pattern {842111/64111/5111/1}

Atom   0Co   basis set group =>   1
Atom   1Br   basis set group =>   2
---------------------------------
AUXILIARY/J BASIS SET INFORMATION
---------------------------------
There are 2 groups of distinct atoms

 Group   1 Type Co  : 19s5p5d3f3g contracted to 8s5p5d2f3g pattern {121111111/11111/11111/21/111}
 Group   2 Type Br  : 19s5p5d3f1g contracted to 8s4p3d2f1g pattern {121111111/2111/311/21/1}

Atom   0Co   basis set group =>   1
Atom   1Br   basis set group =>   2
---------------------------------
AUXILIARY/C BASIS SET INFORMATION
---------------------------------
There are 2 groups of distinct atoms

 Group   1 Type Co  : 9s9p8d7f5g3h1i contracted to 9s9p8d7f5g3h1i pattern {111111111/111111111/11111111/1111111/11111/111/1}
 Group   2 Type Br  : 10s9p8d6f4g1h contracted to 10s9p8d5f4g1h pattern {1111111111/111111111/11111111/21111/1111/1}

Atom   0Co   basis set group =>   1
Atom   1Br   basis set group =>   2
----------------------------------
AUXILIARY/JK BASIS SET INFORMATION
----------------------------------
There are 2 groups of distinct atoms

 Group   1 Type Co  : 19s14p12d10f7g3h1i contracted to 16s13p11d9f5g3h1i pattern {4111111111111111/2111111111111/21111111111/211111111/31111/111/1}
 Group   2 Type Br  : 20s14p13d10f7g3h contracted to 17s13p12d9f6g3h pattern {41111111111111111/2111111111111/211111111111/211111111/211111/111}

Atom   0Co   basis set group =>   1
Atom   1Br   basis set group =>   2


           ************************************************************
           *        Program running with 24 parallel MPI-processes    *
           *              working on a common directory               *
           ************************************************************
------------------------------------------------------------------------------
                           ORCA GTO INTEGRAL CALCULATION
------------------------------------------------------------------------------

                         BASIS SET STATISTICS AND STARTUP INFO

 # of primitive gaussian shells          ...   78
 # of primitive gaussian functions       ...  214
 # of contracted shells                  ...   34
 # of contracted basis functions         ...  112
 Highest angular momentum                ...    4
 Maximum contraction depth               ...    8
 Integral package used                   ... LIBINT
 Integral threshhold            Thresh   ...  1.000e-12
 Primitive cut-off              TCut     ...  1.000e-14


------------------------------ INTEGRAL EVALUATION ----------------------------


 * One electron integrals 
 Pre-screening matrix                    ... done
 Shell pair data                         ... done (   0.000 sec)



           ************************************************************
           *        Program running with 24 parallel MPI-processes    *
           *              working on a common directory               *
           ************************************************************
-------------------------------------------------------------------------------
                                 ORCA SCF
-------------------------------------------------------------------------------

------------
SCF SETTINGS
------------
Hamiltonian:
 Ab initio Hamiltonian  Method          .... Hartree-Fock(GTOs)


General Settings:
 Integral files         IntName         .... 40_CoBr
 Hartree-Fock type      HFTyp           .... UHF
 Total Charge           Charge          ....    0
 Multiplicity           Mult            ....    3
 Number of Electrons    NEL             ....   62
 Basis Dimension        Dim             ....  112
 Nuclear Repulsion      ENuc            ....    226.6301508600 Eh

Convergence Acceleration:
 DIIS                   CNVDIIS         .... on
   Start iteration      DIISMaxIt       ....    12
   Startup error        DIISStart       ....  0.200000
   # of expansion vecs  DIISMaxEq       ....     5
   Bias factor          DIISBfac        ....   1.050
   Max. coefficient     DIISMaxC        ....  10.000
 Newton-Raphson         CNVNR           .... off
 SOSCF                  CNVSOSCF        .... off
 Level Shifting         CNVShift        .... on
   Level shift para.    LevelShift      ....    0.2500
   Turn off err/grad.   ShiftErr        ....    0.0010
 Zerner damping         CNVZerner       .... off
 Static damping         CNVDamp         .... on
   Fraction old density DampFac         ....    0.7000
   Max. Damping (<1)    DampMax         ....    0.9800
   Min. Damping (>=0)   DampMin         ....    0.0000
   Turn off err/grad.   DampErr         ....    0.1000
 Fernandez-Rico         CNVRico         .... off

SCF Procedure:
 Maximum # iterations   MaxIter         ....   125
 SCF integral mode      SCFMode         .... Direct
   Integral package                     .... LIBINT
 Reset frequency        DirectResetFreq ....    20
 Integral Threshold     Thresh          ....  1.000e-12 Eh
 Primitive CutOff       TCut            ....  1.000e-14 Eh

Convergence Tolerance:
 Convergence Check Mode ConvCheckMode   .... Total+1el-Energy
 Convergence forced     ConvForced      .... 1
 Energy Change          TolE            ....  1.000e-09 Eh
 1-El. energy change                    ....  1.000e-06 Eh
 DIIS Error             TolErr          ....  1.000e-08


Diagonalization of the overlap matrix:
Smallest eigenvalue                        ... 8.217e-03
Time for diagonalization                   ...    0.004 sec
Threshold for overlap eigenvalues          ... 1.000e-08
Number of eigenvalues below threshold      ... 0
Time for construction of square roots      ...    0.002 sec
Total time needed                          ...    0.006 sec

-------------------
DFT GRID GENERATION
-------------------

General Integration Accuracy     IntAcc      ...  4.340
Radial Grid Type                 RadialGrid  ... Gauss-Chebyshev
Angular Grid (max. acc.)         AngularGrid ... Lebedev-110
Angular grid pruning method      GridPruning ... 3 (G Style)
Weight generation scheme         WeightScheme... Becke
Basis function cutoff            BFCut       ...    1.0000e-12
Integration weight cutoff        WCut        ...    1.0000e-14
Grids for H and He will be reduced by one unit

# of grid points (after initial pruning)     ...   5802 (   0.0 sec)
# of grid points (after weights+screening)   ...   5777 (   0.0 sec)
nearest neighbour list constructed           ...    0.0 sec
Grid point re-assignment to atoms done       ...    0.0 sec
Grid point division into batches done        ...    0.0 sec
Reduced shell lists constructed in    0.0 sec

Total number of grid points                  ...     5777
Total number of batches                      ...       91
Average number of points per batch           ...       63
Average number of grid points per atom       ...     2888
Average number of shells per batch           ...     8.00 (23.53%)
Average number of basis functions per batch  ...    24.00 (21.43%)
Average number of large shells per batch     ...     7.20 (90.00%)
Average number of large basis fcns per batch ...    21.60 (90.00%)
Maximum spatial batch extension              ...  18.98, 28.73, 16.15 au
Average spatial batch extension              ...   0.78,  1.06,  0.71 au

Time for grid setup =    0.031 sec

------------------------------
INITIAL GUESS: MODEL POTENTIAL
------------------------------
Loading Hartree-Fock densities                     ... done
Calculating cut-offs                               ... done
Setting up the integral package                    ... done
Initializing the effective Hamiltonian             ... done
Starting the Coulomb interaction                   ... done (   0.0 sec)
Reading the grid                                   ... done
Mapping shells                                     ... done
Starting the XC term evaluation                    ... done (   0.0 sec)
Transforming the Hamiltonian                       ... done (   0.0 sec)
Diagonalizing the Hamiltonian                      ... done (   0.0 sec)
Back transforming the eigenvectors                 ... done (   0.0 sec)
Now organizing SCF variables                       ... done
                      ------------------
                      INITIAL GUESS DONE (   0.1 sec)
                      ------------------
--------------
SCF ITERATIONS
--------------
ITER       Energy         Delta-E        Max-DP      RMS-DP      [F,P]     Damp
               ***  Starting incremental Fock matrix formation  ***
  0  -3953.3979178207   0.000000000000 0.02817270  0.00107513  0.3521306 0.7000
  1  -3953.5258914766  -0.127973655808 0.01990673  0.00068494  0.1747756 0.7000
                               ***Turning on DIIS***
  2  -3953.5898829455  -0.063991468960 0.01785750  0.00049172  0.1139874 0.7000
  3  -3953.6385943510  -0.048711405471 0.06218845  0.00146569  0.0915438 0.0000
  4  -3953.8027409996  -0.164146648657 0.01332800  0.00045355  0.0398202 0.0000
  5  -3953.6192247993   0.183516200383 0.00787446  0.00025086  0.0230261 0.0000
  6  -3953.9260619375  -0.306837138220 0.00439030  0.00012304  0.0127487 0.0000
  7  -3953.7763513046   0.149710632836 0.00485940  0.00008936  0.0063216 0.0000
  8  -3953.7902698855  -0.013918580855 0.00445149  0.00006743  0.0044328 0.0000
  9  -3953.7973990452  -0.007129159675 0.00445232  0.00005891  0.0028353 0.0000
 10  -3953.7989171634  -0.001518118215 0.00289653  0.00003630  0.0015930 0.0000
 11  -3953.8028581821  -0.003941018664 0.00213793  0.00003046  0.0008461 0.0000
 12  -3953.8083289985  -0.005470816488 0.00019898  0.00000609  0.0005084 0.0000
 13  -3953.8035186063   0.004810392225 0.00018690  0.00000507  0.0001924 0.0000
 14  -3953.8065456789  -0.003027072577 0.00007648  0.00000266  0.0000555 0.0000
 15  -3953.8061326606   0.000413018323 0.00003553  0.00000114  0.0000058 0.0000
 16  -3953.8061398463  -0.000007185708 0.00002065  0.00000064  0.0000036 0.0000
 17  -3953.8061576062  -0.000017759899 0.00001536  0.00000049  0.0000023 0.0000
 18  -3953.8061558330   0.000001773213 0.00001051  0.00000033  0.0000010 0.0000
 19  -3953.8061667170  -0.000010884080 0.00000800  0.00000016  0.0000009 0.0000
               *** Restarting incremental Fock matrix formation ***
                                   *** Resetting DIIS ***
 20  -3953.8061628481   0.000003868934 0.00000548  0.00000009  0.0000009 0.0000
 21  -3953.8061478501   0.000014997959 0.00000115  0.00000002  0.0000009 0.0000
 22  -3953.8061562332  -0.000008383093 0.00000352  0.00000006  0.0000007 0.0000
 23  -3953.8061759493  -0.000019716062 0.00001356  0.00000022  0.0000007 0.0000
 24  -3953.8061923968  -0.000016447500 0.00001988  0.00000032  0.0000005 0.0000
 25  -3953.8061637831   0.000028613735 0.00000122  0.00000002  0.0000002 0.0000
 26  -3953.8061566882   0.000007094894 0.00000469  0.00000008  0.0000001 0.0000
                            ***DIIS convergence achieved***

               *****************************************************
               *                     SUCCESS                       *
               *           SCF CONVERGED AFTER  27 CYCLES          *
               *****************************************************


----------------
TOTAL SCF ENERGY
----------------

Total Energy       :        -3953.80616223 Eh         -107588.53537 eV

Components:
Nuclear Repulsion  :          226.63015086 Eh            6166.91993 eV
Electronic Energy  :        -4180.43631309 Eh         -113755.45529 eV
One Electron Energy:        -5956.57231049 Eh         -162086.57289 eV
Two Electron Energy:         1776.13599739 Eh           48331.11760 eV

Virial components:
Potential Energy   :        -7907.48405060 Eh         -215173.58023 eV
Kinetic Energy     :         3953.67788837 Eh          107585.04486 eV
Virial Ratio       :            2.00003244


---------------
SCF CONVERGENCE
---------------

  Last Energy change         ...   -5.5431e-06  Tolerance :   1.0000e-09
  Last MAX-Density change    ...    5.1803e-07  Tolerance :   1.0000e-08
  Last RMS-Density change    ...    8.9283e-09  Tolerance :   1.0000e-09
  Last DIIS Error            ...    1.9632e-08  Tolerance :   1.0000e-08

             **** THE GBW FILE WAS UPDATED (40_CoBr.gbw) ****
             **** DENSITY FILE WAS UPDATED (40_CoBr.scfp) ****
             **** ENERGY FILE WAS UPDATED (40_CoBr.en.tmp) ****
----------------------
UHF SPIN CONTAMINATION
----------------------

Expectation value of <S**2>     :     2.015247
Ideal value S*(S+1) for S=1.0   :     2.000000
Deviation                       :     0.015247

             **** THE GBW FILE WAS UPDATED (40_CoBr.gbw) ****
             **** DENSITY FILE WAS UPDATED (40_CoBr.scfp) ****
----------------
ORBITAL ENERGIES
----------------
                 SPIN UP ORBITALS
  NO   OCC          E(Eh)            E(eV) 
   0   1.0000    -489.947745    -13332.1559 
   1   1.0000    -282.909655     -7698.3631 
   2   1.0000     -65.090946     -1771.2147 
   3   1.0000     -58.445360     -1590.3791 
   4   1.0000     -58.445275     -1590.3768 
   5   1.0000     -58.445275     -1590.3768 
   6   1.0000     -34.720974      -944.8057 
   7   1.0000     -29.997232      -816.2662 
   8   1.0000     -29.966726      -815.4361 
   9   1.0000     -29.966726      -815.4361 
  10   1.0000      -9.764744      -265.7122 
  11   1.0000      -7.373838      -200.6523 
  12   1.0000      -7.372081      -200.6045 
  13   1.0000      -7.372081      -200.6045 
  14   1.0000      -4.447039      -121.0101 
  15   1.0000      -3.115121       -84.7667 
  16   1.0000      -3.113979       -84.7357 
  17   1.0000      -3.113979       -84.7357 
  18   1.0000      -3.111883       -84.6786 
  19   1.0000      -3.111883       -84.6786 
  20   1.0000      -3.016368       -82.0796 
  21   1.0000      -2.939038       -79.9753 
  22   1.0000      -2.939038       -79.9753 
  23   1.0000      -0.935703       -25.4618 
  24   1.0000      -0.569211       -15.4890 
  25   1.0000      -0.569211       -15.4890 
  26   1.0000      -0.531600       -14.4656 
  27   1.0000      -0.481948       -13.1145 
  28   1.0000      -0.481948       -13.1145 
  29   1.0000      -0.383360       -10.4317 
  30   1.0000      -0.363773        -9.8988 
  31   1.0000      -0.363773        -9.8988 
  32   0.0000      -0.005013        -0.1364 
  33   0.0000       0.127731         3.4757 
  34   0.0000       0.127731         3.4757 
  35   0.0000       0.187747         5.1089 
  36   0.0000       0.254040         6.9128 
  37   0.0000       0.284019         7.7285 
  38   0.0000       0.284019         7.7285 
  39   0.0000       0.318233         8.6596 
  40   0.0000       0.318233         8.6596 
  41   0.0000       0.320035         8.7086 
  42   0.0000       0.422939        11.5088 
  43   0.0000       0.422939        11.5088 
  44   0.0000       0.467248        12.7145 
  45   0.0000       0.533281        14.5113 
  46   0.0000       0.533281        14.5113 
  47   0.0000       0.563866        15.3436 
  48   0.0000       0.637950        17.3595 
  49   0.0000       0.637950        17.3595 
  50   0.0000       0.699773        19.0418 
  51   0.0000       0.699773        19.0418 
  52   0.0000       0.853702        23.2304 
  53   0.0000       1.180478        32.1224 
  54   0.0000       1.180478        32.1224 
  55   0.0000       1.195579        32.5333 
  56   0.0000       1.195579        32.5333 
  57   0.0000       1.198123        32.6026 
  58   0.0000       1.349445        36.7203 
  59   0.0000       1.667871        45.3851 
  60   0.0000       1.667871        45.3851 
  61   0.0000       1.735032        47.2126 
  62   0.0000       1.746205        47.5167 
  63   0.0000       1.746205        47.5167 
  64   0.0000       1.872859        50.9631 
  65   0.0000       1.872859        50.9631 
  66   0.0000       1.875319        51.0300 
  67   0.0000       1.875319        51.0300 
  68   0.0000       1.967804        53.5467 
  69   0.0000       1.967804        53.5467 
  70   0.0000       1.969879        53.6031 
  71   0.0000       1.985629        54.0317 
  72   0.0000       1.985629        54.0317 
  73   0.0000       2.333332        63.4932 
  74   0.0000       2.982887        81.1685 
  75   0.0000       2.982887        81.1685 
  76   0.0000       3.009512        81.8930 
  77   0.0000       3.012408        81.9718 
  78   0.0000       3.012408        81.9718 
  79   0.0000       3.052144        83.0531 
  80   0.0000       3.052144        83.0531 
  81   0.0000       3.148298        85.6695 
  82   0.0000       3.148298        85.6695 
  83   0.0000       3.276336        89.1536 
  84   0.0000       3.657255        99.5190 
  85   0.0000       4.341942       118.1503 
  86   0.0000       4.341942       118.1503 
  87   0.0000       4.351224       118.4028 
  88   0.0000       4.351224       118.4028 
  89   0.0000       4.474389       121.7543 
  90   0.0000       4.512312       122.7862 
  91   0.0000       4.512312       122.7862 
  92   0.0000       4.607134       125.3665 
  93   0.0000       4.607134       125.3665 
  94   0.0000       4.734095       128.8213 
  95   0.0000       8.130609       221.2451 
  96   0.0000      10.619428       288.9693 
  97   0.0000      10.619428       288.9693 
  98   0.0000      10.627523       289.1896 
  99   0.0000      10.627523       289.1896 
 100   0.0000      10.631936       289.3097 
 101   0.0000      10.631936       289.3097 
 102   0.0000      10.641454       289.5687 
 103   0.0000      10.696786       291.0743 
 104   0.0000      10.696786       291.0743 
 105   0.0000      11.216619       305.2197 
 106   0.0000      11.216619       305.2197 
 107   0.0000      11.255505       306.2779 
 108   0.0000      11.255505       306.2779 
 109   0.0000      11.292895       307.2953 
 110   0.0000      11.292895       307.2953 
 111   0.0000      11.419589       310.7428 

                 SPIN DOWN ORBITALS
  NO   OCC          E(Eh)            E(eV) 
   0   1.0000    -489.947636    -13332.1530 
   1   1.0000    -282.908303     -7698.3263 
   2   1.0000     -65.090880     -1771.2129 
   3   1.0000     -58.445435     -1590.3811 
   4   1.0000     -58.445046     -1590.3706 
   5   1.0000     -58.445046     -1590.3706 
   6   1.0000     -34.653525      -942.9704 
   7   1.0000     -29.911761      -813.9404 
   8   1.0000     -29.911761      -813.9404 
   9   1.0000     -29.908498      -813.8516 
  10   1.0000      -9.764532      -265.7064 
  11   1.0000      -7.374081      -200.6590 
  12   1.0000      -7.371534      -200.5896 
  13   1.0000      -7.371534      -200.5896 
  14   1.0000      -4.260376      -115.9307 
  15   1.0000      -3.115065       -84.7652 
  16   1.0000      -3.113876       -84.7329 
  17   1.0000      -3.113876       -84.7329 
  18   1.0000      -3.111585       -84.6705 
  19   1.0000      -3.111585       -84.6705 
  20   1.0000      -2.754368       -74.9502 
  21   1.0000      -2.754368       -74.9502 
  22   1.0000      -2.710315       -73.7514 
  23   1.0000      -0.932666       -25.3791 
  24   1.0000      -0.476994       -12.9797 
  25   1.0000      -0.389699       -10.6043 
  26   1.0000      -0.389699       -10.6043 
  27   1.0000      -0.370522       -10.0824 
  28   1.0000      -0.370522       -10.0824 
  29   1.0000      -0.367713       -10.0060 
  30   0.0000       0.004091         0.1113 
  31   0.0000       0.124661         3.3922 
  32   0.0000       0.124661         3.3922 
  33   0.0000       0.192418         5.2360 
  34   0.0000       0.254667         6.9298 
  35   0.0000       0.254667         6.9298 
  36   0.0000       0.264077         7.1859 
  37   0.0000       0.287981         7.8364 
  38   0.0000       0.287981         7.8364 
  39   0.0000       0.324731         8.8364 
  40   0.0000       0.417737        11.3672 
  41   0.0000       0.417737        11.3672 
  42   0.0000       0.452207        12.3052 
  43   0.0000       0.452207        12.3052 
  44   0.0000       0.471756        12.8371 
  45   0.0000       0.534883        14.5549 
  46   0.0000       0.534883        14.5549 
  47   0.0000       0.575785        15.6679 
  48   0.0000       0.648365        17.6429 
  49   0.0000       0.648365        17.6429 
  50   0.0000       0.714813        19.4511 
  51   0.0000       0.714813        19.4511 
  52   0.0000       0.871222        23.7071 
  53   0.0000       1.203141        32.7391 
  54   0.0000       1.217246        33.1229 
  55   0.0000       1.217246        33.1229 
  56   0.0000       1.309537        35.6343 
  57   0.0000       1.309537        35.6343 
  58   0.0000       1.364038        37.1174 
  59   0.0000       1.669461        45.4283 
  60   0.0000       1.669461        45.4283 
  61   0.0000       1.743827        47.4519 
  62   0.0000       1.750202        47.6254 
  63   0.0000       1.750202        47.6254 
  64   0.0000       1.874203        50.9996 
  65   0.0000       1.874203        50.9996 
  66   0.0000       1.876980        51.0752 
  67   0.0000       1.876980        51.0752 
  68   0.0000       1.969384        53.5897 
  69   0.0000       1.969384        53.5897 
  70   0.0000       1.969927        53.6044 
  71   0.0000       1.996348        54.3234 
  72   0.0000       1.996348        54.3234 
  73   0.0000       2.348651        63.9100 
  74   0.0000       3.042757        82.7976 
  75   0.0000       3.042757        82.7976 
  76   0.0000       3.069464        83.5244 
  77   0.0000       3.069464        83.5244 
  78   0.0000       3.070541        83.5537 
  79   0.0000       3.132463        85.2386 
  80   0.0000       3.132463        85.2386 
  81   0.0000       3.220113        87.6237 
  82   0.0000       3.220113        87.6237 
  83   0.0000       3.332969        90.6947 
  84   0.0000       3.706169       100.8500 
  85   0.0000       4.393792       119.5612 
  86   0.0000       4.393792       119.5612 
  87   0.0000       4.501292       122.4864 
  88   0.0000       4.501292       122.4864 
  89   0.0000       4.513472       122.8178 
  90   0.0000       4.513875       122.8288 
  91   0.0000       4.513875       122.8288 
  92   0.0000       4.618193       125.6674 
  93   0.0000       4.618193       125.6674 
  94   0.0000       4.741400       129.0200 
  95   0.0000       8.130961       221.2547 
  96   0.0000      10.705439       291.3098 
  97   0.0000      10.705439       291.3098 
  98   0.0000      10.710089       291.4363 
  99   0.0000      10.716726       291.6169 
 100   0.0000      10.716726       291.6169 
 101   0.0000      10.721136       291.7369 
 102   0.0000      10.721136       291.7369 
 103   0.0000      10.727910       291.9213 
 104   0.0000      10.727910       291.9213 
 105   0.0000      11.347200       308.7730 
 106   0.0000      11.347200       308.7730 
 107   0.0000      11.408548       310.4424 
 108   0.0000      11.408548       310.4424 
 109   0.0000      11.417279       310.6799 
 110   0.0000      11.417279       310.6799 
 111   0.0000      11.532483       313.8148 

                    ********************************
                    * MULLIKEN POPULATION ANALYSIS *
                    ********************************

--------------------------------------------
MULLIKEN ATOMIC CHARGES AND SPIN POPULATIONS
--------------------------------------------
   0 Co:    0.610839    1.981722
   1 Br:   -0.610839    0.018278
Sum of atomic charges         :   -0.0000000
Sum of atomic spin populations:    2.0000000

-----------------------------------------------------
MULLIKEN REDUCED ORBITAL CHARGES AND SPIN POPULATIONS
-----------------------------------------------------
CHARGE
  0 Cos       :     6.240957  s :     6.240957
      pz      :     4.076310  p :    12.157376
      px      :     4.040533
      py      :     4.040533
      dz2     :     1.952150  d :     7.988616
      dxz     :     1.018936
      dyz     :     1.018936
      dx2y2   :     1.999297
      dxy     :     1.999297
      f0      :     0.001070  f :     0.002105
      f+1     :     0.000474
      f-1     :     0.000474
      f+2     :     0.000044
      f-2     :     0.000044
      f+3     :     0.000000
      f-3     :     0.000000
      g0      :     0.000044  g :     0.000108
      g+1     :     0.000009
      g-1     :     0.000009
      g+2     :     0.000022
      g-2     :     0.000022
      g+3     :     0.000000
      g-3     :     0.000000
      g+4     :     0.000000
      g-4     :     0.000000
  1 Brs       :     7.937382  s :     7.937382
      pz      :     5.780655  p :    17.650182
      px      :     5.934764
      py      :     5.934764
      dz2     :     2.009720  d :    10.020263
      dxz     :     2.004750
      dyz     :     2.004750
      dx2y2   :     2.000522
      dxy     :     2.000522
      f0      :     0.001712  f :     0.003011
      f+1     :     0.000534
      f-1     :     0.000534
      f+2     :     0.000115
      f-2     :     0.000115
      f+3     :     0.000000
      f-3     :     0.000000

SPIN
  0 Cos       :    -0.012065  s :    -0.012065
      pz      :     0.009178  p :     0.010133
      px      :     0.000478
      py      :     0.000478
      dz2     :     0.020783  d :     1.984056
      dxz     :     0.981513
      dyz     :     0.981513
      dx2y2   :     0.000124
      dxy     :     0.000124
      f0      :    -0.000392  f :    -0.000425
      f+1     :    -0.000018
      f-1     :    -0.000018
      f+2     :     0.000001
      f-2     :     0.000001
      f+3     :     0.000000
      f-3     :     0.000000
      g0      :    -0.000022  g :     0.000024
      g+1     :     0.000008
      g-1     :     0.000008
      g+2     :     0.000015
      g-2     :     0.000015
      g+3     :     0.000000
      g-3     :     0.000000
      g+4     :     0.000000
      g-4     :     0.000000
  1 Brs       :    -0.001519  s :    -0.001519
      pz      :    -0.015974  p :     0.020419
      px      :     0.018196
      py      :     0.018196
      dz2     :     0.000125  d :    -0.000844
      dxz     :    -0.000365
      dyz     :    -0.000365
      dx2y2   :    -0.000120
      dxy     :    -0.000120
      f0      :    -0.000114  f :     0.000223
      f+1     :     0.000188
      f-1     :     0.000188
      f+2     :    -0.000020
      f-2     :    -0.000020
      f+3     :     0.000000
      f-3     :     0.000000


                     *******************************
                     * LOEWDIN POPULATION ANALYSIS *
                     *******************************

-------------------------------------------
LOEWDIN ATOMIC CHARGES AND SPIN POPULATIONS
-------------------------------------------
   0 Co:    0.011640    1.965142
   1 Br:   -0.011640    0.034858

----------------------------------------------------
LOEWDIN REDUCED ORBITAL CHARGES AND SPIN POPULATIONS
----------------------------------------------------
CHARGE
  0 Cos       :     6.323683  s :     6.323683
      pz      :     4.253152  p :    12.395815
      px      :     4.071331
      py      :     4.071331
      dz2     :     2.080136  d :     8.264493
      dxz     :     1.093569
      dyz     :     1.093569
      dx2y2   :     1.998610
      dxy     :     1.998610
      f0      :     0.002458  f :     0.004257
      f+1     :     0.000854
      f-1     :     0.000854
      f+2     :     0.000046
      f-2     :     0.000046
      f+3     :     0.000000
      f-3     :     0.000000
      g0      :     0.000048  g :     0.000113
      g+1     :     0.000010
      g-1     :     0.000010
      g+2     :     0.000022
      g-2     :     0.000022
      g+3     :     0.000000
      g-3     :     0.000000
      g+4     :     0.000000
      g-4     :     0.000000
  1 Brs       :     7.604744  s :     7.604744
      pz      :     5.709237  p :    17.364533
      px      :     5.827648
      py      :     5.827648
      dz2     :     2.022631  d :    10.035988
      dxz     :     2.005588
      dyz     :     2.005588
      dx2y2   :     2.001090
      dxy     :     2.001090
      f0      :     0.003910  f :     0.006374
      f+1     :     0.001000
      f-1     :     0.001000
      f+2     :     0.000232
      f-2     :     0.000232
      f+3     :     0.000000
      f-3     :     0.000000

SPIN
  0 Cos       :    -0.016809  s :    -0.016809
      pz      :     0.006538  p :     0.011262
      px      :     0.002362
      py      :     0.002362
      dz2     :     0.018543  d :     1.971092
      dxz     :     0.975960
      dyz     :     0.975960
      dx2y2   :     0.000315
      dxy     :     0.000315
      f0      :    -0.000435  f :    -0.000426
      f+1     :     0.000004
      f-1     :     0.000004
      f+2     :     0.000001
      f-2     :     0.000001
      f+3     :     0.000000
      f-3     :     0.000000
      g0      :    -0.000022  g :     0.000022
      g+1     :     0.000007
      g-1     :     0.000007
      g+2     :     0.000015
      g-2     :     0.000015
      g+3     :     0.000000
      g-3     :     0.000000
      g+4     :     0.000000
      g-4     :     0.000000
  1 Brs       :    -0.000205  s :    -0.000205
      pz      :    -0.007811  p :     0.026674
      px      :     0.017243
      py      :     0.017243
      dz2     :     0.000325  d :     0.006876
      dxz     :     0.003561
      dyz     :     0.003561
      dx2y2   :    -0.000286
      dxy     :    -0.000286
      f0      :    -0.000125  f :     0.001513
      f+1     :     0.000864
      f-1     :     0.000864
      f+2     :    -0.000045
      f-2     :    -0.000045
      f+3     :     0.000000
      f-3     :     0.000000


                      *****************************
                      * MAYER POPULATION ANALYSIS *
                      *****************************

  NA   - Mulliken gross atomic population
  ZA   - Total nuclear charge
  QA   - Mulliken gross atomic charge
  VA   - Mayer's total valence
  BVA  - Mayer's bonded valence
  FA   - Mayer's free valence

  ATOM       NA         ZA         QA         VA         BVA        FA
  0 Co    26.3892    27.0000     0.6108     2.7583     0.7642     1.9941
  1 Br    35.6108    35.0000    -0.6108     0.7664     0.7642     0.0021

  Mayer bond orders larger than 0.100000
B(  0-Co,  1-Br) :   0.7642 

-------
TIMINGS
-------

Total SCF time: 0 days 0 hours 0 min 5 sec 

Total time                  ....       5.144 sec
Sum of individual times     ....       4.858 sec  ( 94.4%)

Fock matrix formation       ....       4.572 sec  ( 88.9%)
Diagonalization             ....       0.082 sec  (  1.6%)
Density matrix formation    ....       0.014 sec  (  0.3%)
Population analysis         ....       0.006 sec  (  0.1%)
Initial guess               ....       0.112 sec  (  2.2%)
Orbital Transformation      ....       0.000 sec  (  0.0%)
Orbital Orthonormalization  ....       0.000 sec  (  0.0%)
DIIS solution               ....       0.041 sec  (  0.8%)


           ************************************************************
           *        Program running with 24 parallel MPI-processes    *
           *              working on a common directory               *
           ************************************************************


------------------------------------------------------------------------------- 
                              ORCA-MATRIX DRIVEN CI                            
------------------------------------------------------------------------------- 

--------------------------------
AUTOMATIC CHOICE OF INCORE LEVEL
--------------------------------

Memory available                           ...   2500.00 MB
Memory needed for S+T                      ...     25.05 MB
Memory needed for J+K                      ...     50.31 MB
Memory needed for DIIS                     ...    350.68 MB
Memory needed for 3-ext                    ...     70.31 MB
Memory needed for 4-ext                    ...    158.20 MB
Memory needed for triples                  ...     19.53 MB
 -> Final InCoreLevel    ... 5
 -> check shows that triples correction can be computed


Wavefunction type
-----------------
Correlation treatment                      ...      CCSD     
Single excitations                         ... ON
Orbital optimization                       ... OFF
Calculation of Z vector                    ... OFF
Calculation of Brueckner orbitals          ... OFF
Perturbative triple excitations            ... ON
Calculation of F12 correction              ... OFF
Frozen core treatment                      ... chemical core (28 el)
Reference Wavefunction                     ... UHF
  Alpha-MOs occ    :    14 ...   31 ( 18 MO's/ 18 electrons)
  Beta-MOs occ     :    14 ...   29 ( 16 MO's/ 16 electrons)
  Alpha-MOs virt   :    32 ...  111 ( 80 MO's              )
  Beta-MOs virt    :    30 ...  111 ( 82 MO's              )
Number of AO's                             ...    112
Number of electrons                        ...     62
Number of correlated electrons             ...     34

Algorithmic settings
--------------------
Integral transformation                    ... AO direct full transformation
K(C) Formation                             ... FULL-MO TRAFO
Maximum number of iterations               ...        50
Convergence tolerance (max. residuum)      ... 1.000e-06
Level shift for amplitude update           ... 2.000e-01
Maximum number of DIIS vectors             ...         7
DIIS turned on at iteration                ...         0
Damping before turning on DIIS             ...     0.500
Damping after turning on DIIS              ...     0.000
Pair specific amplitude update             ... OFF
Natural orbital iterations                 ... OFF
Perturbative natural orbital generation    ... OFF
Printlevel                                 ... 2

Memory handling:
----------------
Maximum memory for working arrays          ...   2500 MB
Data storage in matrix containers          ... UNCOMPRESSED
Data type for integral storage             ... DOUBLE
In-Core Storage of quantities:
   Amplitudes+Sigma Vector      ... YES
   J+K operators                ... YES
   DIIS vectors                 ... YES
   3-external integrals         ... YES
   4-external integrals         ... YES


Initializing the integral package          ... done
Warning: reference  - re-canonicalizations have been set to INT 1 VIRT 1

--------------------------
UNRESTRICTED FOCK OPERATOR
--------------------------

<ss|ss>:         2415 b           66 skpd (  2.7%)    0.001 s ( 0.000 ms/b)
<ss|sp>:         7728 b          286 skpd (  3.7%)    0.002 s ( 0.000 ms/b)
<ss|sd>:         6348 b          185 skpd (  2.9%)    0.002 s ( 0.000 ms/b)
<ss|sf>:         2277 b           68 skpd (  3.0%)    0.001 s ( 0.000 ms/b)
<ss|sg>:          690 b           32 skpd (  4.6%)    0.001 s ( 0.001 ms/b)
<ss|pp>:         3726 b          161 skpd (  4.3%)    0.002 s ( 0.000 ms/b)
<ss|pd>:         5382 b          146 skpd (  2.7%)    0.002 s ( 0.000 ms/b)
<ss|pf>:         2001 b           62 skpd (  3.1%)    0.001 s ( 0.000 ms/b)
<ss|pg>:          621 b           20 skpd (  3.2%)    0.001 s ( 0.001 ms/b)
<ss|dd>:         2484 b           60 skpd (  2.4%)    0.002 s ( 0.001 ms/b)
<ss|df>:         1656 b           74 skpd (  4.5%)    0.001 s ( 0.000 ms/b)
<ss|dg>:          552 b           22 skpd (  4.0%)    0.001 s ( 0.002 ms/b)
<ss|ff>:          414 b            8 skpd (  1.9%)    0.000 s ( 0.001 ms/b)
<ss|fg>:          207 b            5 skpd (  2.4%)    0.000 s ( 0.002 ms/b)
<ss|gg>:           69 b            1 skpd (  1.4%)    0.001 s ( 0.009 ms/b)
<sp|sp>:         6328 b          301 skpd (  4.8%)    0.002 s ( 0.000 ms/b)
<sp|sd>:        10304 b          401 skpd (  3.9%)    0.004 s ( 0.000 ms/b)
<sp|sf>:         3696 b          134 skpd (  3.6%)    0.001 s ( 0.000 ms/b)
<sp|sg>:         1120 b           68 skpd (  6.1%)    0.001 s ( 0.001 ms/b)
<sp|pp>:         6048 b          291 skpd (  4.8%)    0.003 s ( 0.001 ms/b)
<sp|pd>:         8736 b          251 skpd (  2.9%)    0.006 s ( 0.001 ms/b)
<sp|pf>:         3248 b          102 skpd (  3.1%)    0.002 s ( 0.001 ms/b)
<sp|pg>:         1008 b           31 skpd (  3.1%)    0.002 s ( 0.002 ms/b)
<sp|dd>:         4032 b          119 skpd (  3.0%)    0.006 s ( 0.002 ms/b)
<sp|df>:         2688 b          152 skpd (  5.7%)    0.002 s ( 0.001 ms/b)
<sp|dg>:          896 b           40 skpd (  4.5%)    0.002 s ( 0.003 ms/b)
<sp|ff>:          672 b           18 skpd (  2.7%)    0.001 s ( 0.002 ms/b)
<sp|fg>:          336 b            9 skpd (  2.7%)    0.002 s ( 0.005 ms/b)
<sp|gg>:          112 b            3 skpd (  2.7%)    0.002 s ( 0.020 ms/b)
<sd|sd>:         4278 b           99 skpd (  2.3%)    0.003 s ( 0.001 ms/b)
<sd|sf>:         3036 b           92 skpd (  3.0%)    0.001 s ( 0.000 ms/b)
<sd|sg>:          920 b           60 skpd (  6.5%)    0.002 s ( 0.002 ms/b)
<sd|pp>:         4968 b          236 skpd (  4.8%)    0.005 s ( 0.001 ms/b)
<sd|pd>:         7176 b          110 skpd (  1.5%)    0.008 s ( 0.001 ms/b)
<sd|pf>:         2668 b           66 skpd (  2.5%)    0.003 s ( 0.001 ms/b)
<sd|pg>:          828 b           17 skpd (  2.1%)    0.004 s ( 0.004 ms/b)
<sd|dd>:         3312 b           36 skpd (  1.1%)    0.009 s ( 0.003 ms/b)
<sd|df>:         2208 b           87 skpd (  3.9%)    0.004 s ( 0.002 ms/b)
<sd|dg>:          736 b           21 skpd (  2.9%)    0.005 s ( 0.006 ms/b)
<sd|ff>:          552 b            8 skpd (  1.4%)    0.002 s ( 0.004 ms/b)
<sd|fg>:          276 b            3 skpd (  1.1%)    0.003 s ( 0.010 ms/b)
<sd|gg>:           92 b            1 skpd (  1.1%)    0.004 s ( 0.043 ms/b)
<sf|sf>:          561 b           15 skpd (  2.7%)    0.000 s ( 0.001 ms/b)
<sf|sg>:          330 b           26 skpd (  7.9%)    0.001 s ( 0.003 ms/b)
<sf|pp>:         1782 b           76 skpd (  4.3%)    0.003 s ( 0.001 ms/b)
<sf|pd>:         2574 b           34 skpd (  1.3%)    0.004 s ( 0.002 ms/b)
<sf|pf>:          957 b           19 skpd (  2.0%)    0.002 s ( 0.002 ms/b)
<sf|pg>:          297 b            6 skpd (  2.0%)    0.002 s ( 0.007 ms/b)
<sf|dd>:         1188 b           16 skpd (  1.3%)    0.005 s ( 0.004 ms/b)
<sf|df>:          792 b           42 skpd (  5.3%)    0.002 s ( 0.003 ms/b)
<sf|dg>:          264 b           15 skpd (  5.7%)    0.003 s ( 0.010 ms/b)
<sf|ff>:          198 b            1 skpd (  0.5%)    0.001 s ( 0.007 ms/b)
<sf|fg>:           99 b            1 skpd (  1.0%)    0.002 s ( 0.017 ms/b)
<sf|gg>:           33 b            0 skpd (  0.0%)    0.002 s ( 0.067 ms/b)
<sg|sg>:           55 b            6 skpd ( 10.9%)    0.000 s ( 0.004 ms/b)
<sg|pp>:          540 b           34 skpd (  6.3%)    0.001 s ( 0.003 ms/b)
<sg|pd>:          780 b           36 skpd (  4.6%)    0.002 s ( 0.003 ms/b)
<sg|pf>:          290 b           18 skpd (  6.2%)    0.001 s ( 0.003 ms/b)
<sg|pg>:           90 b            6 skpd (  6.7%)    0.001 s ( 0.011 ms/b)
<sg|dd>:          360 b           16 skpd (  4.4%)    0.002 s ( 0.007 ms/b)
<sg|df>:          240 b           28 skpd ( 11.7%)    0.001 s ( 0.004 ms/b)
<sg|dg>:           80 b            8 skpd ( 10.0%)    0.001 s ( 0.019 ms/b)
<sg|ff>:           60 b            4 skpd (  6.7%)    0.001 s ( 0.009 ms/b)
<sg|fg>:           30 b            3 skpd ( 10.0%)    0.001 s ( 0.030 ms/b)
<sg|gg>:           10 b            1 skpd ( 10.0%)    0.001 s ( 0.116 ms/b)
<pp|pp>:         1485 b           61 skpd (  4.1%)    0.003 s ( 0.002 ms/b)
<pp|pd>:         4212 b          127 skpd (  3.0%)    0.007 s ( 0.002 ms/b)
<pp|pf>:         1566 b           52 skpd (  3.3%)    0.003 s ( 0.002 ms/b)
<pp|pg>:          486 b           15 skpd (  3.1%)    0.003 s ( 0.006 ms/b)
<pp|dd>:         1944 b           65 skpd (  3.3%)    0.008 s ( 0.004 ms/b)
<pp|df>:         1296 b           68 skpd (  5.2%)    0.003 s ( 0.002 ms/b)
<pp|dg>:          432 b           19 skpd (  4.4%)    0.004 s ( 0.009 ms/b)
<pp|ff>:          324 b           12 skpd (  3.7%)    0.002 s ( 0.005 ms/b)
<pp|fg>:          162 b            6 skpd (  3.7%)    0.002 s ( 0.015 ms/b)
<pp|gg>:           54 b            2 skpd (  3.7%)    0.003 s ( 0.062 ms/b)
<pd|pd>:         3081 b            8 skpd (  0.3%)    0.011 s ( 0.004 ms/b)
<pd|pf>:         2262 b           11 skpd (  0.5%)    0.007 s ( 0.003 ms/b)
<pd|pg>:          702 b            3 skpd (  0.4%)    0.007 s ( 0.011 ms/b)
<pd|dd>:         2808 b            8 skpd (  0.3%)    0.019 s ( 0.007 ms/b)
<pd|df>:         1872 b           44 skpd (  2.4%)    0.008 s ( 0.004 ms/b)
<pd|dg>:          624 b            5 skpd (  0.8%)    0.010 s ( 0.016 ms/b)
<pd|ff>:          468 b            0 skpd (  0.0%)    0.005 s ( 0.010 ms/b)
<pd|fg>:          234 b            0 skpd (  0.0%)    0.006 s ( 0.027 ms/b)
<pd|gg>:           78 b            0 skpd (  0.0%)    0.009 s ( 0.116 ms/b)
<pf|pf>:          435 b            3 skpd (  0.7%)    0.002 s ( 0.004 ms/b)
<pf|pg>:          261 b            1 skpd (  0.4%)    0.004 s ( 0.014 ms/b)
<pf|dd>:         1044 b            8 skpd (  0.8%)    0.008 s ( 0.008 ms/b)
<pf|df>:          696 b           30 skpd (  4.3%)    0.004 s ( 0.006 ms/b)
<pf|dg>:          232 b            6 skpd (  2.6%)    0.005 s ( 0.021 ms/b)
<pf|ff>:          174 b            0 skpd (  0.0%)    0.003 s ( 0.016 ms/b)
<pf|fg>:           87 b            0 skpd (  0.0%)    0.004 s ( 0.041 ms/b)
<pf|gg>:           29 b            0 skpd (  0.0%)    0.005 s ( 0.160 ms/b)
<pg|pg>:           45 b            0 skpd (  0.0%)    0.001 s ( 0.023 ms/b)
<pg|dd>:          324 b            2 skpd (  0.6%)    0.004 s ( 0.014 ms/b)
<pg|df>:          216 b            9 skpd (  4.2%)    0.002 s ( 0.009 ms/b)
<pg|dg>:           72 b            1 skpd (  1.4%)    0.003 s ( 0.036 ms/b)
<pg|ff>:           54 b            0 skpd (  0.0%)    0.001 s ( 0.019 ms/b)
<pg|fg>:           27 b            0 skpd (  0.0%)    0.002 s ( 0.071 ms/b)
<pg|gg>:            9 b            0 skpd (  0.0%)    0.002 s ( 0.256 ms/b)
<dd|dd>:          666 b            1 skpd (  0.2%)    0.014 s ( 0.021 ms/b)
<dd|df>:          864 b           11 skpd (  1.3%)    0.006 s ( 0.008 ms/b)
<dd|dg>:          288 b            1 skpd (  0.3%)    0.008 s ( 0.029 ms/b)
<dd|ff>:          216 b            0 skpd (  0.0%)    0.004 s ( 0.018 ms/b)
<dd|fg>:          108 b            0 skpd (  0.0%)    0.006 s ( 0.051 ms/b)
<dd|gg>:           36 b            0 skpd (  0.0%)    0.008 s ( 0.217 ms/b)
<df|df>:          300 b           17 skpd (  5.7%)    0.004 s ( 0.015 ms/b)
<df|dg>:          192 b            6 skpd (  3.1%)    0.006 s ( 0.033 ms/b)
<df|ff>:          144 b            6 skpd (  4.2%)    0.004 s ( 0.028 ms/b)
<df|fg>:           72 b            3 skpd (  4.2%)    0.005 s ( 0.071 ms/b)
<df|gg>:           24 b            1 skpd (  4.2%)    0.006 s ( 0.282 ms/b)
<dg|dg>:           36 b            1 skpd (  2.8%)    0.003 s ( 0.099 ms/b)
<dg|ff>:           48 b            0 skpd (  0.0%)    0.002 s ( 0.034 ms/b)
<dg|fg>:           24 b            0 skpd (  0.0%)    0.003 s ( 0.117 ms/b)
<dg|gg>:            8 b            0 skpd (  0.0%)    0.004 s ( 0.455 ms/b)
<ff|ff>:           21 b            0 skpd (  0.0%)    0.001 s ( 0.051 ms/b)
<ff|fg>:           18 b            0 skpd (  0.0%)    0.002 s ( 0.105 ms/b)
<ff|gg>:            6 b            0 skpd (  0.0%)    0.003 s ( 0.489 ms/b)
<fg|fg>:            6 b            0 skpd (  0.0%)    0.001 s ( 0.236 ms/b)
<fg|gg>:            3 b            0 skpd (  0.0%)    0.002 s ( 0.662 ms/b)
<gg|gg>:            1 b            0 skpd (  0.0%)    0.001 s ( 1.136 ms/b)
Recanonicalizing the internal orbitals
Recanonicalizing the virtual orbitals
Time needed for Fock operator              ...            0.416 sec
Reference energy                           ...  -3953.806162849
Warning: for UHF the TrafoType has to be JK
Warning: for UHF the K(C)-option cannot be MO but must be AOX

-------------------------------
PARTIAL EXCHANGE TRANSFORMATION
-------------------------------

Transformation type                        ... two-operators
Generation of integrals (i,mue|j,nue)      ... ON
Generation of integrals (mue,kappa|nue,tau)... ON
Generation of integrals (i,mue|a,nue)      ... ON
Dimension of the basis                     ...  112
Number of internal alpha-MOs               ...   18 (  14-  31)
Number of internal beta-MOs                ...   16 (  14-  29)
Number of external alpha-MOs               ...   80 (  32- 111)
Number of external beta-MOs                ...   82 (  30- 111)
Pair cutoff                                ... 0.000e+00 Eh
Number of AO pairs in the trafo            ... 6328
Total Number of distinct AO pairs          ... 6328
Memory devoted for trafo                   ... 2500.0 MB 
Max. Number of MO pairs treated together   ... 26122      
Number Format for Storage                  ... Double (8 Byte)
Integral package used                      ... LIBINT

Starting integral evaluation:
    ... done with AO integral generation
Closing buffer AOK[aa] ( 0.00 GB; CompressionRatio= 1.00)
Closing buffer AOK[bb] ( 0.00 GB; CompressionRatio= 0.99)
Closing buffer AOK[ab] ( 0.00 GB; CompressionRatio= 0.99)
Closing buffer AOK[ba] ( 0.00 GB; CompressionRatio= 0.99)
Collecting buffer AOK 
Closing buffer IAAO1[aa] ( 0.00 GB; CompressionRatio= 1.00)
Closing buffer IAAO1[bb] ( 0.00 GB; CompressionRatio= 1.00)
Closing buffer IAAO1[ab] ( 0.00 GB; CompressionRatio= 1.00)
Closing buffer IAAO1[ba] ( 0.00 GB; CompressionRatio= 1.00)
Closing buffer IAAO2[aa] ( 0.00 GB; CompressionRatio= 1.00)
Closing buffer IAAO2[bb] ( 0.00 GB; CompressionRatio= 1.00)
Closing buffer IAAO2[ab] ( 0.00 GB; CompressionRatio= 1.00)
Closing buffer IAAO2[ba] ( 0.00 GB; CompressionRatio= 1.00)
Collecting buffer IAAO 
Closing buffer PRQS    ( 0.01 GB; CompressionRatio= 1.00)
Collecting buffer PRQS 
Number of alpha/alpha MO pairs in trafo    ...  171
Number of beta /beta  MO pairs in trafo    ...  136
Number of alpha/ beta MO pairs in trafo    ...  288
------------------------
SORTING OF (i,mue|j,nue)
------------------------

SORTING OF ALPHA/ALPHA PAIRS
IBATCH = 1 of  1
Closing buffer KAO[aa] ( 0.00 GB; CompressionRatio= 1.00)
Collecting buffer KAO 
SORTING OF BETA /BETA  PAIRS
IBATCH = 1 of  1
Closing buffer KAO[bb] ( 0.00 GB; CompressionRatio= 1.00)
Collecting buffer KAO 
SORTING OF ALPHA/BETA  PAIRS
IBATCH = 1 of  1
Closing buffer KAO[ab] ( 0.00 GB; CompressionRatio= 0.999880435216)
Collecting buffer KAO[ab] 
------------------------
SORTING OF (i,mue|a,nue)
------------------------

Number of alpha/alpha (i,a) pairs in trafo  ... 1440
Number of beta /beta  (i,a) pairs in trafo  ... 1312
Number of alpha/ beta (i,a) pairs in trafo  ... 1476
Number of beta /alpha (i,a) pairs in trafo  ... 1280
Setting up the alpha/alpha list             ... done
Setting up the beta /beta  list             ... done
Setting up the alpha/beta  list             ... done
Setting up the beta /alpha list             ... done
    ... Now sorting (i,mue|a,nue)integrals
    ... Integrals (i,b|a,c) will be made on the fly
SORTING OF ALPHA/ALPHA PAIRS
IBATCH = 1 of  1
Closing buffer IPAQ[aa]  0.00 GB; CompressionRatio= 1.00)
SORTING OF BETA /BETA  PAIRS
IBATCH = 1 of  1
Closing buffer IPAQ[bb]( 0.00 GB; CompressionRatio= 1.00)
SORTING OF ALPHA/BETA  PAIRS (NMatSort_ab=62)
IBATCH = 1 of  1
Closing buffer IPAQ[ab]( 0.00 GB; CompressionRatio= 1.00)
SORTING OF BETA/ALPHA  PAIRS
IBATCH = 1 of  1
Closing buffer IPAQ[ba]( 0.00 GB; CompressionRatio= 1.00)
N(AO-Batches) Done                         ...     11579 
N(AO-Batches) Skipped                      ...         0 
N(IJ)-pairs Skipped                        ...         0 
TOTAL TIME for half transformation         ...     2.164 sec
AO-integral generation                     ...     0.143 sec
Half transformation                        ...     0.036 sec
K-integral sorting                         ...     1.242 sec
<ss|**>: 
------------------------------
PARTIAL COULOMB TRANSFORMATION
------------------------------

Transformation type                        ... two-operators
Dimension of the basis                     ...  112
Number of internal alpha-MOs               ...   18 (14-31)
Number of internal beta-MOs                ...   16 (14-29)
Pair cutoff                                ... 0.000e+00 Eh
Number of AO pairs included in the trafo   ... 6327
Total Number of distinct AO pairs          ... 6328
Memory devoted for trafo                   ... 2500.0 MB 
Max. Number of MO pairs treated together   ... 51782      
Max. Number of MOs treated per batch       ...  462      
Number Format for Storage                  ... Double (8 Byte)
AO-integral source                         ... DIRECT
Integral package used                      ... LIBINT

Starting integral evaluation:
<sp|**>:        38916 b        0 skpd     0.014 s (  0.000 ms/b)
<sd|**>:        63168 b        0 skpd     0.024 s (  0.000 ms/b)
       51888 b        0 skpd     0.042 s (  0.001 ms/b)
<sf|**>:        18612 b        0 skpd     0.016 s (  0.001 ms/b)
<sg|**>:         5640 b        0 skpd     0.026 s (  0.005 ms/b)
<pp|**>:        30456 b        0 skpd     0.041 s (  0.001 ms/b)
<pd|**>:        43992 b        0 skpd     0.079 s (  0.002 ms/b)
<pf|**>:        16356 b        0 skpd     0.033 s (  0.002 ms/b)
<pg|**>:         5076 b        0 skpd     0.039 s (  0.008 ms/b)
<dd|**>:        20304 b        0 skpd     0.096 s (  0.005 ms/b)
<df|**>:        13536 b        0 skpd     0.038 s (  0.003 ms/b)
<dg|**>:         4512 b        0 skpd     0.049 s (  0.011 ms/b)
<ff|**>:         3384 b        0 skpd     0.021 s (  0.006 ms/b)
<fg|**>:         1692 b        0 skpd     0.031 s (  0.018 ms/b)
<gg|**>:          564 b        0 skpd     0.044 s (  0.079 ms/b)
Closing buffer AOJ[aa] ( 0.00 GB; CompressionRatio= 0.99)
Closing buffer AOJ[bb] ( 0.00 GB; CompressionRatio= 0.00)
Collecting buffer AOJ 
    ... done with AO integral generation
Number of Alpha-MO pairs included          ...  171
Number of Beta-MO pairs included           ...  136
    ... Now sorting integrals
SORTING ALPHA/ALPHA PAIRS
IBATCH = 1 of  1
Closing buffer JAO[aa] ( 0.00 GB; CompressionRatio= 1.00)
SORTING BETA/BETA PAIRS
IBATCH = 1 of  1
Closing buffer JAO[bb] ( 0.00 GB; CompressionRatio= 1.00)
Collecting buffer JAO 
TOTAL TIME for half transformation         ...     0.638 sec
AO-integral generation                     ...     0.591 sec
Half transformation                        ...     0.016 sec
J-integral sorting                         ...     0.025 sec

-------------------------- SECOND HALF TRANSFORMATION -------------------------
Formation of (ij|kl),(ij|ka), (ij|ab)      ... ok (     0.110 sec)
Formation of (ik|jl),(ik|ja), (ia|jb)      ... ok (     0.206 sec)


-----------------------
SPIN UNRESTRICTED GUESS
-----------------------

Entering MDCI_UHF_Guess, Tailored=0
Spin-components of the MP2 energy:
EMP2(aa)=     -0.183689890
EMP2(bb)=     -0.127637682
EMP2(ab)=     -0.639879776

Initial guess performed in     0.088 sec
E(0)                                       ...  -3953.806162849
E(MP2)                                     ...     -0.951207349
Initial E(tot)                             ...  -3954.757370198
<T|T>                                      ...      0.187299641
Number of pairs included                   ... 561

------------------------------------------------
                  UHF COUPLED CLUSTER ITERATIONS
------------------------------------------------

Number of amplitudes to be optimized       ...      2783696

Iter       E(tot)           E(Corr)          Delta-E          Residual     Time      <S|S>**1/2
  0  -3954.757370198     -0.951207349     -0.000000000      0.029711583    2.16      0.000000113
                           *** Turning on DIIS ***
  1  -3954.670082410     -0.863919561      0.087287788      0.012089986    2.26      0.077789069
  2  -3954.702980042     -0.896817193     -0.032897632      0.006447924    2.33      0.066641153
  3  -3954.704535202     -0.898372353     -0.001555160      0.005088896    2.35      0.084987204
  4  -3954.706652547     -0.900489698     -0.002117344      0.003962332    2.37      0.096045238
  5  -3954.708462397     -0.902299548     -0.001809850      0.002586083    2.46      0.115576145
  6  -3954.708951573     -0.902788723     -0.000489176      0.002346708    2.46      0.126832667
  7  -3954.709290000     -0.903127150     -0.000338427      0.001664604    2.56      0.137544545
  8  -3954.709461104     -0.903298255     -0.000171104      0.001308754    2.48      0.143163220
  9  -3954.709524585     -0.903361736     -0.000063481      0.000817823    2.45      0.147572835
 10  -3954.709627420     -0.903464571     -0.000102835      0.000540135    2.43      0.152151845
 11  -3954.709607167     -0.903444318      0.000020253      0.000374340    2.43      0.154437923
 12  -3954.709611857     -0.903449007     -0.000004689      0.000223811    2.41      0.156349852
 13  -3954.709628172     -0.903465323     -0.000016316      0.000172140    2.45      0.156984301
 14  -3954.709636933     -0.903474084     -0.000008761      0.000121257    2.42      0.157628167
 15  -3954.709639853     -0.903477004     -0.000002919      0.000089651    2.42      0.157672471
 16  -3954.709634484     -0.903471635      0.000005369      0.000050867    2.46      0.157711521
 17  -3954.709630024     -0.903467175      0.000004460      0.000028544    2.43      0.157560677
 18  -3954.709632024     -0.903469175     -0.000001999      0.000021514    2.48      0.157580449
 19  -3954.709632055     -0.903469205     -0.000000031      0.000013924    2.41      0.157540452
 20  -3954.709634143     -0.903471294     -0.000002088      0.000007670    2.41      0.157540973
 21  -3954.709634641     -0.903471792     -0.000000498      0.000004091    2.38      0.157537714
 22  -3954.709634769     -0.903471920     -0.000000128      0.000002009    2.39      0.157536651
 23  -3954.709634776     -0.903471927     -0.000000007      0.000000758    2.39      0.157534311
               --- The Coupled-Cluster iterations have converged ---

----------------------
COUPLED CLUSTER ENERGY
----------------------

E(0)                                       ...  -3953.806162849
E(CORR)                                    ...     -0.903471927
E(TOT)                                     ...  -3954.709634776
Singles norm <S|S>**1/2                    ...      0.157534311 ( 0.067691181, 0.089843130)  
T1 diagnostic                              ...      0.027016911                              

------------------
LARGEST AMPLITUDES
------------------
  29b-> 30b  -1b-> -1b       0.128536
  24b-> 30b  -1b-> -1b       0.079373
  29a-> 32a  -1a-> -1a       0.075605
  29b-> 36b  -1b-> -1b       0.055471
  26a-> 32a  -1a-> -1a       0.047155
  29a-> 36a  -1a-> -1a       0.039062
  26b-> 42b  25b-> 43b       0.036950
  26b-> 43b  25b-> 42b       0.036950
  28b-> 34b  -1b-> -1b       0.036051
  27b-> 35b  -1b-> -1b       0.036051
  28b-> 42b  -1b-> -1b       0.034223
  27b-> 43b  -1b-> -1b       0.034223
  26b-> 43b  25b-> 34b       0.031642
  26b-> 34b  25b-> 43b       0.031642
  26b-> 35b  25b-> 42b       0.031642
  26b-> 42b  25b-> 35b       0.031642

----------------------
UHF TRIPLES CORRECTION (Algorithm 1)
----------------------

Multiplier for the singles contribution    ...      1.000000000

SPIN-CASE Alpha-Alpha-Alpha:
10% done
20% done
30% done
40% done
50% done
60% done
70% done
80% done
90% done


SPIN-CASE Beta-Beta-Beta:
10% done
20% done
30% done
40% done
50% done
60% done
70% done
80% done
90% done


SPIN-CASE Alpha-Alpha-Beta:
10% done
20% done
30% done
40% done
50% done
60% done
70% done
80% done
90% done


SPIN-CASE Beta-Beta-Alpha:
10% done
20% done
30% done
40% done
50% done
60% done
70% done
80% done
90% done


Triples Correction (T)                     ...     -0.030183143
    alpha-alpha-alpha ... -0.001440301 (  4.8%)
    alpha-alpha-beta  ... -0.014154949 ( 46.9%)
    alpha-beta -beta  ... -0.013297270 ( 44.1%)
    beta -beta -beta  ... -0.001290623 (  4.3%)
Scaling of triples based on CCSD energies (Peterson et al. Molecular Physics 113, 1551 (2015))
E(T*) = f*E(T) where f = E(F12-CCSD)/E(CCSD) 
f = CCSD (with F12)/ CCSD (without F12)    ...      1.000000000
Scaled triples correction (T)              ...     -0.030183143

Final correlation energy                   ...     -0.933655070
E(CCSD)                                    ...  -3954.709634776
E(CCSD(T))                                 ...  -3954.739817919



        !!!!!!!!!!!!!!!!!!!!!!!!!!!!!!!!!!!!!!!!!!!!!!!!!!!!!!!!!!!!!!!!!!!!!!!!!! 
        !  Warning: Densities are linearized densities                           !
        !!!!!!!!!!!!!!!!!!!!!!!!!!!!!!!!!!!!!!!!!!!!!!!!!!!!!!!!!!!!!!!!!!!!!!!!!! 

NORM  =      1.242909121 sqrt=     1.114858341
W(HF) =      0.804564053
------------------------------------------------------------------------------
                           ORCA POPULATION ANALYSIS
------------------------------------------------------------------------------
Input electron density              ... 40_CoBr.mdcip
Input spin density                  ... 40_CoBr.mdcir
BaseName (.gbw .S,...)              ... 40_CoBr

                    ********************************
                    * MULLIKEN POPULATION ANALYSIS *
                    ********************************

------------------------------------------
MULLIKEN ATOMIC CHARGES AND SPIN DENSITIES
------------------------------------------
   0 Co:    0.469352    1.943621
   1 Br:   -0.469352    0.056379
Sum of atomic charges       :   -0.0000000
Sum of atomic spin densities:    2.0000000

---------------------------------------------------
MULLIKEN REDUCED ORBITAL CHARGES AND SPIN DENSITIES
---------------------------------------------------
CHARGE
  0 Cos       :     6.430387  s :     6.430387
      pz      :     4.062252  p :    12.166543
      px      :     4.052146
      py      :     4.052146
      dz2     :     1.849431  d :     7.897738
      dxz     :     1.042596
      dyz     :     1.042596
      dx2y2   :     1.981557
      dxy     :     1.981557
      f0      :     0.005228  f :     0.032615
      f+1     :     0.004502
      f-1     :     0.004502
      f+2     :     0.004030
      f-2     :     0.004030
      f+3     :     0.005161
      f-3     :     0.005161
      g0      :     0.000400  g :     0.003365
      g+1     :     0.000383
      g-1     :     0.000383
      g+2     :     0.000363
      g-2     :     0.000363
      g+3     :     0.000351
      g-3     :     0.000351
      g+4     :     0.000386
      g-4     :     0.000386
  1 Brs       :     7.929769  s :     7.929769
      pz      :     5.654550  p :    17.404739
      px      :     5.875095
      py      :     5.875095
      dz2     :     2.028084  d :    10.116699
      dxz     :     2.024639
      dyz     :     2.024639
      dx2y2   :     2.019669
      dxy     :     2.019669
      f0      :     0.004089  f :     0.018145
      f+1     :     0.002880
      f-1     :     0.002880
      f+2     :     0.002214
      f-2     :     0.002214
      f+3     :     0.001934
      f-3     :     0.001934

SPIN
  0 Cos       :    -0.059865  s :    -0.059865
      pz      :     0.013835  p :     0.023843
      px      :     0.005004
      py      :     0.005004
      dz2     :     0.065366  d :     1.971767
      dxz     :     0.945002
      dyz     :     0.945002
      dx2y2   :     0.008199
      dxy     :     0.008199
      f0      :     0.000776  f :     0.007079
      f+1     :     0.001441
      f-1     :     0.001441
      f+2     :     0.001686
      f-2     :     0.001686
      f+3     :     0.000024
      f-3     :     0.000024
      g0      :     0.000089  g :     0.000797
      g+1     :     0.000112
      g-1     :     0.000112
      g+2     :     0.000139
      g-2     :     0.000139
      g+3     :     0.000099
      g-3     :     0.000099
      g+4     :     0.000003
      g-4     :     0.000003
  1 Brs       :    -0.000993  s :    -0.000993
      pz      :    -0.011026  p :     0.056177
      px      :     0.033601
      py      :     0.033601
      dz2     :    -0.000023  d :     0.000818
      dxz     :     0.000393
      dyz     :     0.000393
      dx2y2   :     0.000028
      dxy     :     0.000028
      f0      :    -0.000106  f :     0.000377
      f+1     :     0.000236
      f-1     :     0.000236
      f+2     :    -0.000020
      f-2     :    -0.000020
      f+3     :     0.000025
      f-3     :     0.000025


                     *******************************
                     * LOEWDIN POPULATION ANALYSIS *
                     *******************************

-----------------------------------------
LOEWDIN ATOMIC CHARGES AND SPIN DENSITIES
-----------------------------------------
   0 Co:   -0.062059    1.928041
   1 Br:    0.062059    0.071959

--------------------------------------------------
LOEWDIN REDUCED ORBITAL CHARGES AND SPIN DENSITIES
--------------------------------------------------
CHARGE
  0 Cos       :     6.479427  s :     6.479427
      pz      :     4.217503  p :    12.378751
      px      :     4.080624
      py      :     4.080624
      dz2     :     1.980851  d :     8.165853
      dxz     :     1.111764
      dyz     :     1.111764
      dx2y2   :     1.980737
      dxy     :     1.980737
      f0      :     0.006509  f :     0.034658
      f+1     :     0.004878
      f-1     :     0.004878
      f+2     :     0.004035
      f-2     :     0.004035
      f+3     :     0.005161
      f-3     :     0.005161
      g0      :     0.000404  g :     0.003370
      g+1     :     0.000384
      g-1     :     0.000384
      g+2     :     0.000363
      g-2     :     0.000363
      g+3     :     0.000351
      g-3     :     0.000351
      g+4     :     0.000386
      g-4     :     0.000386
  1 Brs       :     7.604756  s :     7.604756
      pz      :     5.626490  p :    17.177228
      px      :     5.775369
      py      :     5.775369
      dz2     :     2.042195  d :    10.134516
      dxz     :     2.025816
      dyz     :     2.025816
      dx2y2   :     2.020345
      dxy     :     2.020345
      f0      :     0.006054  f :     0.021441
      f+1     :     0.003405
      f-1     :     0.003405
      f+2     :     0.002354
      f-2     :     0.002354
      f+3     :     0.001934
      f-3     :     0.001934

SPIN
  0 Cos       :    -0.061377  s :    -0.061377
      pz      :     0.011927  p :     0.027416
      px      :     0.007744
      py      :     0.007744
      dz2     :     0.060835  d :     1.954091
      dxz     :     0.938233
      dyz     :     0.938233
      dx2y2   :     0.008395
      dxy     :     0.008395
      f0      :     0.000757  f :     0.007117
      f+1     :     0.001469
      f-1     :     0.001469
      f+2     :     0.001686
      f-2     :     0.001686
      f+3     :     0.000024
      f-3     :     0.000024
      g0      :     0.000089  g :     0.000795
      g+1     :     0.000111
      g-1     :     0.000111
      g+2     :     0.000139
      g-2     :     0.000139
      g+3     :     0.000099
      g-3     :     0.000099
      g+4     :     0.000003
      g-4     :     0.000003
  1 Brs       :    -0.000015  s :    -0.000015
      pz      :    -0.005088  p :     0.059776
      px      :     0.032432
      py      :     0.032432
      dz2     :     0.000885  d :     0.010245
      dxz     :     0.004825
      dyz     :     0.004825
      dx2y2   :    -0.000145
      dxy     :    -0.000145
      f0      :     0.000039  f :     0.001953
      f+1     :     0.000974
      f-1     :     0.000974
      f+2     :    -0.000043
      f-2     :    -0.000043
      f+3     :     0.000025
      f-3     :     0.000025


                      *****************************
                      * MAYER POPULATION ANALYSIS *
                      *****************************

  NA   - Mulliken gross atomic population
  ZA   - Total nuclear charge
  QA   - Mulliken gross atomic charge
  VA   - Mayer's total valence
  BVA  - Mayer's bonded valence
  FA   - Mayer's free valence

  ATOM       NA         ZA         QA         VA         BVA        FA
  0 Co    26.5306    27.0000     0.4694     3.5823     0.9225     2.6599
  1 Br    35.4694    35.0000    -0.4694     1.6165     0.9225     0.6940

  Mayer bond orders larger than 0.100000
B(  0-Co,  1-Br) :   0.9225 



------------------------------------------------------------------------------- 
                                     TIMINGS                                   
------------------------------------------------------------------------------- 


Total execution time                   ...       71.108 sec

Fock Matrix Formation                  ...        0.416 sec (  0.6%)
Initial Guess                          ...        0.088 sec (  0.1%)
DIIS Solver                            ...        6.173 sec (  8.7%)
State Vector Update                    ...        0.267 sec (  0.4%)
Sigma-vector construction              ...       51.358 sec ( 72.2%)
  <0|H|D>                              ...        0.013 sec (  0.0% of sigma)
  <D|H|D>(0-ext Fock)                  ...        0.173 sec (  0.3% of sigma)
  <D|H|D>(0-ext)                       ...        1.392 sec (  2.7% of sigma)
  <D|H|D>(2-ext Fock)                  ...        0.028 sec (  0.1% of sigma)
  <D|H|D>(2-ext)                       ...        2.429 sec (  4.7% of sigma)
  <D|H|D>(4-ext)                       ...       19.048 sec ( 37.1% of sigma)
  <S|H|0>                              ...        4.910 sec (  9.6% of sigma)
  <S|H|S>                              ...        0.006 sec (  0.0% of sigma)
  <S|H|D>(1-ext)                       ...        0.038 sec (  0.1% of sigma)
  <D|H|S>(1-ext)                       ...        0.434 sec (  0.8% of sigma)
  Fock-dressing                        ...        7.147 sec ( 13.9% of sigma)
  (ik|jl)-dressing                     ...        1.971 sec (  3.8% of sigma)
  (ij|ab),(ia|jb)-dressing             ...       10.808 sec ( 21.0% of sigma)
  Pair energies                        ...        0.022 sec (  0.0% of sigma)
Total Time for computing (T)           ...        8.595 sec ( 12.1% of ALL)
  I/O of integral and amplitudes       ...        1.267 sec ( 14.7% of (T))
  External N**7 contributions          ...        2.500 sec ( 29.1% of (T))
  Internal N**7 contributions          ...        1.460 sec ( 17.0% of (T))
  N**6 triples energy contributions    ...        3.115 sec ( 36.2% of (T))

----- Orbital basis set information -----
Your calculation utilizes the basis: def2-QZVPP
   F. Weigend and R. Ahlrichs, Phys. Chem. Chem. Phys. 7, 3297 (2005).

----- AuxJ basis set information -----
Your calculation utilizes the auxiliary basis: def2/J
   F. Weigend, Phys. Chem. Chem. Phys. 8, 1057 (2006).

----- AuxC basis set information -----
Your calculation utilizes the auxiliary basis: def2-QZVPP/C
  H-La, Hf-Rn : A. Hellweg, C. Hattig, S. Hofener and W. Klopper, Theor. Chem. Acc. 117, 587 (2007).
        Ce-Lu : J. Chmela and M. E. Harding, Mol. Phys. (2018).

----- AuxJK basis set information -----
Your calculation utilizes the auxiliary basis: def2/JK
   H-Ba, Hf-Rn: F. Weigend, J. Comput. Chem. 29, 167 (2008).

All done

                     -----------------------------------------
                     Extrapolated Energy 2 Basis=  def2-QZVPP
                     -----------------------------------------

---------------------------------
CARTESIAN COORDINATES (ANGSTROEM)
---------------------------------
  Co     0.000000    0.000000   -0.103279
  Br     0.000000    0.000000    2.103279

----------------------------
CARTESIAN COORDINATES (A.U.)
----------------------------
  NO LB      ZA    FRAG     MASS         X           Y           Z
   0 Co   27.0000    0    58.930    0.000000    0.000000   -0.195169
   1 Br   35.0000    0    79.900    0.000000    0.000000    3.974621

--------------------------------
INTERNAL COORDINATES (ANGSTROEM)
--------------------------------
 Co     0   0   0     0.000000000000     0.00000000     0.00000000
 Br     1   0   0     2.206557512078     0.00000000     0.00000000

---------------------------
INTERNAL COORDINATES (A.U.)
---------------------------
 Co     0   0   0     0.000000000000     0.00000000     0.00000000
 Br     1   0   0     4.169789396574     0.00000000     0.00000000

---------------------
BASIS SET INFORMATION
---------------------
There are 2 groups of distinct atoms

 Group   1 Type Co  : 24s18p10d4f2g contracted to 11s6p5d4f2g pattern {114111111111/951111/61111/1111/11}
 Group   2 Type Br  : 24s20p10d4f1g contracted to 11s7p4d4f1g pattern {114111111111/10511111/7111/1111/1}

Atom   0Co   basis set group =>   1
Atom   1Br   basis set group =>   2
---------------------------------
AUXILIARY/J BASIS SET INFORMATION
---------------------------------
There are 2 groups of distinct atoms

 Group   1 Type Co  : 19s5p5d3f3g contracted to 8s5p5d2f3g pattern {121111111/11111/11111/21/111}
 Group   2 Type Br  : 19s5p5d3f1g contracted to 8s4p3d2f1g pattern {121111111/2111/311/21/1}

Atom   0Co   basis set group =>   1
Atom   1Br   basis set group =>   2
---------------------------------
AUXILIARY/C BASIS SET INFORMATION
---------------------------------
There are 2 groups of distinct atoms

 Group   1 Type Co  : 15s13p11d8f7g5h2i contracted to 15s13p11d8f7g5h2i pattern {111111111111111/1111111111111/11111111111/11111111/1111111/11111/11}
 Group   2 Type Br  : 13s12p11d9f7g5h1i contracted to 13s12p11d9f7g5h1i pattern {1111111111111/111111111111/11111111111/111111111/1111111/11111/1}

Atom   0Co   basis set group =>   1
Atom   1Br   basis set group =>   2
----------------------------------
AUXILIARY/JK BASIS SET INFORMATION
----------------------------------
There are 2 groups of distinct atoms

 Group   1 Type Co  : 19s14p12d10f7g3h1i contracted to 16s13p11d9f5g3h1i pattern {4111111111111111/2111111111111/21111111111/211111111/31111/111/1}
 Group   2 Type Br  : 20s14p13d10f7g3h contracted to 17s13p12d9f6g3h pattern {41111111111111111/2111111111111/211111111111/211111111/211111/111}

Atom   0Co   basis set group =>   1
Atom   1Br   basis set group =>   2

Checking for AutoStart:
The File: 40_CoBr.gbw exists
Trying to determine its content:
     ... Fine, the file contains calculation information
     ... Fine, the calculation information was read
     ... Fine, the file contains a basis set
     ... Fine, the basis set was read
     ... Fine, the file contains a geometry
     ... Fine, the geometry was read
     ... Fine, the file contains a set of orbitals
     ... Fine, the orbitals can be read
     => possible old guess file was deleted
     => GBW file was renamed to GES file
     => GES file is set as startup file
     => Guess is set to MORead
     ... now leaving AutoStart



[...]
 17  -3955.108959649     -1.223966221      0.000004669      0.000036085   15.72      0.155781922
 18  -3955.108958836     -1.223965409      0.000000813      0.000016630   15.96      0.155693735
 19  -3955.108956939     -1.223963511      0.000001898      0.000013111   15.94      0.155657565
 20  -3955.108957371     -1.223963944     -0.000000433      0.000006770   15.76      0.155613826
 21  -3955.108957548     -1.223964121     -0.000000177      0.000004589   15.80      0.155583460
 22  -3955.108957653     -1.223964225     -0.000000105      0.000002588   16.11      0.155558145
 23  -3955.108957931     -1.223964504     -0.000000278      0.000001433   15.74      0.155538547
 24  -3955.108957838     -1.223964410      0.000000093      0.000001044   15.62      0.155534131
 25  -3955.108957842     -1.223964415     -0.000000004      0.000000761   15.91      0.155531597
               --- The Coupled-Cluster iterations have converged ---

----------------------
COUPLED CLUSTER ENERGY
----------------------

E(0)                                       ...  -3953.884993428
E(CORR)                                    ...     -1.223964415
E(TOT)                                     ...  -3955.108957842
Singles norm <S|S>**1/2                    ...      0.155531597 ( 0.067723701, 0.087807896)  
T1 diagnostic                              ...      0.026673449                              

------------------
LARGEST AMPLITUDES
------------------
  29b-> 30b  -1b-> -1b       0.107151
  24b-> 30b  -1b-> -1b       0.066344
  29a-> 32a  -1a-> -1a       0.063936
  29b-> 33b  -1b-> -1b       0.051428
  29b-> 34b  -1b-> -1b       0.048938
  26a-> 32a  -1a-> -1a       0.040892
  24b-> 33b  -1b-> -1b       0.033948
  29a-> 35a  -1a-> -1a       0.033775
  27b-> 44b  -1b-> -1b       0.032529
  28b-> 43b  -1b-> -1b       0.032529
  29b-> 42b  -1b-> -1b       0.028594
  26b-> 43b  25b-> 44b       0.027291
  26b-> 44b  25b-> 43b       0.027291
  29a-> 36a  -1a-> -1a       0.027008
  28b-> 49b  27b-> 50b       0.026998
  28b-> 50b  27b-> 49b       0.026998

----------------------
UHF TRIPLES CORRECTION (Algorithm 1)
----------------------

Multiplier for the singles contribution    ...      1.000000000

SPIN-CASE Alpha-Alpha-Alpha:
10% done
20% done
30% done
40% done
50% done
60% done
70% done
80% done
90% done


SPIN-CASE Beta-Beta-Beta:
10% done
20% done
30% done
40% done
50% done
60% done
70% done
80% done
90% done


SPIN-CASE Alpha-Alpha-Beta:
10% done
20% done
30% done
40% done
50% done
60% done
70% done
80% done
90% done


SPIN-CASE Beta-Beta-Alpha:
10% done
20% done
30% done
40% done
50% done
60% done
70% done
80% done
90% done


Triples Correction (T)                     ...     -0.038987019
    alpha-alpha-alpha ... -0.001937197 (  5.0%)
    alpha-alpha-beta  ... -0.018462512 ( 47.4%)
    alpha-beta -beta  ... -0.016989375 ( 43.6%)
    beta -beta -beta  ... -0.001597935 (  4.1%)
Scaling of triples based on CCSD energies (Peterson et al. Molecular Physics 113, 1551 (2015))
E(T*) = f*E(T) where f = E(F12-CCSD)/E(CCSD) 
f = CCSD (with F12)/ CCSD (without F12)    ...      1.000000000
Scaled triples correction (T)              ...     -0.038987019

Final correlation energy                   ...     -1.262951434
E(CCSD)                                    ...  -3955.108957842
E(CCSD(T))                                 ...  -3955.147944861



        !!!!!!!!!!!!!!!!!!!!!!!!!!!!!!!!!!!!!!!!!!!!!!!!!!!!!!!!!!!!!!!!!!!!!!!!!! 
        !  Warning: Densities are linearized densities                           !
        !!!!!!!!!!!!!!!!!!!!!!!!!!!!!!!!!!!!!!!!!!!!!!!!!!!!!!!!!!!!!!!!!!!!!!!!!! 

NORM  =      1.254589101 sqrt=     1.120084417
W(HF) =      0.797073719
------------------------------------------------------------------------------
                           ORCA POPULATION ANALYSIS
------------------------------------------------------------------------------
Input electron density              ... 40_CoBr.mdcip
Input spin density                  ... 40_CoBr.mdcir
BaseName (.gbw .S,...)              ... 40_CoBr

                    ********************************
                    * MULLIKEN POPULATION ANALYSIS *
                    ********************************

------------------------------------------
MULLIKEN ATOMIC CHARGES AND SPIN DENSITIES
------------------------------------------
   0 Co:    0.458720    1.952994
   1 Br:   -0.458720    0.047006
Sum of atomic charges       :   -0.0000000
Sum of atomic spin densities:    2.0000000

---------------------------------------------------
MULLIKEN REDUCED ORBITAL CHARGES AND SPIN DENSITIES
---------------------------------------------------
CHARGE
  0 Cos       :     6.434422  s :     6.434422
      pz      :     4.061484  p :    12.172260
      px      :     4.055388
      py      :     4.055388
      dz2     :     1.829289  d :     7.877639
      dxz     :     1.044352
      dyz     :     1.044352
      dx2y2   :     1.979823
      dxy     :     1.979823
      f0      :     0.008580  f :     0.052009
      f+1     :     0.010334
      f-1     :     0.010334
      f+2     :     0.005082
      f-2     :     0.005082
      f+3     :     0.006299
      f-3     :     0.006299
      g0      :     0.000638  g :     0.004950
      g+1     :     0.000578
      g-1     :     0.000578
      g+2     :     0.000518
      g-2     :     0.000518
      g+3     :     0.000496
      g-3     :     0.000496
      g+4     :     0.000563
      g-4     :     0.000563
  1 Brs       :     7.944674  s :     7.944674
      pz      :     5.644668  p :    17.362859
      px      :     5.859095
      py      :     5.859095
      dz2     :     2.027239  d :    10.104271
      dxz     :     2.022547
      dyz     :     2.022547
      dx2y2   :     2.015970
      dxy     :     2.015970
      f0      :     0.007727  f :     0.042263
      f+1     :     0.007161
      f-1     :     0.007161
      f+2     :     0.005444
      f-2     :     0.005444
      f+3     :     0.004663
      f-3     :     0.004663
      g0      :     0.000871  g :     0.004653
      g+1     :     0.000656
      g-1     :     0.000656
      g+2     :     0.000482
      g-2     :     0.000482
      g+3     :     0.000382
      g-3     :     0.000382
      g+4     :     0.000372
      g-4     :     0.000372

SPIN
  0 Cos       :    -0.053351  s :    -0.053351
      pz      :     0.019574  p :     0.031910
      px      :     0.006168
      py      :     0.006168
      dz2     :     0.065143  d :     1.963284
      dxz     :     0.941458
      dyz     :     0.941458
      dx2y2   :     0.007613
      dxy     :     0.007613
      f0      :     0.001526  f :     0.010072
      f+1     :     0.002512
      f-1     :     0.002512
      f+2     :     0.001836
      f-2     :     0.001836
      f+3     :    -0.000075
      f-3     :    -0.000075
      g0      :     0.000102  g :     0.001078
      g+1     :     0.000157
      g-1     :     0.000157
      g+2     :     0.000199
      g-2     :     0.000199
      g+3     :     0.000133
      g-3     :     0.000133
      g+4     :    -0.000001
      g-4     :    -0.000001
  1 Brs       :    -0.003733  s :    -0.003733
      pz      :    -0.021119  p :     0.043567
      px      :     0.032343
      py      :     0.032343
      dz2     :     0.000094  d :     0.004696
      dxz     :     0.002303
      dyz     :     0.002303
      dx2y2   :    -0.000002
      dxy     :    -0.000002
      f0      :     0.000118  f :     0.002168
      f+1     :     0.001035
      f-1     :     0.001035
      f+2     :    -0.000036
      f-2     :    -0.000036
      f+3     :     0.000026
      f-3     :     0.000026
      g0      :     0.000002  g :     0.000308
      g+1     :     0.000152
      g-1     :     0.000152
      g+2     :     0.000001
      g-2     :     0.000001
      g+3     :     0.000000
      g-3     :     0.000000
      g+4     :     0.000000
      g-4     :     0.000000


                     *******************************
                     * LOEWDIN POPULATION ANALYSIS *
                     *******************************

-----------------------------------------
LOEWDIN ATOMIC CHARGES AND SPIN DENSITIES
-----------------------------------------
   0 Co:   -0.414831    1.927085
   1 Br:    0.414831    0.072915

--------------------------------------------------
LOEWDIN REDUCED ORBITAL CHARGES AND SPIN DENSITIES
--------------------------------------------------
CHARGE
  0 Cos       :     6.485509  s :     6.485509
      pz      :     4.259342  p :    12.467021
      px      :     4.103839
      py      :     4.103839
      dz2     :     2.007387  d :     8.227571
      dxz     :     1.131649
      dyz     :     1.131649
      dx2y2   :     1.978443
      dxy     :     1.978443
      f0      :     0.067951  f :     0.229510
      f+1     :     0.068979
      f-1     :     0.068979
      f+2     :     0.005499
      f-2     :     0.005499
      f+3     :     0.006301
      f-3     :     0.006301
      g0      :     0.000781  g :     0.005221
      g+1     :     0.000643
      g-1     :     0.000643
      g+2     :     0.000518
      g-2     :     0.000518
      g+3     :     0.000496
      g-3     :     0.000496
      g+4     :     0.000563
      g-4     :     0.000563
  1 Brs       :     7.500479  s :     7.500479
      pz      :     5.581438  p :    16.908897
      px      :     5.663730
      py      :     5.663730
      dz2     :     2.034349  d :    10.107982
      dxz     :     2.020877
      dyz     :     2.020877
      dx2y2   :     2.015939
      dxy     :     2.015939
      f0      :     0.019645  f :     0.060214
      f+1     :     0.009322
      f-1     :     0.009322
      f+2     :     0.006302
      f-2     :     0.006302
      f+3     :     0.004660
      f-3     :     0.004660
      g0      :     0.002710  g :     0.007597
      g+1     :     0.001072
      g-1     :     0.001072
      g+2     :     0.000618
      g-2     :     0.000618
      g+3     :     0.000382
      g-3     :     0.000382
      g+4     :     0.000372
      g-4     :     0.000372

SPIN
  0 Cos       :    -0.058270  s :    -0.058270
      pz      :     0.012149  p :     0.031004
      px      :     0.009427
      py      :     0.009427
      dz2     :     0.058947  d :     1.940350
      dxz     :     0.932795
      dyz     :     0.932795
      dx2y2   :     0.007907
      dxy     :     0.007907
      f0      :     0.000993  f :     0.012944
      f+1     :     0.004229
      f-1     :     0.004229
      f+2     :     0.001822
      f-2     :     0.001822
      f+3     :    -0.000075
      f-3     :    -0.000075
      g0      :     0.000099  g :     0.001057
      g+1     :     0.000150
      g-1     :     0.000150
      g+2     :     0.000197
      g-2     :     0.000197
      g+3     :     0.000133
      g-3     :     0.000133
      g+4     :    -0.000001
      g-4     :    -0.000001
  1 Brs       :    -0.000968  s :    -0.000968
      pz      :    -0.005342  p :     0.052399
      px      :     0.028870
      py      :     0.028870
      dz2     :     0.000857  d :     0.013103
      dxz     :     0.006242
      dyz     :     0.006242
      dx2y2   :    -0.000119
      dxy     :    -0.000119
      f0      :    -0.000087  f :     0.007245
      f+1     :     0.003822
      f-1     :     0.003822
      f+2     :    -0.000181
      f-2     :    -0.000181
      f+3     :     0.000026
      f-3     :     0.000026
      g0      :    -0.000022  g :     0.001136
      g+1     :     0.000593
      g-1     :     0.000593
      g+2     :    -0.000014
      g-2     :    -0.000014
      g+3     :     0.000000
      g-3     :     0.000000
      g+4     :     0.000000
      g-4     :     0.000000


                      *****************************
                      * MAYER POPULATION ANALYSIS *
                      *****************************

  NA   - Mulliken gross atomic population
  ZA   - Total nuclear charge
  QA   - Mulliken gross atomic charge
  VA   - Mayer's total valence
  BVA  - Mayer's bonded valence
  FA   - Mayer's free valence

  ATOM       NA         ZA         QA         VA         BVA        FA
  0 Co    26.5413    27.0000     0.4587     3.6574     0.9860     2.6714
  1 Br    35.4587    35.0000    -0.4587     1.7687     0.9860     0.7827

  Mayer bond orders larger than 0.100000
B(  0-Co,  1-Br) :   0.9860 



------------------------------------------------------------------------------- 
                                     TIMINGS                                   
------------------------------------------------------------------------------- 


Total execution time                   ...      518.955 sec

Fock Matrix Formation                  ...        2.039 sec (  0.4%)
Initial Guess                          ...        0.305 sec (  0.1%)
DIIS Solver                            ...       29.726 sec (  5.7%)
State Vector Update                    ...        1.140 sec (  0.2%)
Sigma-vector construction              ...      371.434 sec ( 71.6%)
  <0|H|D>                              ...        0.056 sec (  0.0% of sigma)
  <D|H|D>(0-ext Fock)                  ...        0.805 sec (  0.2% of sigma)
  <D|H|D>(0-ext)                       ...        6.010 sec (  1.6% of sigma)
  <D|H|D>(2-ext Fock)                  ...        0.182 sec (  0.0% of sigma)
  <D|H|D>(2-ext)                       ...       15.217 sec (  4.1% of sigma)
  <D|H|D>(4-ext)                       ...      153.258 sec ( 41.3% of sigma)
  <S|H|0>                              ...       84.103 sec ( 22.6% of sigma)
  <S|H|S>                              ...        0.011 sec (  0.0% of sigma)
  <S|H|D>(1-ext)                       ...        0.164 sec (  0.0% of sigma)
  <D|H|S>(1-ext)                       ...        1.799 sec (  0.5% of sigma)
  Fock-dressing                        ...       40.356 sec ( 10.9% of sigma)
  (ik|jl)-dressing                     ...        7.048 sec (  1.9% of sigma)
  (ij|ab),(ia|jb)-dressing             ...       51.498 sec ( 13.9% of sigma)
  Pair energies                        ...        0.088 sec (  0.0% of sigma)
Total Time for computing (T)           ...       92.313 sec ( 17.8% of ALL)
  I/O of integral and amplitudes       ...       15.206 sec ( 16.5% of (T))
  External N**7 contributions          ...       35.907 sec ( 38.9% of (T))
  Internal N**7 contributions          ...       11.486 sec ( 12.4% of (T))
  N**6 triples energy contributions    ...       29.495 sec ( 32.0% of (T))


-------------------
EXTRAPOLATED ENERGY
-------------------


-----------------------------------------------------------------
                      EP1 - MDCI extrapolation:
-----------------------------------------------------------------
NOTE: We use as reference SCF energy, for the extrapolation, the one from the MDCI module and not the one 
from the SCF calculation. In case the first step is a DFT calculation these two might be different.

NOTE: For the SCF part we extrapolate based on the scheme proposed in J. Chem. Phys. 2008, 129, 184116
using the exponents from J. Chem. Theory Comput., 7, 33-43 (2011)

NOTE: For the correlation part we extrapolate based on the scheme proposed in J. Chem. Phys. 1997, 106, 9639
using the exponents from J. Chem. Theory Comput., 7, 33-43 (2011)


Alpha(3/4)     :  7.880 (SCF Extrapolation)
Beta(3/4)      :  2.970 (correlation extrapolation)

SCF energy with basis def2-TZVPP:                     -3953.806162849
SCF energy with basis def2-QZVPP:                     -3953.884993427
Extrapolated CBS SCF energy (3/4) :                   -3953.895851448 (-0.010858020) 

MDCI energy with basis def2-TZVPP:                       -0.933655069
MDCI energy with basis def2-QZVPP:                       -1.262951434
Extrapolated CBS correlation energy (3/4) :              -1.506874485 (-0.243923052)

Estimated CBS total energy (3/4) :                    -3955.402725933



-------------------------   --------------------
FINAL SINGLE POINT ENERGY     -3955.402725933453
-------------------------   --------------------


                            ***************************************
                            *     ORCA property calculations      *
                            ***************************************

                                    ---------------------
                                    Active property flags
                                    ---------------------
   (+) Dipole Moment


------------------------------------------------------------------------------
                       ORCA ELECTRIC PROPERTIES CALCULATION
------------------------------------------------------------------------------

Dipole Moment Calculation                       ... on
Quadrupole Moment Calculation                   ... off
Polarizability Calculation                      ... off
GBWName                                         ... 40_CoBr.gbw
Electron density file                           ... 40_CoBr.scfp
The origin for moment calculation is the CENTER OF MASS  = ( 0.000000,  0.000000  2.204645)

-------------
DIPOLE MOMENT
-------------
                                X             Y             Z
Electronic contribution:      0.00000       0.00000       0.27193
Nuclear contribution   :      0.00000       0.00000      -2.84584
                        -----------------------------------------
Total Dipole Moment    :      0.00000       0.00000      -2.57391
                        -----------------------------------------
Magnitude (a.u.)       :      2.57391
Magnitude (Debye)      :      6.54236



--------------------
Rotational spectrum 
--------------------
 
Rotational constants in cm-1:     0.000000     0.102086     0.102086 
Rotational constants in MHz :     0.000000  3060.463500  3060.463500 

 Dipole components along the rotational axes: 
x,y,z [a.u.] :    -2.573911     0.000000     0.000000 
x,y,z [Debye]:    -6.542361     0.000000     0.000000 

 

                           *** MDCI DENSITY ***

------------------------------------------------------------------------------
                       ORCA ELECTRIC PROPERTIES CALCULATION
------------------------------------------------------------------------------

Dipole Moment Calculation                       ... on
Quadrupole Moment Calculation                   ... off
Polarizability Calculation                      ... off
GBWName                                         ... 40_CoBr.gbw
Electron density file                           ... 40_CoBr.mdcip
The origin for moment calculation is the CENTER OF MASS  = ( 0.000000,  0.000000  2.204645)

-------------
DIPOLE MOMENT
-------------
                                X             Y             Z
Electronic contribution:      0.00000       0.00000       0.74411
Nuclear contribution   :      0.00000       0.00000      -2.84584
                        -----------------------------------------
Total Dipole Moment    :      0.00000       0.00000      -2.10172
                        -----------------------------------------
Magnitude (a.u.)       :      2.10172
Magnitude (Debye)      :      5.34215



--------------------
Rotational spectrum 
--------------------
 
Rotational constants in cm-1:     0.000000     0.102086     0.102086 
Rotational constants in MHz :     0.000000  3060.463500  3060.463500 

 Dipole components along the rotational axes: 
x,y,z [a.u.] :    -2.101723     0.000000     0.000000 
x,y,z [Debye]:    -5.342154     0.000000     0.000000 

 

Timings for individual modules:

Sum of individual times         ...      616.343 sec (=  10.272 min)
GTO integral calculation        ...        1.742 sec (=   0.029 min)   0.3 %
SCF iterations                  ...       21.471 sec (=   0.358 min)   3.5 %
MDCI module                     ...      593.130 sec (=   9.885 min)  96.2 %
                             ****ORCA TERMINATED NORMALLY****
TOTAL RUN TIME: 0 days 0 hours 10 minutes 17 seconds 332 msec
