
                                 *****************
                                 * O   R   C   A *
                                 *****************

           --- An Ab Initio, DFT and Semiempirical electronic structure package ---

                  #######################################################
                  #                        -***-                        #
                  #          Department of theory and spectroscopy      #
                  #               Directorship: Frank Neese             #
                  #        Max Planck Institute fuer Kohlenforschung    #
                  #                Kaiser Wilhelm Platz 1               #
                  #                 D-45470 Muelheim/Ruhr               #
                  #                      Germany                        #
                  #                                                     #
                  #                  All rights reserved                #
                  #                        -***-                        #
                  #######################################################


                         Program Version 4.2.0 -  RELEASE  -


 With contributions from (in alphabetic order):
   Daniel Aravena         : Magnetic Suceptibility
   Michael Atanasov       : Ab Initio Ligand Field Theory (pilot matlab implementation)
   Alexander A. Auer      : GIAO ZORA, VPT2
   Ute Becker             : Parallelization
   Giovanni Bistoni       : ED, misc. LED, open-shell LED, HFLED
   Martin Brehm           : Molecular dynamics
   Dmytro Bykov           : SCF Hessian
   Vijay G. Chilkuri      : MRCI spin determinant printing, contributions to CSF-ICE
   Dipayan Datta          : RHF DLPNO-CCSD density
   Achintya Kumar Dutta   : EOM-CC, STEOM-CC
   Dmitry Ganyushin       : Spin-Orbit,Spin-Spin,Magnetic field MRCI
   Miquel Garcia          : C-PCM Hessian, Gaussian charge scheme
   Yang Guo               : DLPNO-NEVPT2, CIM, IAO-localization
   Andreas Hansen         : Spin unrestricted coupled pair/coupled cluster methods
   Benjamin Helmich-Paris : CASSCF linear response (MC-RPA)
   Lee Huntington         : MR-EOM, pCC
   Robert Izsak           : Overlap fitted RIJCOSX, COSX-SCS-MP3, EOM
   Christian Kollmar      : KDIIS, OOCD, Brueckner-CCSD(T), CCSD density
   Simone Kossmann        : Meta GGA functionals, TD-DFT gradient, OOMP2, MP2 Hessian
   Martin Krupicka        : AUTO-CI
   Lucas Lang             : DCDCAS
   Dagmar Lenk            : GEPOL surface, SMD
   Dimitrios Liakos       : Extrapolation schemes; Compound Job, initial MDCI parallelization
   Dimitrios Manganas     : Further ROCIS development; embedding schemes
   Dimitrios Pantazis     : SARC Basis sets
   Taras Petrenko         : DFT Hessian,TD-DFT gradient, ASA, ECA, R-Raman, ABS, FL, XAS/XES, NRVS
   Peter Pinski           : DLPNO-MP2, DLPNO-MP2 Gradient
   Christoph Reimann      : Effective Core Potentials
   Marius Retegan         : Local ZFS, SOC
   Christoph Riplinger    : Optimizer, TS searches, QM/MM, DLPNO-CCSD(T), (RO)-DLPNO pert. Triples
   Tobias Risthaus        : Range-separated hybrids, TD-DFT gradient, RPA, STAB
   Michael Roemelt        : Original ROCIS implementation
   Masaaki Saitow         : Open-shell DLPNO-CCSD energy and density
   Barbara Sandhoefer     : DKH picture change effects
   Avijit Sen             : IP-ROCIS
   Kantharuban Sivalingam : CASSCF convergence, NEVPT2, FIC-MRCI
   Bernardo de Souza      : ESD, SOC TD-DFT
   Georgi Stoychev        : AutoAux, RI-MP2 NMR
   Willem Van den Heuvel  : Paramagnetic NMR
   Boris Wezisla          : Elementary symmetry handling
   Frank Wennmohs         : Technical directorship


 We gratefully acknowledge several colleagues who have allowed us to
 interface, adapt or use parts of their codes:
   Stefan Grimme, W. Hujo, H. Kruse,             : VdW corrections, initial TS optimization,
                  C. Bannwarth                     DFT functionals, gCP, sTDA/sTD-DF
   Ed Valeev, F. Pavosevic, A. Kumar             : LibInt (2-el integral package), F12 methods
   Garnet Chan, S. Sharma, J. Yang, R. Olivares  : DMRG
   Ulf Ekstrom                                   : XCFun DFT Library
   Mihaly Kallay                                 : mrcc  (arbitrary order and MRCC methods)
   Andreas Klamt, Michael Diedenhofen            : otool_cosmo (COSMO solvation model)
   Jiri Pittner, Ondrej Demel                    : Mk-CCSD
   Frank Weinhold                                : gennbo (NPA and NBO analysis)
   Christopher J. Cramer and Donald G. Truhlar   : smd solvation model
   Lars Goerigk                                  : TD-DFT with DH, B97 family of functionals
   V. Asgeirsson, H. Jonsson                     : NEB implementation
   FAccTs GmbH                                   : IRC, NEB, NEB-TS, Multilevel, MM, QM/MM, CI optimization
   S Lehtola, MJT Oliveira, MAL Marques          : LibXC Library


 Your calculation uses the libint2 library for the computation of 2-el integrals
 For citations please refer to: http://libint.valeyev.net

 Your ORCA version has been built with support for libXC version: 4.2.3
 For citations please refer to: https://tddft.org/programs/libxc/

 This ORCA versions uses:
   CBLAS   interface :  Fast vector & matrix operations
   LAPACKE interface :  Fast linear algebra routines
   SCALAPACK package :  Parallel linear algebra routines


----- Orbital basis set information -----
Your calculation utilizes the basis: def2-TZVPP
   F. Weigend and R. Ahlrichs, Phys. Chem. Chem. Phys. 7, 3297 (2005).

================================================================================
                                        WARNINGS
                       Please study these warnings very carefully!
================================================================================


WARNING: your system is open-shell and RHF/RKS was chosen
  ===> : WILL SWITCH to UHF/UKS


WARNING: MDCI localization with Augmented Hessian Foster-Boys
  ===> : Switching off randomization!

WARNING: Post HF methods need fully converged wavefunctions
  ===> : Setting SCFConvForced true
         You can overwrite this default with %scf ConvForced false 


INFO   : the flag for use of LIBINT has been found!

================================================================================
                                       INPUT FILE
================================================================================
NAME = 41_CoO.in
|  1> #
|  2> # 41_CoO ccsd(t)/cbs
|  3> #
|  4> ! ccsd(t) extrapolate(3/4,def2) verytightscf veryslowconv
|  5> 
|  6> *xyz 0 4
|  7>   Co  0.00000000000000      0.00000000000000      0.18722579130779
|  8>   O   0.00000000000000      0.00000000000000      1.81277420869221
|  9> *
| 10> 
| 11> %maxcore 5000
| 12> 
| 13> %scf
| 14> MaxIter 1500
| 15> DIISMaxEq 40
| 16> directresetfreq 1
| 17> Shift Shift 0.1 ErrOff 0.1 end
| 18> end
| 19> 
| 20> %pal
| 21> nprocs 24
| 22> end
| 23> 
| 24> 
| 25>                          ****END OF INPUT****
================================================================================

                   *****************************************
                   * Extrapolated Single Point Calculation *
                   *****************************************

----- Orbital basis set information -----
Your calculation utilizes the basis: def2-TZVPP
   F. Weigend and R. Ahlrichs, Phys. Chem. Chem. Phys. 7, 3297 (2005).

----- AuxJ basis set information -----
Your calculation utilizes the auxiliary basis: def2/J
   F. Weigend, Phys. Chem. Chem. Phys. 8, 1057 (2006).

----- AuxC basis set information -----
Your calculation utilizes the auxiliary basis: def2-TZVPP/C
  H-La, Hf-Rn : A. Hellweg, C. Hattig, S. Hofener and W. Klopper, Theor. Chem. Acc. 117, 587 (2007).
        Ce-Lu : J. Chmela and M. E. Harding, Mol. Phys. (2018).

----- AuxJK basis set information -----
Your calculation utilizes the auxiliary basis: def2/JK
   H-Ba, Hf-Rn: F. Weigend, J. Comput. Chem. 29, 167 (2008).

All done

                     -----------------------------------------
                     Extrapolated Energy 1 Basis=  def2-TZVPP
                     -----------------------------------------

---------------------------------
CARTESIAN COORDINATES (ANGSTROEM)
---------------------------------
  Co     0.000000    0.000000    0.187226
  O      0.000000    0.000000    1.812774

----------------------------
CARTESIAN COORDINATES (A.U.)
----------------------------
  NO LB      ZA    FRAG     MASS         X           Y           Z
   0 Co   27.0000    0    58.930    0.000000    0.000000    0.353805
   1 O     8.0000    0    15.999    0.000000    0.000000    3.425647

--------------------------------
INTERNAL COORDINATES (ANGSTROEM)
--------------------------------
 Co     0   0   0     0.000000000000     0.00000000     0.00000000
 O      1   0   0     1.625548417384     0.00000000     0.00000000

---------------------------
INTERNAL COORDINATES (A.U.)
---------------------------
 Co     0   0   0     0.000000000000     0.00000000     0.00000000
 O      1   0   0     3.071841326286     0.00000000     0.00000000

---------------------
BASIS SET INFORMATION
---------------------
There are 2 groups of distinct atoms

 Group   1 Type Co  : 17s12p7d2f1g contracted to 6s5p4d2f1g pattern {842111/63111/4111/11/1}
 Group   2 Type O   : 11s6p2d1f contracted to 5s3p2d1f pattern {62111/411/11/1}

Atom   0Co   basis set group =>   1
Atom   1O    basis set group =>   2
---------------------------------
AUXILIARY/J BASIS SET INFORMATION
---------------------------------
There are 2 groups of distinct atoms

 Group   1 Type Co  : 19s5p5d3f3g contracted to 8s5p5d2f3g pattern {121111111/11111/11111/21/111}
 Group   2 Type O   : 12s5p4d2f1g contracted to 6s4p3d1f1g pattern {711111/2111/211/2/1}

Atom   0Co   basis set group =>   1
Atom   1O    basis set group =>   2
---------------------------------
AUXILIARY/C BASIS SET INFORMATION
---------------------------------
There are 2 groups of distinct atoms

 Group   1 Type Co  : 9s9p8d7f5g3h1i contracted to 9s9p8d7f5g3h1i pattern {111111111/111111111/11111111/1111111/11111/111/1}
 Group   2 Type O   : 8s6p5d3f1g contracted to 8s6p4d3f1g pattern {11111111/111111/2111/111/1}

Atom   0Co   basis set group =>   1
Atom   1O    basis set group =>   2
----------------------------------
AUXILIARY/JK BASIS SET INFORMATION
----------------------------------
There are 2 groups of distinct atoms

 Group   1 Type Co  : 19s14p12d10f7g3h1i contracted to 16s13p11d9f5g3h1i pattern {4111111111111111/2111111111111/21111111111/211111111/31111/111/1}
 Group   2 Type O   : 14s10p6d2f1g contracted to 10s8p4d2f1g pattern {5111111111/31111111/3111/11/1}

Atom   0Co   basis set group =>   1
Atom   1O    basis set group =>   2


           ************************************************************
           *        Program running with 24 parallel MPI-processes    *
           *              working on a common directory               *
           ************************************************************
------------------------------------------------------------------------------
                           ORCA GTO INTEGRAL CALCULATION
------------------------------------------------------------------------------

                         BASIS SET STATISTICS AND STARTUP INFO

 # of primitive gaussian shells          ...   59
 # of primitive gaussian functions       ...  157
 # of contracted shells                  ...   29
 # of contracted basis functions         ...   95
 Highest angular momentum                ...    4
 Maximum contraction depth               ...    8
 Integral package used                   ... LIBINT
 Integral threshhold            Thresh   ...  1.000e-12
 Primitive cut-off              TCut     ...  1.000e-14


------------------------------ INTEGRAL EVALUATION ----------------------------


 * One electron integrals 
 Pre-screening matrix                    ... done
 Shell pair data                         ... done (   0.000 sec)



           ************************************************************
           *        Program running with 24 parallel MPI-processes    *
           *              working on a common directory               *
           ************************************************************
-------------------------------------------------------------------------------
                                 ORCA SCF
-------------------------------------------------------------------------------

------------
SCF SETTINGS
------------
Hamiltonian:
 Ab initio Hamiltonian  Method          .... Hartree-Fock(GTOs)


General Settings:
 Integral files         IntName         .... 41_CoO
 Hartree-Fock type      HFTyp           .... UHF
 Total Charge           Charge          ....    0
 Multiplicity           Mult            ....    4
 Number of Electrons    NEL             ....   35
 Basis Dimension        Dim             ....   95
 Nuclear Repulsion      ENuc            ....     70.3161319407 Eh

Convergence Acceleration:
 DIIS                   CNVDIIS         .... on
   Start iteration      DIISMaxIt       ....     0
   Startup error        DIISStart       ....  0.200000
   # of expansion vecs  DIISMaxEq       ....    40
   Bias factor          DIISBfac        ....   1.050
   Max. coefficient     DIISMaxC        ....  10.000
 Newton-Raphson         CNVNR           .... off
 SOSCF                  CNVSOSCF        .... off
 Level Shifting         CNVShift        .... on
   Level shift para.    LevelShift      ....    0.1000
   Turn off err/grad.   ShiftErr        ....    0.1000
 Zerner damping         CNVZerner       .... off
 Static damping         CNVDamp         .... on
   Fraction old density DampFac         ....    0.9200
   Max. Damping (<1)    DampMax         ....    0.9800
   Min. Damping (>=0)   DampMin         ....    0.0000
   Turn off err/grad.   DampErr         ....    0.0030
 Fernandez-Rico         CNVRico         .... off

SCF Procedure:
 Maximum # iterations   MaxIter         ....  1500
 SCF integral mode      SCFMode         .... Direct
   Integral package                     .... LIBINT
 Reset frequency        DirectResetFreq ....     1
 Integral Threshold     Thresh          ....  1.000e-12 Eh
 Primitive CutOff       TCut            ....  1.000e-14 Eh

Convergence Tolerance:
 Convergence Check Mode ConvCheckMode   .... Total+1el-Energy
 Convergence forced     ConvForced      .... 1
 Energy Change          TolE            ....  1.000e-09 Eh
 1-El. energy change                    ....  1.000e-06 Eh
 DIIS Error             TolErr          ....  1.000e-08


Diagonalization of the overlap matrix:
Smallest eigenvalue                        ... 4.330e-03
Time for diagonalization                   ...    0.003 sec
Threshold for overlap eigenvalues          ... 1.000e-08
Number of eigenvalues below threshold      ... 0
Time for construction of square roots      ...    0.002 sec
Total time needed                          ...    0.004 sec

-------------------
DFT GRID GENERATION
-------------------

General Integration Accuracy     IntAcc      ...  4.340
Radial Grid Type                 RadialGrid  ... Gauss-Chebyshev
Angular Grid (max. acc.)         AngularGrid ... Lebedev-110
Angular grid pruning method      GridPruning ... 3 (G Style)
Weight generation scheme         WeightScheme... Becke
Basis function cutoff            BFCut       ...    1.0000e-12
Integration weight cutoff        WCut        ...    1.0000e-14
Grids for H and He will be reduced by one unit

# of grid points (after initial pruning)     ...   4628 (   0.0 sec)
# of grid points (after weights+screening)   ...   4601 (   0.0 sec)
nearest neighbour list constructed           ...    0.0 sec
Grid point re-assignment to atoms done       ...    0.0 sec
Grid point division into batches done        ...    0.0 sec
Reduced shell lists constructed in    0.0 sec

Total number of grid points                  ...     4601
Total number of batches                      ...       73
Average number of points per batch           ...       63
Average number of grid points per atom       ...     2300
Average number of shells per batch           ...     7.20 (24.83%)
Average number of basis functions per batch  ...    19.20 (20.21%)
Average number of large shells per batch     ...     6.40 (88.89%)
Average number of large basis fcns per batch ...    17.60 (91.67%)
Maximum spatial batch extension              ...  19.55, 28.73, 15.77 au
Average spatial batch extension              ...   0.97,  1.33,  0.86 au

Time for grid setup =    0.022 sec

------------------------------
INITIAL GUESS: MODEL POTENTIAL
------------------------------
Loading Hartree-Fock densities                     ... done
Calculating cut-offs                               ... done
Setting up the integral package                    ... done
Initializing the effective Hamiltonian             ... done
Starting the Coulomb interaction                   ... done (   0.0 sec)
Reading the grid                                   ... done
Mapping shells                                     ... done
Starting the XC term evaluation                    ... done (   0.0 sec)
Transforming the Hamiltonian                       ... done (   0.0 sec)
Diagonalizing the Hamiltonian                      ... done (   0.0 sec)
Back transforming the eigenvectors                 ... done (   0.0 sec)
Now organizing SCF variables                       ... done
                      ------------------
                      INITIAL GUESS DONE (   0.1 sec)
                      ------------------
--------------
SCF ITERATIONS
--------------
ITER       Energy         Delta-E        Max-DP      RMS-DP      [F,P]     Damp
  0  -1455.8973766506   0.000000000000 0.00867439  0.00028296  0.3977885 0.9200
  1  -1455.9261426986  -0.028766047953 0.00812779  0.00026352  0.3379707 0.9200
                               ***Turning on DIIS***
  2  -1455.9480131583  -0.021870459719 0.00685888  0.00021764  0.2831938 0.9200
  3  -1455.8285254603   0.119487697958 0.00488032  0.00015430  0.2383827 0.9200
  4  -1455.9216517843  -0.093126323993 0.00353575  0.00012185  0.2164194 0.9200
  5  -1456.1054857032  -0.183833918822 0.00291232  0.00011063  0.2005911 0.9200
  6  -1456.2385807439  -0.133095040773 0.00261557  0.00010619  0.1852237 0.9200
  7  -1456.3069386546  -0.068357910680 0.00245047  0.00010352  0.1707057 0.9200
  8  -1456.3332504290  -0.026311774384 0.00243921  0.00010098  0.1571657 0.9200
  9  -1456.3381795464  -0.004929117405 0.00249081  0.00009807  0.1446198 0.9200
 10  -1456.3336736821   0.004505864346 0.00249601  0.00009476  0.1330346 0.9200
 11  -1456.3255248012   0.008148880867 0.00246843  0.00009112  0.1223563 0.9200
 12  -1456.3162947844   0.009230016832 0.00241810  0.00008728  0.1125242 0.9200
 13  -1456.3070513464   0.009243437911 0.00235234  0.00008335  0.1034766 0.9200
 14  -1456.2982149540   0.008836392471 0.00228575  0.00007981  0.0955813 0.9200
 15  -1456.2903852119   0.007829742066 0.00220337  0.00007592  0.0883762 0.9200
 16  -1456.2830129577   0.007372254185 0.00211751  0.00007215  0.0816606 0.9200
 17  -1456.2761466625   0.006866295209 0.00203022  0.00006853  0.0754081 0.9200
 18  -1456.2698028057   0.006343856811 0.00194297  0.00006508  0.0695922 0.9200
 19  -1456.2639806040   0.005822201693 0.00185678  0.00006182  0.0641865 0.9200
 20  -1456.2586685606   0.005312043397 0.00177233  0.00005875  0.0591653 0.9200
 21  -1456.2538473099   0.004821250764 0.00169005  0.00005587  0.0545037 0.9200
 22  -1456.2494908568   0.004356453042 0.00161016  0.00005320  0.0501779 0.9200
 23  -1456.2455672209   0.003923635878 0.00153274  0.00005071  0.0461652 0.9200
 24  -1456.2420389877   0.003528233221 0.00145795  0.00004841  0.0424443 0.9200
 25  -1456.2388640270   0.003174960757 0.00141240  0.00004630  0.0389948 0.9200
 26  -1456.2359964985   0.002867528407 0.00136706  0.00004436  0.0357978 0.9200
 27  -1456.2333881689   0.002608329657 0.00132183  0.00004260  0.0328353 0.9200
 28  -1456.2309899769   0.002398191987 0.00127657  0.00004099  0.0300907 0.9200
 29  -1456.2287537153   0.002236261613 0.00123118  0.00003955  0.0275481 0.9200
 30  -1456.2266336400   0.002120075252 0.00118560  0.00003825  0.0251929 0.9200
 31  -1456.2245878014   0.002045838630 0.00115083  0.00003708  0.0230115 0.9200
 32  -1456.2225789103   0.002008891132 0.00117814  0.00003605  0.0211514 0.9200
 33  -1456.2205746109   0.002004299381 0.00124635  0.00003513  0.0194713 0.9200
 34  -1456.2185471114   0.002027499465 0.00131020  0.00003431  0.0179271 0.9200
 35  -1456.2164722080   0.002074903458 0.00136905  0.00003358  0.0165632 0.9200
 36  -1456.2143278110   0.002144396971 0.00142222  0.00003292  0.0153786 0.9200
 37  -1456.2120921398   0.002235671191 0.00146897  0.00003232  0.0142864 0.9200
 38  -1456.2097417977   0.002350342124 0.00150847  0.00003175  0.0132800 0.9200
 39  -1456.2072499953   0.002491802361 0.00153978  0.00003118  0.0123528 0.9200
 40  -1456.2045852705   0.002664724841 0.00156180  0.00003060  0.0114989 0.9200
 41  -1456.2017111657   0.002874104761 0.00157328  0.00002997  0.0107127 0.9200
 42  -1456.1952445978   0.006466567958 0.00153985  0.00002873  0.0099890 0.9200
 43  -1456.1923150684   0.002929529409 0.00153278  0.00002796  0.0093600 0.9200
 44  -1456.1900522201   0.002262848223 0.00153096  0.00002737  0.0087934 0.9200
 45  -1456.1873125564   0.002739663711 0.00151839  0.00002670  0.0082731 0.9200
 46  -1456.1839399148   0.003372641668 0.00148882  0.00002585  0.0077932 0.9200
 47  -1456.1799262237   0.004013691102 0.00143923  0.00002476  0.0073505 0.9200
 48  -1456.1753079144   0.004618309231 0.00136884  0.00002341  0.0069427 0.9200
 49  -1456.1701791319   0.005128782564 0.00127934  0.00002181  0.0065911 0.9200
 50  -1456.1647019461   0.005477185778 0.00117503  0.00002003  0.0064175 0.9200
 51  -1456.1590911069   0.005610839192 0.00106211  0.00001814  0.0062622 0.9200
 52  -1456.1535766258   0.005514481076 0.00094745  0.00001625  0.0061232 0.9200
 53  -1456.1483610099   0.005215615901 0.00083722  0.00001444  0.0059984 0.9200
 54  -1456.1435893812   0.004771628739 0.00073598  0.00001278  0.0058862 0.9200
 55  -1456.1393386359   0.004250745307 0.00064633  0.00001131  0.0057850 0.9200
 56  -1456.1356307103   0.003707925610 0.00056919  0.00001004  0.0056937 0.9200
 57  -1456.1324496361   0.003181074133 0.00050434  0.00000895  0.0056109 0.9200
 58  -1456.1297597141   0.002689922013 0.00045099  0.00000805  0.0055358 0.9200
 59  -1456.1275186517   0.002241062372 0.00040816  0.00000730  0.0054674 0.9200
 60  -1456.1256848360   0.001833815758 0.00037489  0.00000671  0.0054049 0.9200
 61  -1456.1242198983   0.001464937648 0.00035033  0.00000625  0.0053478 0.9200
 62  -1456.1230882024   0.001131695949 0.00033370  0.00000591  0.0052953 0.9200
 63  -1456.1222545840   0.000833618346 0.00032425  0.00000568  0.0052471 0.9200
 64  -1456.1216811813   0.000573402727 0.00032110  0.00000556  0.0052028 0.9200
 65  -1456.1213238488   0.000357332518 0.00032318  0.00000552  0.0051621 0.9200
 66  -1456.1211286911   0.000195157736 0.00032906  0.00000554  0.0051247 0.9200
 67  -1456.1210298248   0.000098866268 0.00033692  0.00000560  0.0050905 0.9200
 68  -1456.1209505097   0.000079315114 0.00034453  0.00000567  0.0050592 0.9200
 69  -1456.1208105926   0.000139917063 0.00034950  0.00000570  0.0050304 0.9200
 70  -1456.1205422739   0.000268318729 0.00034970  0.00000566  0.0050039 0.9200
 71  -1456.1201120293   0.000430244541 0.00034386  0.00000554  0.0049789 0.9200
 72  -1456.1195402805   0.000571748861 0.00033212  0.00000532  0.0049547 0.9200
 73  -1456.1189078440   0.000632436476 0.00031612  0.00000505  0.0049306 0.9200
 74  -1456.1183448619   0.000562982149 0.00029864  0.00000475  0.0049058 0.9200
 75  -1456.1180091841   0.000335677713 0.00028290  0.00000447  0.0048794 0.9200
 76  -1456.1180628765  -0.000053692349 0.00027204  0.00000427  0.0048507 0.9200
 77  -1456.1186410224  -0.000578145883 0.00026856  0.00000419  0.0048322 0.9200
 78  -1456.1197921438  -0.001151121465 0.00027354  0.00000423  0.0048119 0.9200
 79  -1456.1213942625  -0.001602118657 0.00028526  0.00000437  0.0047888 0.9200
 80  -1456.1231341779  -0.001739915425 0.00029862  0.00000455  0.0047634 0.9200
 81  -1456.1246485960  -0.001514418100 0.00030733  0.00000467  0.0047367 0.9200
 82  -1456.1257230965  -0.001074500497 0.00030743  0.00000465  0.0047100 0.9200
 83  -1456.1264059266  -0.000682830043 0.00030044  0.00000454  0.0046841 0.9200
 84  -1456.1267733175  -0.000367390957 0.00028820  0.00000435  0.0046598 0.9200
 85  -1456.1269137798  -0.000140462304 0.00027261  0.00000412  0.0046372 0.9200
 86  -1456.1269065883   0.000007191504 0.00025541  0.00000385  0.0046164 0.9200
 87  -1456.1268100278   0.000096560473 0.00023788  0.00000359  0.0045974 0.9200
 88  -1456.1266622526   0.000147775252 0.00022090  0.00000333  0.0045802 0.9200
 89  -1456.1264869569   0.000175295712 0.00020503  0.00000310  0.0045646 0.9200
 90  -1456.1262986604   0.000188296507 0.00019060  0.00000288  0.0045507 0.9200
 91  -1456.1261053727   0.000193287652 0.00017778  0.00000269  0.0045384 0.9200
 92  -1456.1259088388   0.000196533967 0.00016651  0.00000252  0.0045276 0.9200
 93  -1456.1257040323   0.000204806500 0.00015657  0.00000238  0.0045182 0.9200
 94  -1456.1254795840   0.000224448234 0.00014752  0.00000224  0.0045103 0.9200
 95  -1456.1252198591   0.000259724911 0.00013882  0.00000212  0.0045038 0.9200
 96  -1456.1249084421   0.000311416958 0.00012991  0.00000198  0.0044984 0.9200
 97  -1456.1245321876   0.000376254560 0.00012032  0.00000184  0.0044942 0.9200
 98  -1456.1240851117   0.000447075878 0.00010978  0.00000169  0.0044908 0.9200
 99  -1456.1235714320   0.000513679664 0.00009826  0.00000151  0.0044880 0.9200
100  -1456.1230071296   0.000564302489 0.00008601  0.00000133  0.0044857 0.9200
101  -1456.1224195276   0.000587601942 0.00007355  0.00000114  0.0044837 0.9200
102  -1456.1218446297   0.000574897961 0.00006156  0.00000096  0.0044817 0.9200
103  -1456.1213223414   0.000522288300 0.00005081  0.00000079  0.0044797 0.9200
104  -1456.1208901664   0.000432174947 0.00004199  0.00000065  0.0044774 0.9200
105  -1456.1205764362   0.000313730217 0.00003558  0.00000055  0.0044749 0.9200
106  -1456.1203945295   0.000181906687 0.00003176  0.00000049  0.0044720 0.9200
107  -1456.1203397046   0.000054824924 0.00003035  0.00000047  0.0044689 0.9200
108  -1456.1203898501  -0.000050145558 0.00003082  0.00000047  0.0044656 0.9200
109  -1456.1205104500  -0.000120599823 0.00003247  0.00000050  0.0044620 0.9200
110  -1456.1206624743  -0.000152024325 0.00003452  0.00000053  0.0044584 0.9200
111  -1456.1208104692  -0.000147994956 0.00003631  0.00000055  0.0044548 0.9200
112  -1456.1209278457  -0.000117376493 0.00003741  0.00000057  0.0044513 0.9200
113  -1456.1209977509  -0.000069905167 0.00003761  0.00000057  0.0044478 0.9200
114  -1456.1210101141  -0.000012363157 0.00003690  0.00000056  0.0044445 0.9200
115  -1456.1209569019   0.000053212165 0.00003536  0.00000054  0.0044415 0.9200
116  -1456.1208274825   0.000129419383 0.00003312  0.00000050  0.0044388 0.9200
117  -1456.1206048828   0.000222599698 0.00003033  0.00000046  0.0044365 0.9200
118  -1456.1202625945   0.000342288362 0.00002710  0.00000042  0.0044347 0.9200
119  -1456.1197607321   0.000501862342 0.00002350  0.00000037  0.0044336 0.9200
120  -1456.1190398453   0.000720886768 0.00001942  0.00000031  0.0044334 0.9200
121  -1456.1180113850   0.001028460371 0.00001453  0.00000025  0.0044343 0.9200
122  -1456.1165463115   0.001465073516 0.00000827  0.00000019  0.0044365 0.9200
123  -1456.1144692731   0.002077038358 0.00000335  0.00000015  0.0044405 0.9200
124  -1456.1115939006   0.002875372482 0.00000850  0.00000021  0.0044469 0.9200
125  -1456.1079734759   0.003620424699 0.00001252  0.00000030  0.0044569 0.9200
126  -1456.1048447408   0.003128735149 0.00001187  0.00000051  0.0044728 0.9200
127  -1456.1057793615  -0.000934620743 0.00008596  0.00000163  0.0044992 0.9200
128  -1456.1125300534  -0.006750691862 0.00022705  0.00000375  0.0045404 0.9200
129  -1456.1205860356  -0.008055982225 0.00038036  0.00000607  0.0045941 0.9200
130  -1456.1265708391  -0.005984803507 0.00051265  0.00000808  0.0046532 0.9200
131  -1456.1301527237  -0.003581884608 0.00061277  0.00000961  0.0047143 0.9200
132  -1456.1317671972  -0.001614473530 0.00067574  0.00001059  0.0047773 0.9200
133  -1456.1319262583  -0.000159061019 0.00070240  0.00001101  0.0048424 0.9200
134  -1456.1311652949   0.000760963316 0.00070052  0.00001099  0.0049097 0.9200
135  -1456.1299444046   0.001220890315 0.00068058  0.00001068  0.0049781 0.9200
136  -1456.1285525231   0.001391881480 0.00065081  0.00001021  0.0050465 0.9200
137  -1456.1271291069   0.001423416247 0.00061609  0.00000966  0.0051138 0.9200
138  -1456.1257362247   0.001392882236 0.00057909  0.00000908  0.0051792 0.9200
139  -1456.1244059524   0.001330272306 0.00054148  0.00000848  0.0052421 0.9200
140  -1456.1231578457   0.001248106656 0.00050439  0.00000790  0.0053020 0.9200
141  -1456.1220032587   0.001154587047 0.00046857  0.00000733  0.0053587 0.9200
142  -1456.1209465662   0.001056692443 0.00043449  0.00000679  0.0054122 0.9200
143  -1456.1199863356   0.000960230563 0.00040237  0.00000629  0.0054624 0.9200
144  -1456.1191167666   0.000869569062 0.00037226  0.00000581  0.0055093 0.9200
145  -1456.1183291629   0.000787603642 0.00034408  0.00000537  0.0055530 0.9200
146  -1456.1176132681   0.000715894854 0.00031772  0.00000495  0.0055937 0.9200
147  -1456.1169584146   0.000654853493 0.00029301  0.00000456  0.0056315 0.9200
148  -1456.1163544702   0.000603944368 0.00026985  0.00000420  0.0056666 0.9200
149  -1456.1157925229   0.000561947325 0.00024815  0.00000386  0.0056990 0.9200
150  -1456.1152652186   0.000527304319 0.00022789  0.00000354  0.0057289 0.9200
151  -1456.1147667121   0.000498506450 0.00020910  0.00000325  0.0057565 0.9200
152  -1456.1142923028   0.000474409303 0.00019184  0.00000298  0.0057820 0.9200
153  -1456.1138379222   0.000454380633 0.00017619  0.00000274  0.0058055 0.9200
154  -1456.1133996436   0.000438278646 0.00016223  0.00000252  0.0058271 0.9200
155  -1456.1129732943   0.000426349229 0.00015003  0.00000233  0.0058471 0.9200
156  -1456.1125541497   0.000419144667 0.00013964  0.00000217  0.0058656 0.9200
157  -1456.1121366374   0.000417512222 0.00013113  0.00000204  0.0058830 0.9200
158  -1456.1117139983   0.000422639160 0.00012454  0.00000194  0.0058992 0.9200
159  -1456.1112778872   0.000436111113 0.00011989  0.00000187  0.0059147 0.9200
160  -1456.1108179443   0.000459942875 0.00011722  0.00000184  0.0059296 0.9200
161  -1456.1103213996   0.000496544674 0.00011650  0.00000183  0.0059441 0.9200
162  -1456.1097728712   0.000548528368 0.00011759  0.00000186  0.0059586 0.9200
163  -1456.1091548213   0.000618049904 0.00012011  0.00000191  0.0059732 0.9200
164  -1456.1084498724   0.000704948905 0.00012313  0.00000196  0.0059881 0.9200
165  -1456.1076479177   0.000801954784 0.00012480  0.00000200  0.0060035 0.9200
166  -1456.1067659172   0.000882000466 0.00012227  0.00000196  0.0060195 0.9200
167  -1456.1058978288   0.000868088393 0.00011405  0.00000184  0.0060356 0.9200
168  -1456.1052719968   0.000625831957 0.00010544  0.00000170  0.0060512 0.9200
169  -1456.1051012365   0.000170760336 0.00010589  0.00000170  0.0060657 0.9200
170  -1456.1052691294  -0.000167892919 0.00011665  0.00000186  0.0060789 0.9200
171  -1456.1053504526  -0.000081323216 0.00012921  0.00000205  0.0060911 0.9200
172  -1456.1049195016   0.000430951068 0.00013339  0.00000211  0.0061029 0.9200
173  -1456.1038497071   0.001069794435 0.00012578  0.00000198  0.0061141 0.9200
174  -1456.1023340426   0.001515664504 0.00011110  0.00000175  0.0061243 0.9200
175  -1456.1006258262   0.001708216448 0.00009599  0.00000151  0.0061332 0.9200
176  -1456.0988406805   0.001785145707 0.00008397  0.00000133  0.0061406 0.9200
177  -1456.0969739398   0.001866740633 0.00007574  0.00000120  0.0061466 0.9200
178  -1456.0949812907   0.001992649104 0.00007106  0.00000114  0.0061512 0.9200
179  -1456.0928182453   0.002163045403 0.00006972  0.00000113  0.0061545 0.9200
180  -1456.0904493967   0.002368848658 0.00007160  0.00000117  0.0061564 0.9200
181  -1456.0878513812   0.002598015481 0.00007661  0.00000125  0.0061568 0.9200
182  -1456.0850167862   0.002834594988 0.00008459  0.00000139  0.0061553 0.9200
183  -1456.0819589142   0.003057871994 0.00009524  0.00000156  0.0061516 0.9200
184  -1456.0787160901   0.003242824119 0.00010802  0.00000176  0.0061452 0.9200
185  -1456.0753542940   0.003361796126 0.00012226  0.00000199  0.0061353 0.9200
186  -1456.0719671306   0.003387163352 0.00013714  0.00000221  0.0061212 0.9200
187  -1456.0686723295   0.003294801092 0.00015186  0.00000243  0.0061022 0.9200
188  -1456.0656040839   0.003068245619 0.00016571  0.00000263  0.0060775 0.9200
189  -1456.0629007277   0.002703356232 0.00017818  0.00000281  0.0060465 0.9200
190  -1456.0606879648   0.002212762916 0.00018897  0.00000295  0.0060090 0.9200
191  -1456.0590596533   0.001628311478 0.00019800  0.00000306  0.0059649 0.9200
192  -1456.0580608247   0.000998828628 0.00020543  0.00000315  0.0059147 0.9200
193  -1456.0576794185   0.000381406110 0.00021155  0.00000322  0.0058592 0.9200
194  -1456.0578515173  -0.000172098721 0.00021671  0.00000327  0.0057997 0.9200
195  -1456.0584791234  -0.000627606141 0.00022127  0.00000332  0.0057375 0.9200
196  -1456.0594533434  -0.000974220038 0.00022551  0.00000337  0.0056740 0.9200
197  -1456.0606741075  -0.001220764060 0.00022962  0.00000342  0.0056105 0.9200
198  -1456.0620611619  -0.001387054410 0.00023371  0.00000347  0.0055483 0.9200
199  -1456.0635563186  -0.001495156657 0.00023785  0.00000353  0.0054882 0.9200
200  -1456.0651200629  -0.001563744323 0.00024200  0.00000359  0.0054308 0.9200
201  -1456.0667259052  -0.001605842282 0.00024610  0.00000365  0.0054721 0.9200
202  -1456.0683547185  -0.001628813344 0.00025003  0.00000371  0.0056230 0.9200
203  -1456.0699901622  -0.001635443673 0.00025357  0.00000377  0.0057669 0.9200
204  -1456.0716157531  -0.001625590873 0.00025647  0.00000382  0.0059037 0.9200
205  -1456.0732142434  -0.001598490294 0.00025841  0.00000385  0.0060335 0.9200
206  -1456.0747703533  -0.001556109911 0.00025913  0.00000387  0.0061565 0.9200
207  -1456.0762773799  -0.001507026585 0.00025854  0.00000386  0.0062727 0.9200
208  -1456.0777436783  -0.001466298416 0.00025684  0.00000384  0.0063823 0.9200
209  -1456.0791877314  -0.001444053157 0.00025438  0.00000381  0.0064855 0.9200
210  -1456.0806222879  -0.001434556485 0.00025129  0.00000377  0.0065826 0.9200
211  -1456.0820475769  -0.001425288945 0.00024741  0.00000371  0.0066737 0.9200
212  -1456.0834597845  -0.001412207688 0.00024252  0.00000364  0.0067591 0.9200
213  -1456.0848644541  -0.001404669603 0.00023672  0.00000355  0.0068388 0.9200
214  -1456.0862817990  -0.001417344850 0.00023044  0.00000346  0.0069131 0.9200
215  -1456.0877412818  -0.001459482774 0.00022431  0.00000337  0.0069820 0.9200
216  -1456.0892738092  -0.001532527461 0.00021887  0.00000329  0.0070458 0.9200
217  -1456.0909079870  -0.001634177725 0.00021456  0.00000322  0.0071045 0.9200
218  -1456.0926696872  -0.001761700212 0.00021169  0.00000318  0.0071585 0.9200
219  -1456.0945822173  -0.001912530181 0.00021048  0.00000317  0.0072077 0.9200
220  -1456.0966657610  -0.002083543672 0.00021106  0.00000319  0.0072525 0.9200
221  -1456.0989358077  -0.002270046707 0.00021347  0.00000323  0.0072928 0.9200
222  -1456.1014006534  -0.002464845658 0.00021768  0.00000330  0.0073287 0.9200
223  -1456.1040582763  -0.002657622948 0.00022351  0.00000340  0.0073602 0.9200
224  -1456.1068931797  -0.002834903377 0.00023067  0.00000352  0.0073873 0.9200
225  -1456.1098740868  -0.002980907083 0.00023870  0.00000365  0.0074096 0.9200
226  -1456.1129535386  -0.003079451843 0.00024704  0.00000379  0.0074271 0.9200
227  -1456.1160703097  -0.003116771037 0.00025505  0.00000393  0.0074395 0.9200
228  -1456.1191550068  -0.003084697134 0.00026211  0.00000405  0.0074463 0.9200
229  -1456.1221382717  -0.002983264909 0.00026772  0.00000415  0.0074474 0.9200
230  -1456.1249599433  -0.002821671591 0.00027157  0.00000422  0.0074424 0.9200
231  -1456.1275768861  -0.002616942760 0.00027365  0.00000427  0.0074311 0.9200
232  -1456.1299674421  -0.002390556066 0.00027429  0.00000430  0.0074135 0.9200
233  -1456.1321316468  -0.002164204710 0.00027410  0.00000431  0.0073895 0.9200
234  -1456.1340878718  -0.001956224927 0.00027395  0.00000433  0.0073593 0.9200
235  -1456.1358675991  -0.001779727328 0.00027488  0.00000437  0.0073230 0.9200
236  -1456.1375101210  -0.001642521870 0.00027804  0.00000444  0.0072809 0.9200
237  -1456.1390582597  -0.001548138725 0.00028457  0.00000456  0.0072334 0.9200
238  -1456.1405552459  -0.001496986248 0.00029560  0.00000476  0.0071810 0.9200
239  -1456.1420421187  -0.001486872737 0.00031214  0.00000505  0.0071242 0.9200
240  -1456.1435546025  -0.001512483826 0.00033493  0.00000544  0.0070634 0.9200
241  -1456.1451184197  -0.001563817152 0.00036440  0.00000594  0.0069994 0.9200
242  -1456.1467425147  -0.001624095064 0.00040042  0.00000655  0.0069327 0.9200
243  -1456.1484109007  -0.001668385987 0.00044221  0.00000725  0.0068639 0.9200
244  -1456.1500757338  -0.001664833067 0.00048827  0.00000803  0.0067936 0.9200
245  -1456.1516559440  -0.001580210184 0.00053652  0.00000884  0.0067219 0.9200
246  -1456.1530453949  -0.001389450930 0.00058460  0.00000965  0.0066490 0.9200
247  -1456.1541304271  -0.001085032187 0.00063037  0.00001042  0.0065748 0.9200
248  -1456.1548101933  -0.000679766249 0.00067223  0.00001113  0.0064994 0.9200
249  -1456.1550101483  -0.000199955006 0.00070923  0.00001176  0.0064227 0.9200
250  -1456.1546841288   0.000326019493 0.00074088  0.00001230  0.0063450 0.9200
251  -1456.1538092074   0.000874921411 0.00076694  0.00001275  0.0063341 0.9200
252  -1456.1523802575   0.001428949887 0.00078725  0.00001311  0.0064431 0.9200
253  -1456.1504069664   0.001973291092 0.00080175  0.00001336  0.0065542 0.9200
254  -1456.1479118700   0.002495096415 0.00081052  0.00001352  0.0066665 0.9200
255  -1456.1449278602   0.002984009815 0.00081379  0.00001359  0.0067790 0.9200
256  -1456.1414952506   0.003432609618 0.00081188  0.00001356  0.0068909 0.9200
257  -1456.1376590609   0.003836189720 0.00080519  0.00001346  0.0070014 0.9200
258  -1456.1334668311   0.004192229792 0.00079415  0.00001328  0.0071097 0.9200
259  -1456.1289670056   0.004499825508 0.00077919  0.00001304  0.0072151 0.9200
260  -1456.1242078925   0.004759113130 0.00076070  0.00001273  0.0073170 0.9200
261  -1456.1192372058   0.004970686621 0.00073901  0.00001237  0.0074149 0.9200
262  -1456.1141021607   0.005135045096 0.00071440  0.00001196  0.0075082 0.9200
263  -1456.1088500243   0.005252136389 0.00068709  0.00001151  0.0075966 0.9200
264  -1456.1035289485   0.005321075841 0.00065728  0.00001101  0.0076798 0.9200
265  -1456.0981888259   0.005340122643 0.00062517  0.00001048  0.0077575 0.9200
266  -1456.0928818464   0.005306979460 0.00059099  0.00000991  0.0078296 0.9200
267  -1456.0876624167   0.005219429725 0.00055507  0.00000931  0.0078960 0.9200
268  -1456.0825861813   0.005076235367 0.00051787  0.00000869  0.0079567 0.9200
269  -1456.0777080770   0.004878104335 0.00047993  0.00000806  0.0080119 0.9200
270  -1456.0730796268   0.004628450160 0.00044191  0.00000743  0.0080618 0.9200
271  -1456.0687459617   0.004333665102 0.00040449  0.00000680  0.0081067 0.9200
272  -1456.0647432138   0.004002747879 0.00036829  0.00000620  0.0081470 0.9200
273  -1456.0610968796   0.003646334249 0.00033385  0.00000563  0.0081833 0.9200
274  -1456.0578215002   0.003275379387 0.00030150  0.00000510  0.0082160 0.9200
275  -1456.0549216616   0.002899838599 0.00027138  0.00000460  0.0082458 0.9200
276  -1456.0523940008   0.002527660765 0.00024340  0.00000414  0.0082732 0.9200
277  -1456.0502296979   0.002164302887 0.00021730  0.00000371  0.0082987 0.9200
278  -1456.0484168164   0.001812881595 0.00019258  0.00000330  0.0083230 0.9200
279  -1456.0469417543   0.001475062094 0.00016857  0.00000290  0.0083463 0.9200
280  -1456.0457888785   0.001152875745 0.00014436  0.00000250  0.0083691 0.9200
281  -1456.0449369971   0.000851881459 0.00011871  0.00000207  0.0083916 0.9200
282  -1456.0443505225   0.000586474595 0.00008986  0.00000159  0.0084141 0.9200
283  -1456.0439619434   0.000388579068 0.00005524  0.00000101  0.0084365 0.9200
284  -1456.0436414860   0.000320457350 0.00001115  0.00000032  0.0084584 0.9200
285  -1456.0431542537   0.000487232317 0.00004744  0.00000079  0.0084789 0.9200
286  -1456.0421270388   0.001027214912 0.00012641  0.00000213  0.0084960 0.9200
287  -1456.0424959332  -0.000368894370 0.00012194  0.00000205  0.0085065 0.9200
288  -1456.0427730582  -0.000277125047 0.00011682  0.00000197  0.0085160 0.9200
289  -1456.0429058149  -0.000132756636 0.00011175  0.00000189  0.0085241 0.9200
290  -1456.0428871646   0.000018650222 0.00010655  0.00000182  0.0085301 0.9200
291  -1456.0427545447   0.000132619965 0.00010037  0.00000173  0.0085334 0.9200
292  -1456.0425823988   0.000172145855 0.00009198  0.00000161  0.0085332 0.9200
293  -1456.0424688747   0.000113524118 0.00008016  0.00000144  0.0085293 0.9200
294  -1456.0425198352  -0.000050960516 0.00006392  0.00000120  0.0085214 0.9200
295  -1456.0428347357  -0.000314900499 0.00004256  0.00000087  0.0085100 0.9200
296  -1456.0434977270  -0.000662991236 0.00001977  0.00000047  0.0084955 0.9200
297  -1456.0445743415  -0.001076614535 0.00001683  0.00000023  0.0084791 0.9200
298  -1456.0461114229  -0.001537081381 0.00005507  0.00000076  0.0084618 0.9200
299  -1456.0481369519  -0.002025529050 0.00009890  0.00000147  0.0084447 0.9200
300  -1456.0506570357  -0.002520083819 0.00014786  0.00000228  0.0084289 0.9200
301  -1456.0536488734  -0.002991837685 0.00020086  0.00000317  0.0084154 0.9200
302  -1456.0570507414  -0.003401867967 0.00025578  0.00000410  0.0084048 0.9200
303  -1456.0501822712   0.006868470170 0.00018998  0.00000346  0.0083973 0.9200
304  -1456.0398305186   0.010351752640 0.00004191  0.00000110  0.0083625 0.9200
305  -1456.0398523276  -0.000021809068 0.00011708  0.00000212  0.0082838 0.9200
306  -1456.0457178389  -0.005865511233 0.00024290  0.00000396  0.0081738 0.9200
307  -1456.0542113141  -0.008493475174 0.00034141  0.00000543  0.0080489 0.9200
308  -1456.0640685871  -0.009857273082 0.00041640  0.00000657  0.0079241 0.9200
309  -1456.0750175967  -0.010949009599 0.00048061  0.00000756  0.0078078 0.9200
310  -1456.0868066376  -0.011789040874 0.00053965  0.00000847  0.0077037 0.9200
311  -1456.0989157679  -0.012109130299 0.00059430  0.00000934  0.0076481 0.9200
312  -1456.1105627269  -0.011646958983 0.00064271  0.00001012  0.0079212 0.9200
313  -1456.1208922172  -0.010329490265 0.00068166  0.00001076  0.0081685 0.9200
314  -1456.1292773455  -0.008385128350 0.00070775  0.00001121  0.0083908 0.9200
315  -1456.1355347603  -0.006257414776 0.00071859  0.00001143  0.0085904 0.9200
316  -1456.1398875379  -0.004352777646 0.00071365  0.00001138  0.0087706 0.9200
317  -1456.1427530776  -0.002865539643 0.00069438  0.00001110  0.0089346 0.9200
318  -1456.1445547109  -0.001801633339 0.00066367  0.00001063  0.0090849 0.9200
319  -1456.1456412570  -0.001086546101 0.00062515  0.00001002  0.0092232 0.9200
320  -1456.1462785724  -0.000637315412 0.00058248  0.00000934  0.0093504 0.9200
321  -1456.1466622785  -0.000383706082 0.00053892  0.00000864  0.0094674 0.9200
322  -1456.1469290529  -0.000266774391 0.00049692  0.00000797  0.0095751 0.9200
323  -1456.1471632503  -0.000234197388 0.00045800  0.00000735  0.0096741 0.9200
324  -1456.1474014752  -0.000238224896 0.00042266  0.00000678  0.0097652 0.9200
325  -1456.1476387453  -0.000237270109 0.00039045  0.00000627  0.0098493 0.9200
326  -1456.1478419792  -0.000203233959 0.00036015  0.00000578  0.0099270 0.9200
327  -1456.1479815425  -0.000139563222 0.00033040  0.00000530  0.0099986 0.9200
328  -1456.1480870106  -0.000105468149 0.00030160  0.00000484  0.0100644 0.9200
329  -1456.1481870423  -0.000100031728 0.00027406  0.00000439  0.0101243 0.9200
330  -1456.1483091377  -0.000122095400 0.00024806  0.00000396  0.0101784 0.9200
331  -1456.1484796067  -0.000170468983 0.00022384  0.00000357  0.0102268 0.9200
332  -1456.1487231833  -0.000243576557 0.00020161  0.00000320  0.0102696 0.9200
333  -1456.1490620661  -0.000338882790 0.00018155  0.00000287  0.0103067 0.9200
334  -1456.1495145234  -0.000452457349 0.00016380  0.00000258  0.0103382 0.9200
335  -1456.1500934152  -0.000578891772 0.00014841  0.00000233  0.0103640 0.9200
336  -1456.1508049610  -0.000711545807 0.00013531  0.00000211  0.0103840 0.9200
337  -1456.1516478526  -0.000842891587 0.00012424  0.00000194  0.0103984 0.9200
338  -1456.1526124980  -0.000964645416 0.00011475  0.00000179  0.0104068 0.9200
339  -1456.1536799199  -0.001067421920 0.00010607  0.00000165  0.0104090 0.9200
340  -1456.1548195999  -0.001139680005 0.00009712  0.00000151  0.0104048 0.9200
341  -1456.1559851065  -0.001165506521 0.00008626  0.00000135  0.0103933 0.9200
342  -1456.1571049418  -0.001119835306 0.00007111  0.00000111  0.0103735 0.9200
343  -1456.1580617623  -0.000956820569 0.00004779  0.00000076  0.0103437 0.9200
344  -1456.1586022688  -0.000540506452 0.00001727  0.00000038  0.0103010 0.9200
345  -1456.1587306698  -0.000128400982 0.00001885  0.00000047  0.0102437 0.9200
346  -1456.1580516414   0.000679028378 0.00003675  0.00000080  0.0101713 0.9200
347  -1456.1595432862  -0.001491644844 0.00008402  0.00000160  0.0100876 0.9200
348  -1456.1609102407  -0.001366954431 0.00012335  0.00000226  0.0099776 0.9200
349  -1456.1619025104  -0.000992269693 0.00015169  0.00000273  0.0098453 0.9200
350  -1456.1622457459  -0.000343235521 0.00016744  0.00000298  0.0096968 0.9200
351  -1456.1616976690   0.000548076913 0.00016962  0.00000299  0.0095400 0.9200
352  -1456.1601485515   0.001549117412 0.00015756  0.00000276  0.0093843 0.9200
353  -1456.1576915940   0.002456957500 0.00013081  0.00000228  0.0092389 0.9200
354  -1456.1545956703   0.003095923734 0.00008926  0.00000156  0.0091121 0.9200
355  -1456.1511949079   0.003400762380 0.00003337  0.00000066  0.0090093 0.9200
356  -1456.1477790270   0.003415880905 0.00003576  0.00000083  0.0089333 0.9200
357  -1456.1445435099   0.003235517126 0.00011653  0.00000218  0.0088842 0.9200
358  -1456.1415915640   0.002951945870 0.00020684  0.00000376  0.0088608 0.9200
359  -1456.1389505360   0.002641028050 0.00030396  0.00000547  0.0088609 0.9200
360  -1456.1365766584   0.002373877551 0.00040427  0.00000725  0.0088823 0.9200
361  -1456.1538536553  -0.017276996818 0.00134275  0.00002393  0.0089225 0.9200
362  -1456.1436899855   0.010163669708 0.00120780  0.00002195  0.0091220 0.9200
363  -1456.1201290585   0.023560926996 0.00088502  0.00001631  0.0092128 0.9200
364  -1456.1079684192   0.012160639348 0.00081008  0.00001499  0.0092272 0.9200
365  -1456.0998672101   0.008101209108 0.00080298  0.00001486  0.0092306 0.9200
366  -1456.0922343301   0.007632880030 0.00079001  0.00001461  0.0092385 0.9200
367  -1456.0846018268   0.007632503249 0.00076269  0.00001411  0.0092518 0.9200
368  -1456.0770256463   0.007576180555 0.00072298  0.00001337  0.0092694 0.9200
369  -1456.0696449669   0.007380679372 0.00067452  0.00001247  0.0092899 0.9200
370  -1456.0625935411   0.007051425739 0.00062092  0.00001148  0.0093118 0.9200
371  -1456.0559772854   0.006616255772 0.00056521  0.00001046  0.0093339 0.9200
372  -1456.0498705824   0.006106702942 0.00050971  0.00000944  0.0093549 0.9200
373  -1456.0443199328   0.005550649650 0.00045607  0.00000845  0.0093738 0.9200
374  -1456.0393506552   0.004969277604 0.00040533  0.00000753  0.0093893 0.9200
375  -1456.0349743951   0.004376260104 0.00035807  0.00000667  0.0094003 0.9200
376  -1456.0311961730   0.003778222118 0.00031455  0.00000588  0.0094056 0.9200
377  -1456.0280202356   0.003175937405 0.00027480  0.00000516  0.0094040 0.9200
378  -1456.0254540993   0.002566136247 0.00023875  0.00000451  0.0093939 0.9200
379  -1456.0235097922   0.001944307092 0.00020627  0.00000393  0.0093740 0.9200
380  -1456.0222002428   0.001309549382 0.00017726  0.00000341  0.0093428 0.9200
381  -1456.0215270640   0.000673178856 0.00015174  0.00000296  0.0092988 0.9200
382  -1456.0214549411   0.000072122889 0.00012995  0.00000257  0.0093037 0.9200
383  -1456.0218726298  -0.000417688733 0.00011252  0.00000226  0.0093527 0.9200
384  -1456.0225605842  -0.000687954368 0.00010045  0.00000204  0.0094045 0.9200
385  -1456.0232294939  -0.000668909727 0.00009489  0.00000192  0.0094573 0.9200
386  -1456.0236650061  -0.000435512234 0.00009655  0.00000192  0.0095084 0.9200
387  -1456.0238474019  -0.000182395791 0.00010505  0.00000205  0.0095551 0.9200
388  -1456.0238603437  -0.000012941737 0.00011940  0.00000230  0.0095963 0.9200
389  -1456.0238184695   0.000041874136 0.00013799  0.00000264  0.0096321 0.9200
390  -1456.0238080856   0.000010383943 0.00015917  0.00000305  0.0096637 0.9200
391  -1456.0238893312  -0.000081245629 0.00018158  0.00000351  0.0096928 0.9200
392  -1456.0241216218  -0.000232290535 0.00020439  0.00000398  0.0097210 0.9200
393  -1456.0245850829  -0.000463461118 0.00022752  0.00000446  0.0097496 0.9200
394  -1456.0253913901  -0.000806307203 0.00025190  0.00000497  0.0097801 0.9200
395  -1456.0266825094  -0.001291119302 0.00027926  0.00000553  0.0098136 0.9200
396  -1456.0286164593  -0.001933949954 0.00031172  0.00000617  0.0098513 0.9200
397  -1456.0313445400  -0.002728080647 0.00035091  0.00000693  0.0098945 0.9200
398  -1456.0349949700  -0.003650430054 0.00039732  0.00000779  0.0099444 0.9200
399  -1456.0396868045  -0.004691834411 0.00045028  0.00000876  0.0100021 0.9200
400  -1456.0455904389  -0.005903634446 0.00050930  0.00000981  0.0100687 0.9200
401  -1456.0530133716  -0.007422932683 0.00057600  0.00001098  0.0101450 0.9200
402  -1456.0564437366  -0.003430365021 0.00056200  0.00001061  0.0102316 0.9200
403  -1456.0593989250  -0.002955188444 0.00053977  0.00001010  0.0103201 0.9200
404  -1456.0636554884  -0.004256563388 0.00053732  0.00000998  0.0104065 0.9200
405  -1456.0690387737  -0.005383285307 0.00054625  0.00001008  0.0104908 0.9200
406  -1456.0753329380  -0.006294164300 0.00056232  0.00001032  0.0105734 0.9200
407  -1456.0823011417  -0.006968203690 0.00058263  0.00001064  0.0106543 0.9200
408  -1456.0896485087  -0.007347367005 0.00060398  0.00001098  0.0107334 0.9200
409  -1456.0970394591  -0.007390950402 0.00062285  0.00001128  0.0108100 0.9200
410  -1456.1041330607  -0.007093601524 0.00063569  0.00001147  0.0108836 0.9200
411  -1456.1106292721  -0.006496211452 0.00063954  0.00001150  0.0109534 0.9200
412  -1456.1163113525  -0.005682080363 0.00063256  0.00001133  0.0110184 0.9200
413  -1456.1210698297  -0.004758477183 0.00061437  0.00001096  0.0110781 0.9200
414  -1456.1249015824  -0.003831752726 0.00058605  0.00001041  0.0111321 0.9200
415  -1456.1278879131  -0.002986330683 0.00054972  0.00000972  0.0111802 0.9200
416  -1456.1301617037  -0.002273790586 0.00050808  0.00000894  0.0112227 0.9200
417  -1456.1318741219  -0.001712418273 0.00046385  0.00000813  0.0112600 0.9200
418  -1456.1331680450  -0.001293923115 0.00041947  0.00000732  0.0112928 0.9200
419  -1456.1341614536  -0.000993408576 0.00037681  0.00000655  0.0113219 0.9200
420  -1456.1349415239  -0.000780070305 0.00033723  0.00000584  0.0113482 0.9200
421  -1456.1355694504  -0.000627926527 0.00030165  0.00000521  0.0113725 0.9200
422  -1456.1360961334  -0.000526682963 0.00027083  0.00000467  0.0113954 0.9200
423  -1456.1365872330  -0.000491099598 0.00024572  0.00000424  0.0114173 0.9200
424  -1456.1371494485  -0.000562215523 0.00022774  0.00000395  0.0114383 0.9200
425  -1456.1379390924  -0.000789643849 0.00021863  0.00000381  0.0114581 0.9200
426  -1456.1391335759  -0.001194483529 0.00021983  0.00000387  0.0114766 0.9200
427  -1456.1408710818  -0.001737505879 0.00023151  0.00000413  0.0114935 0.9200
428  -1456.1431928205  -0.002321738664 0.00025198  0.00000455  0.0115085 0.9200
429  -1456.1460035241  -0.002810703634 0.00027741  0.00000506  0.0115214 0.9200
430  -1456.1490706148  -0.003067090760 0.00030235  0.00000554  0.0115317 0.9200
431  -1456.1520740191  -0.003003404270 0.00032110  0.00000588  0.0115380 0.9200
432  -1456.1547089697  -0.002634950617 0.00032983  0.00000600  0.0115386 0.9200
433  -1456.1567999346  -0.002090964907 0.00032866  0.00000589  0.0115309 0.9200
434  -1456.1583414957  -0.001541561037 0.00032217  0.00000568  0.0115117 0.9200
435  -1456.1594187412  -0.001077245502 0.00031727  0.00000550  0.0114780 0.9200
436  -1456.1600712469  -0.000652505693 0.00031968  0.00000549  0.0114272 0.9200
437  -1456.1602296112  -0.000158364345 0.00033080  0.00000569  0.0113578 0.9200
438  -1456.1597819950   0.000447616266 0.00034737  0.00000602  0.0112704 0.9200
439  -1456.1586838235   0.001098171436 0.00036403  0.00000638  0.0111672 0.9200
440  -1456.1569877304   0.001696093077 0.00037634  0.00000666  0.0110523 0.9200
441  -1456.1547930136   0.002194716823 0.00038193  0.00000683  0.0109299 0.9200
442  -1456.1521947940   0.002598219611 0.00038002  0.00000684  0.0108454 0.9200
443  -1456.1493416441   0.002853149883 0.00037296  0.00000676  0.0107761 0.9200
444  -1456.1463188173   0.003022826863 0.00036275  0.00000661  0.0110174 0.9200
445  -1456.1431577887   0.003161028519 0.00035056  0.00000643  0.0113577 0.9200
446  -1456.1398693327   0.003288456041 0.00033723  0.00000622  0.0116875 0.9200
447  -1456.1364521139   0.003417218786 0.00032340  0.00000600  0.0120051 0.9200
448  -1456.1328957425   0.003556371433 0.00030951  0.00000577  0.0123098 0.9200
449  -1456.1291830581   0.003712684334 0.00029585  0.00000555  0.0126012 0.9200
450  -1456.1252923213   0.003890736836 0.00028262  0.00000534  0.0128794 0.9200
451  -1456.1211995421   0.004092779258 0.00026992  0.00000513  0.0131445 0.9200
452  -1456.1168810430   0.004318499095 0.00025786  0.00000494  0.0133970 0.9200
453  -1456.1123163838   0.004564659191 0.00024650  0.00000477  0.0136373 0.9200
454  -1456.1074918290   0.004824554757 0.00023593  0.00000461  0.0138660 0.9200
455  -1456.1024043905   0.005087438501 0.00022626  0.00000446  0.0140834 0.9200
456  -1456.0970660113   0.005338379188 0.00021760  0.00000434  0.0142900 0.9200
457  -1456.0915068350   0.005559176315 0.00021006  0.00000425  0.0144862 0.9200
458  -1456.0857761058   0.005730729186 0.00020373  0.00000417  0.0146722 0.9200
459  -1456.0799394561   0.005836649750 0.00019868  0.00000413  0.0148482 0.9200
460  -1456.0740722989   0.005867157170 0.00019495  0.00000410  0.0150142 0.9200
461  -1456.0682504811   0.005821817803 0.00019272  0.00000411  0.0151703 0.9200
462  -1456.0625405689   0.005709912194 0.00019376  0.00000413  0.0153166 0.9200
463  -1456.0569923614   0.005548207551 0.00019574  0.00000417  0.0154530 0.9200
464  -1456.0516351770   0.005357184370 0.00019861  0.00000424  0.0155796 0.9200
465  -1456.0464777634   0.005157413560 0.00020230  0.00000432  0.0156965 0.9200
466  -1456.0415105310   0.004967232398 0.00020672  0.00000442  0.0158038 0.9200
467  -1456.0367089589   0.004801572118 0.00021167  0.00000453  0.0159017 0.9200
468  -1456.0320379408   0.004671018150 0.00021681  0.00000464  0.0159904 0.9200
469  -1456.0274573218   0.004580618967 0.00022163  0.00000475  0.0160699 0.9200
470  -1456.0229289086   0.004528413156 0.00022559  0.00000484  0.0161402 0.9200
471  -1456.0184243386   0.004504569985 0.00022822  0.00000491  0.0162011 0.9200
472  -1456.0139321562   0.004492182449 0.00022933  0.00000494  0.0162525 0.9200
473  -1456.0094622795   0.004469876741 0.00022916  0.00000494  0.0162938 0.9200
474  -1456.0050477385   0.004414540995 0.00022836  0.00000493  0.0163244 0.9200
475  -1456.0007460562   0.004301682221 0.00022800  0.00000493  0.0163436 0.9200
476  -1455.9966428882   0.004103168066 0.00022941  0.00000498  0.0163503 0.9200
477  -1455.9928573323   0.003785555885 0.00023409  0.00000509  0.0163435 0.9200
478  -1455.9895447902   0.003312542049 0.00024357  0.00000531  0.0163218 0.9200
479  -1455.9868933446   0.002651445690 0.00025940  0.00000567  0.0162838 0.9200
480  -1455.9851124892   0.001780855361 0.00028315  0.00000620  0.0162285 0.9200
481  -1455.9844147809   0.000697708264 0.00031647  0.00000694  0.0161550 0.9200
482  -1455.9849917938  -0.000577012902 0.00036111  0.00000792  0.0160633 0.9200
483  -1455.9869886303  -0.001996836518 0.00041894  0.00000920  0.0159541 0.9200
484  -1455.9904772960  -0.003488665645 0.00049168  0.00001080  0.0158292 0.9200
485  -1455.9954434756  -0.004966179651 0.00058060  0.00001276  0.0156910 0.9200
486  -1456.0017902512  -0.006346775536 0.00068610  0.00001508  0.0155426 0.9200
487  -1456.0093527273  -0.007562476155 0.00080733  0.00001775  0.0153869 0.9200
488  -1456.0179154766  -0.008562749277 0.00094170  0.00002073  0.0152264 0.9200
489  -1456.0272291529  -0.009313676341 0.00108480  0.00002391  0.0150627 0.9200
490  -1456.0370309890  -0.009801836027 0.00123062  0.00002717  0.0148960 0.9200
491  -1456.0470772788  -0.010046289842 0.00137267  0.00003038  0.0147258 0.9200
492  -1456.0571868418  -0.010109563008 0.00150544  0.00003341  0.0145506 0.9200
493  -1456.0672778556  -0.010091013781 0.00162583  0.00003619  0.0143690 0.9200
494  -1456.0773753907  -0.010097535124 0.00173373  0.00003873  0.0141800 0.9200
495  -1456.0875850413  -0.010209650556 0.00183150  0.00004107  0.0139835 0.9200
496  -1456.0980523362  -0.010467294959 0.00192303  0.00004330  0.0137798 0.9200
497  -1456.1089328875  -0.010880551267 0.00201281  0.00004554  0.0135697 0.9200
498  -1456.1203848668  -0.011451979299 0.00210555  0.00004790  0.0133538 0.9200
499  -1456.1325823496  -0.012197482822 0.00220631  0.00005051  0.0131324 0.9200
500  -1456.1457450895  -0.013162739852 0.00232081  0.00005353  0.0129047 0.9200
501  -1456.1601826829  -0.014437593386 0.00245608  0.00005716  0.0126684 0.9200
502  -1456.1763480702  -0.016165387367 0.00262091  0.00006170  0.0124826 0.9200
503  -1456.1948658011  -0.018517730882 0.00282556  0.00006750  0.0125612 0.9200
504  -1456.2163837174  -0.021517916289 0.00307828  0.00007499  0.0126167 0.9200
505  -1456.2407704505  -0.024386733040 0.00337285  0.00008435  0.0126418 0.9200
506  -1456.2649357091  -0.024165258668 0.00366392  0.00009475  0.0126244 0.9200
507  -1456.2816771175  -0.016741408373 0.00386353  0.00010385  0.0125461 0.9200
508  -1456.2701847360   0.011492381516 0.00357247  0.00009622  0.0123804 0.9200
509  -1456.2886896543  -0.018504918322 0.00393278  0.00011163  0.0121823 0.9200
510  -1456.2762253612   0.012464293081 0.00364893  0.00010346  0.0118149 0.9200
511  -1456.2697670544   0.006458306792 0.00345816  0.00009769  0.0114227 0.9200
512  -1456.3239668569  -0.054199802517 0.00421378  0.00011564  0.0110032 0.9200
513  -1456.3104283673   0.013538489632 0.00386631  0.00010614  0.0104359 0.9200
514  -1456.2932703487   0.017158018615 0.00351245  0.00009658  0.0098526 0.9200
515  -1456.2711524848   0.022117863876 0.00323508  0.00008940  0.0092844 0.9200
516  -1456.3047346286  -0.033582143766 0.00332836  0.00009113  0.0087346 0.9200
517  -1456.2820875407   0.022647087857 0.00294733  0.00008110  0.0082251 0.9200
518  -1456.2787183784   0.003369162356 0.00274001  0.00007541  0.0077089 0.9200
519  -1456.2699523279   0.008766050469 0.00249922  0.00006890  0.0072094 0.9200
520  -1456.2626002940   0.007352033907 0.00228357  0.00006304  0.0067268 0.9200
521  -1456.2554731696   0.007127124425 0.00208254  0.00005758  0.0062647 0.9200
522  -1456.2487889971   0.006684172428 0.00189742  0.00005253  0.0058252 0.9200
523  -1456.2425564099   0.006232587271 0.00172750  0.00004790  0.0054092 0.9200
524  -1456.2367844713   0.005771938619 0.00157203  0.00004365  0.0050173 0.9200
525  -1456.2314712507   0.005313220592 0.00143015  0.00003976  0.0046494 0.9200
526  -1456.2266066879   0.004864562806 0.00130094  0.00003622  0.0043051 0.9200
527  -1456.2221740461   0.004432641787 0.00118350  0.00003300  0.0039837 0.9200
528  -1456.2181512296   0.004022816426 0.00107691  0.00003007  0.0036843 0.9200
529  -1456.2145121686   0.003639061005 0.00098028  0.00002740  0.0034058 0.9200
530  -1456.2112282303   0.003283938352 0.00089273  0.00002499  0.0031472 0.9200
531  -1456.2082695447   0.002958685609 0.01016803  0.00028499  0.0029072 0.0000
532  -1456.1795803922   0.028689152516 0.00124537  0.00001561  0.0002107 0.0000
533  -1456.1749335297   0.004646862451 0.00068599  0.00001856  0.0002025 0.0000
534  -1456.1769155892  -0.001982059450 0.00040510  0.00001136  0.0006431 0.0000
535  -1456.1806262324  -0.003710643221 0.00027629  0.00000815  0.0001331 0.0000
536  -1456.1794821733   0.001144059040 0.00021826  0.00000589  0.0002099 0.0000
537  -1456.1794245226   0.000057650693 0.00006286  0.00000195  0.0000646 0.0000
538  -1456.1794604060  -0.000035883367 0.00002289  0.00000052  0.0000110 0.0000
539  -1456.1794631790  -0.000002773023 0.00001070  0.00000038  0.0000043 0.0000
540  -1456.1794952269  -0.000032047898 0.00001170  0.00000036  0.0000121 0.0000
541  -1456.1795094737  -0.000014246774 0.00000279  0.00000008  0.0000023 0.0000
542  -1456.1795113083  -0.000001834552 0.00000084  0.00000002  0.0000007 0.0000
543  -1456.1795091391   0.000002169194 0.00000036  0.00000001  0.0000004 0.0000
544  -1456.1795083107   0.000000828406 0.00000003  0.00000000  0.0000000 0.0000
                            ***DIIS convergence achieved***

               *****************************************************
               *                     SUCCESS                       *
               *           SCF CONVERGED AFTER 545 CYCLES          *
               *****************************************************


----------------
TOTAL SCF ENERGY
----------------

Total Energy       :        -1456.17950810 Eh          -39624.65889 eV

Components:
Nuclear Repulsion  :           70.31613194 Eh            1913.39923 eV
Electronic Energy  :        -1526.49564004 Eh          -41538.05812 eV
One Electron Energy:        -2157.96392585 Eh          -58721.18375 eV
Two Electron Energy:          631.46828581 Eh           17183.12563 eV

Virial components:
Potential Energy   :        -2912.49322096 Eh          -79252.96969 eV
Kinetic Energy     :         1456.31371285 Eh           39628.31079 eV
Virial Ratio       :            1.99990785


---------------
SCF CONVERGENCE
---------------

  Last Energy change         ...    2.0941e-07  Tolerance :   1.0000e-09
  Last MAX-Density change    ...    2.5401e-08  Tolerance :   1.0000e-08
  Last RMS-Density change    ...    7.9640e-10  Tolerance :   1.0000e-09
  Last DIIS Error            ...    1.3588e-08  Tolerance :   1.0000e-08

             **** THE GBW FILE WAS UPDATED (41_CoO.gbw) ****
             **** DENSITY FILE WAS UPDATED (41_CoO.scfp) ****
             **** ENERGY FILE WAS UPDATED (41_CoO.en.tmp) ****
----------------------
UHF SPIN CONTAMINATION
----------------------

Expectation value of <S**2>     :     4.558548
Ideal value S*(S+1) for S=1.5   :     3.750000
Deviation                       :     0.808548

             **** THE GBW FILE WAS UPDATED (41_CoO.gbw) ****
             **** DENSITY FILE WAS UPDATED (41_CoO.scfp) ****
----------------
ORBITAL ENERGIES
----------------
                 SPIN UP ORBITALS
  NO   OCC          E(Eh)            E(eV) 
   0   1.0000    -283.078439     -7702.9559 
   1   1.0000     -34.931030      -950.5216 
   2   1.0000     -30.229575      -822.5886 
   3   1.0000     -30.158222      -820.6469 
   4   1.0000     -30.158222      -820.6469 
   5   1.0000     -20.536688      -558.8317 
   6   1.0000      -4.675116      -127.2164 
   7   1.0000      -3.289460       -89.5108 
   8   1.0000      -3.133560       -85.2685 
   9   1.0000      -3.133560       -85.2685 
  10   1.0000      -1.171420       -31.8759 
  11   1.0000      -0.781740       -21.2722 
  12   1.0000      -0.781740       -21.2722 
  13   1.0000      -0.753091       -20.4926 
  14   1.0000      -0.655244       -17.8301 
  15   1.0000      -0.655244       -17.8301 
  16   1.0000      -0.463196       -12.6042 
  17   1.0000      -0.463196       -12.6042 
  18   1.0000      -0.307124        -8.3573 
  19   0.0000       0.068538         1.8650 
  20   0.0000       0.096697         2.6313 
  21   0.0000       0.096697         2.6313 
  22   0.0000       0.153163         4.1678 
  23   0.0000       0.273899         7.4532 
  24   0.0000       0.273899         7.4532 
  25   0.0000       0.275013         7.4835 
  26   0.0000       0.314886         8.5685 
  27   0.0000       0.314886         8.5685 
  28   0.0000       0.333236         9.0678 
  29   0.0000       0.609947        16.5975 
  30   0.0000       0.609947        16.5975 
  31   0.0000       0.689676        18.7670 
  32   0.0000       0.756030        20.5726 
  33   0.0000       0.756030        20.5726 
  34   0.0000       0.779976        21.2242 
  35   0.0000       1.030913        28.0526 
  36   0.0000       1.116562        30.3832 
  37   0.0000       1.116562        30.3832 
  38   0.0000       1.121379        30.5143 
  39   0.0000       1.121379        30.5143 
  40   0.0000       1.349835        36.7309 
  41   0.0000       1.765550        48.0431 
  42   0.0000       1.765550        48.0431 
  43   0.0000       1.929502        52.5044 
  44   0.0000       1.929502        52.5044 
  45   0.0000       2.063667        56.1552 
  46   0.0000       2.789007        75.8927 
  47   0.0000       2.852205        77.6124 
  48   0.0000       2.852205        77.6124 
  49   0.0000       2.911866        79.2359 
  50   0.0000       2.911866        79.2359 
  51   0.0000       2.936599        79.9089 
  52   0.0000       2.936599        79.9089 
  53   0.0000       2.955998        80.4368 
  54   0.0000       2.955998        80.4368 
  55   0.0000       2.992090        81.4189 
  56   0.0000       3.269713        88.9734 
  57   0.0000       3.332132        90.6719 
  58   0.0000       3.332132        90.6719 
  59   0.0000       3.427537        93.2680 
  60   0.0000       3.955526       107.6353 
  61   0.0000       4.130309       112.3914 
  62   0.0000       4.130309       112.3914 
  63   0.0000       4.213121       114.6449 
  64   0.0000       4.213121       114.6449 
  65   0.0000       4.458544       121.3232 
  66   0.0000       5.603325       152.4742 
  67   0.0000       5.603325       152.4742 
  68   0.0000       5.606134       152.5507 
  69   0.0000       5.606134       152.5507 
  70   0.0000       5.767194       156.9333 
  71   0.0000       5.767194       156.9333 
  72   0.0000       6.262924       170.4228 
  73   0.0000       6.770014       184.2215 
  74   0.0000       6.770014       184.2215 
  75   0.0000       6.996783       190.3921 
  76   0.0000       6.996783       190.3921 
  77   0.0000       7.495937       203.9748 
  78   0.0000      10.441521       284.1282 
  79   0.0000      10.441521       284.1282 
  80   0.0000      10.461460       284.6708 
  81   0.0000      10.461460       284.6708 
  82   0.0000      10.475981       285.0659 
  83   0.0000      10.475981       285.0659 
  84   0.0000      10.503256       285.8081 
  85   0.0000      10.542121       286.8657 
  86   0.0000      10.542121       286.8657 
  87   0.0000      11.033253       300.2301 
  88   0.0000      11.033253       300.2301 
  89   0.0000      11.118655       302.5540 
  90   0.0000      11.118655       302.5540 
  91   0.0000      11.168842       303.9196 
  92   0.0000      11.168842       303.9196 
  93   0.0000      11.469687       312.1060 
  94   0.0000      44.967384      1223.6247 

                 SPIN DOWN ORBITALS
  NO   OCC          E(Eh)            E(eV) 
   0   1.0000    -283.074345     -7702.8445 
   1   1.0000     -34.826178      -947.6685 
   2   1.0000     -30.081411      -818.5568 
   3   1.0000     -30.081087      -818.5480 
   4   1.0000     -30.081087      -818.5480 
   5   1.0000     -20.565719      -559.6217 
   6   1.0000      -4.393062      -119.5413 
   7   1.0000      -2.888873       -78.6102 
   8   1.0000      -2.888873       -78.6102 
   9   1.0000      -2.785586       -75.7996 
  10   1.0000      -1.291163       -35.1343 
  11   1.0000      -0.647888       -17.6299 
  12   1.0000      -0.521965       -14.2034 
  13   1.0000      -0.521965       -14.2034 
  14   1.0000      -0.511143       -13.9089 
  15   1.0000      -0.511143       -13.9089 
  16   0.0000       0.016132         0.4390 
  17   0.0000       0.143104         3.8941 
  18   0.0000       0.143104         3.8941 
  19   0.0000       0.152688         4.1549 
  20   0.0000       0.226398         6.1606 
  21   0.0000       0.239304         6.5118 
  22   0.0000       0.239304         6.5118 
  23   0.0000       0.293482         7.9861 
  24   0.0000       0.293482         7.9861 
  25   0.0000       0.349651         9.5145 
  26   0.0000       0.360337         9.8053 
  27   0.0000       0.360337         9.8053 
  28   0.0000       0.363983         9.9045 
  29   0.0000       0.634323        17.2608 
  30   0.0000       0.650619        17.7043 
  31   0.0000       0.650619        17.7043 
  32   0.0000       0.760307        20.6890 
  33   0.0000       0.760307        20.6890 
  34   0.0000       0.830956        22.6115 
  35   0.0000       1.012507        27.5517 
  36   0.0000       1.165260        31.7083 
  37   0.0000       1.165260        31.7083 
  38   0.0000       1.251493        34.0549 
  39   0.0000       1.251493        34.0549 
  40   0.0000       1.428003        38.8579 
  41   0.0000       1.766940        48.0809 
  42   0.0000       1.766940        48.0809 
  43   0.0000       1.896471        51.6056 
  44   0.0000       1.896471        51.6056 
  45   0.0000       2.033206        55.3263 
  46   0.0000       2.779302        75.6286 
  47   0.0000       2.920707        79.4765 
  48   0.0000       2.920707        79.4765 
  49   0.0000       2.975752        80.9743 
  50   0.0000       2.975752        80.9743 
  51   0.0000       2.985238        81.2325 
  52   0.0000       2.985238        81.2325 
  53   0.0000       3.030395        82.4612 
  54   0.0000       3.030395        82.4612 
  55   0.0000       3.076825        83.7247 
  56   0.0000       3.297552        89.7310 
  57   0.0000       3.399793        92.5131 
  58   0.0000       3.399793        92.5131 
  59   0.0000       3.440416        93.6185 
  60   0.0000       4.072927       110.8300 
  61   0.0000       4.276456       116.3683 
  62   0.0000       4.276456       116.3683 
  63   0.0000       4.320698       117.5722 
  64   0.0000       4.320698       117.5722 
  65   0.0000       4.514746       122.8525 
  66   0.0000       5.569238       151.5467 
  67   0.0000       5.569238       151.5467 
  68   0.0000       5.605311       152.5283 
  69   0.0000       5.605311       152.5283 
  70   0.0000       5.726878       155.8363 
  71   0.0000       5.726878       155.8363 
  72   0.0000       6.236207       169.6958 
  73   0.0000       6.762356       184.0131 
  74   0.0000       6.762356       184.0131 
  75   0.0000       6.923670       188.4026 
  76   0.0000       6.923670       188.4026 
  77   0.0000       7.424220       202.0233 
  78   0.0000      10.567385       287.5532 
  79   0.0000      10.567385       287.5532 
  80   0.0000      10.575830       287.7830 
  81   0.0000      10.575830       287.7830 
  82   0.0000      10.583933       288.0035 
  83   0.0000      10.583933       288.0035 
  84   0.0000      10.599247       288.4202 
  85   0.0000      10.599247       288.4202 
  86   0.0000      10.649057       289.7756 
  87   0.0000      11.198391       304.7237 
  88   0.0000      11.198391       304.7237 
  89   0.0000      11.252824       306.2049 
  90   0.0000      11.252824       306.2049 
  91   0.0000      11.417732       310.6923 
  92   0.0000      11.417732       310.6923 
  93   0.0000      11.708971       318.6173 
  94   0.0000      44.950717      1223.1712 

                    ********************************
                    * MULLIKEN POPULATION ANALYSIS *
                    ********************************

--------------------------------------------
MULLIKEN ATOMIC CHARGES AND SPIN POPULATIONS
--------------------------------------------
   0 Co:    0.691462    3.771481
   1 O :   -0.691462   -0.771481
Sum of atomic charges         :   -0.0000000
Sum of atomic spin populations:    3.0000000

-----------------------------------------------------
MULLIKEN REDUCED ORBITAL CHARGES AND SPIN POPULATIONS
-----------------------------------------------------
CHARGE
  0 Cos       :     6.792917  s :     6.792917
      pz      :     4.226432  p :    12.350700
      px      :     4.062134
      py      :     4.062134
      dz2     :     1.040377  d :     7.157876
      dxz     :     1.059071
      dyz     :     1.059071
      dx2y2   :     1.999678
      dxy     :     1.999678
      f0      :     0.002262  f :     0.006798
      f+1     :     0.002265
      f-1     :     0.002265
      f+2     :     0.000003
      f-2     :     0.000003
      f+3     :     0.000000
      f-3     :     0.000000
      g0      :     0.000086  g :     0.000247
      g+1     :     0.000055
      g-1     :     0.000055
      g+2     :     0.000026
      g-2     :     0.000026
      g+3     :     0.000000
      g-3     :     0.000000
      g+4     :     0.000000
      g-4     :     0.000000
  1 O s       :     3.948800  s :     3.948800
      pz      :     0.982831  p :     4.727151
      px      :     1.872160
      py      :     1.872160
      dz2     :     0.005761  d :     0.014056
      dxz     :     0.003886
      dyz     :     0.003886
      dx2y2   :     0.000262
      dxy     :     0.000262
      f0      :     0.000534  f :     0.001454
      f+1     :     0.000429
      f-1     :     0.000429
      f+2     :     0.000031
      f-2     :     0.000031
      f+3     :     0.000000
      f-3     :     0.000000

SPIN
  0 Cos       :     0.740847  s :     0.740847
      pz      :     0.184032  p :     0.225657
      px      :     0.020813
      py      :     0.020813
      dz2     :     0.902714  d :     2.806147
      dxz     :     0.951663
      dyz     :     0.951663
      dx2y2   :     0.000053
      dxy     :     0.000053
      f0      :    -0.001030  f :    -0.001307
      f+1     :    -0.000142
      f-1     :    -0.000142
      f+2     :     0.000003
      f-2     :     0.000003
      f+3     :    -0.000000
      f-3     :    -0.000000
      g0      :     0.000026  g :     0.000137
      g+1     :     0.000030
      g-1     :     0.000030
      g+2     :     0.000025
      g-2     :     0.000025
      g+3     :    -0.000000
      g-3     :    -0.000000
      g+4     :     0.000000
      g-4     :     0.000000
  1 O s       :     0.008696  s :     0.008696
      pz      :    -0.835069  p :    -0.778920
      px      :     0.028075
      py      :     0.028075
      dz2     :    -0.000050  d :    -0.000785
      dxz     :    -0.000293
      dyz     :    -0.000293
      dx2y2   :    -0.000075
      dxy     :    -0.000075
      f0      :    -0.000166  f :    -0.000472
      f+1     :    -0.000147
      f-1     :    -0.000147
      f+2     :    -0.000006
      f-2     :    -0.000006
      f+3     :     0.000000
      f-3     :     0.000000


                     *******************************
                     * LOEWDIN POPULATION ANALYSIS *
                     *******************************

-------------------------------------------
LOEWDIN ATOMIC CHARGES AND SPIN POPULATIONS
-------------------------------------------
   0 Co:    0.278853    3.710863
   1 O :   -0.278853   -0.710863

----------------------------------------------------
LOEWDIN REDUCED ORBITAL CHARGES AND SPIN POPULATIONS
----------------------------------------------------
CHARGE
  0 Cos       :     6.765075  s :     6.765075
      pz      :     4.375701  p :    12.552040
      px      :     4.088170
      py      :     4.088170
      dz2     :     1.156743  d :     7.386336
      dxz     :     1.115580
      dyz     :     1.115580
      dx2y2   :     1.999217
      dxy     :     1.999217
      f0      :     0.008827  f :     0.017369
      f+1     :     0.004268
      f-1     :     0.004268
      f+2     :     0.000004
      f-2     :     0.000004
      f+3     :     0.000000
      f-3     :     0.000000
      g0      :     0.000137  g :     0.000327
      g+1     :     0.000069
      g-1     :     0.000069
      g+2     :     0.000025
      g-2     :     0.000025
      g+3     :     0.000000
      g-3     :     0.000000
      g+4     :     0.000000
      g-4     :     0.000000
  1 O s       :     3.661774  s :     3.661774
      pz      :     1.008579  p :     4.580051
      px      :     1.785736
      py      :     1.785736
      dz2     :     0.021404  d :     0.033694
      dxz     :     0.005499
      dyz     :     0.005499
      dx2y2   :     0.000646
      dxy     :     0.000646
      f0      :     0.001761  f :     0.003334
      f+1     :     0.000679
      f-1     :     0.000679
      f+2     :     0.000108
      f-2     :     0.000108
      f+3     :     0.000000
      f-3     :     0.000000

SPIN
  0 Cos       :     0.693257  s :     0.693257
      pz      :     0.208008  p :     0.254747
      px      :     0.023370
      py      :     0.023370
      dz2     :     0.874686  d :     2.766009
      dxz     :     0.945557
      dyz     :     0.945557
      dx2y2   :     0.000104
      dxy     :     0.000104
      f0      :    -0.003277  f :    -0.003237
      f+1     :     0.000016
      f-1     :     0.000016
      f+2     :     0.000004
      f-2     :     0.000004
      f+3     :    -0.000000
      f-3     :    -0.000000
      g0      :    -0.000014  g :     0.000088
      g+1     :     0.000026
      g-1     :     0.000026
      g+2     :     0.000025
      g-2     :     0.000025
      g+3     :    -0.000000
      g-3     :    -0.000000
      g+4     :     0.000000
      g-4     :     0.000000
  1 O s       :    -0.006447  s :    -0.006447
      pz      :    -0.772669  p :    -0.716922
      px      :     0.027874
      py      :     0.027874
      dz2     :     0.005844  d :     0.011399
      dxz     :     0.002896
      dyz     :     0.002896
      dx2y2   :    -0.000118
      dxy     :    -0.000118
      f0      :     0.000612  f :     0.001106
      f+1     :     0.000261
      f-1     :     0.000261
      f+2     :    -0.000014
      f-2     :    -0.000014
      f+3     :     0.000000
      f-3     :     0.000000


                      *****************************
                      * MAYER POPULATION ANALYSIS *
                      *****************************

  NA   - Mulliken gross atomic population
  ZA   - Total nuclear charge
  QA   - Mulliken gross atomic charge
  VA   - Mayer's total valence
  BVA  - Mayer's bonded valence
  FA   - Mayer's free valence

  ATOM       NA         ZA         QA         VA         BVA        FA
  0 Co    26.3085    27.0000     0.6915     4.4819     0.8590     3.6228
  1 O      8.6915     8.0000    -0.6915     1.6119     0.8590     0.7529

  Mayer bond orders larger than 0.100000
B(  0-Co,  1-O ) :   0.8590 

-------
TIMINGS
-------

Total SCF time: 0 days 0 hours 1 min 19 sec 

Total time                  ....      79.167 sec
Sum of individual times     ....      77.723 sec  ( 98.2%)

Fock matrix formation       ....      66.686 sec  ( 84.2%)
Diagonalization             ....       1.239 sec  (  1.6%)
Density matrix formation    ....       0.224 sec  (  0.3%)
Population analysis         ....       0.005 sec  (  0.0%)
Initial guess               ....       0.108 sec  (  0.1%)
Orbital Transformation      ....       0.000 sec  (  0.0%)
Orbital Orthonormalization  ....       0.000 sec  (  0.0%)
DIIS solution               ....       9.439 sec  ( 11.9%)


           ************************************************************
[...]
 15  -1457.092762263     -0.879034301     -0.000043852      0.000097566    4.94      0.546648008
 16  -1457.092787005     -0.879059044     -0.000024743      0.000049666    4.90      0.547061740
 17  -1457.092773447     -0.879045485      0.000013559      0.000021599    4.95      0.547070482
 18  -1457.092753504     -0.879025543      0.000019943      0.000009355    4.89      0.546973384
 19  -1457.092742343     -0.879014381      0.000011162      0.000004063    5.01      0.546907306
 20  -1457.092741729     -0.879013767      0.000000614      0.000002958    4.98      0.546913954
 21  -1457.092740172     -0.879012210      0.000001557      0.000002294    4.92      0.546908420
 22  -1457.092741756     -0.879013794     -0.000001583      0.000001464    5.01      0.546923556
 23  -1457.092741826     -0.879013864     -0.000000070      0.000000825    5.03      0.546928273
               --- The Coupled-Cluster iterations have converged ---

----------------------
COUPLED CLUSTER ENERGY
----------------------

E(0)                                       ...  -1456.213727962
E(CORR)                                    ...     -0.879013864
E(TOT)                                     ...  -1457.092741826
Singles norm <S|S>**1/2                    ...      0.546928273 ( 0.377383083, 0.169545190)  
T1 diagnostic                              ...      0.114042428                              

------------------
LARGEST AMPLITUDES
------------------
  18a-> 21a  -1a-> -1a       0.520366
  18a-> 23a  -1a-> -1a       0.256401
  18a-> 30a  -1a-> -1a       0.194525
  15b-> 29b  -1b-> -1b       0.189517
  14b-> 30b  -1b-> -1b       0.189517
  13a-> 21a  -1a-> -1a       0.118096
  11b-> 21b  -1b-> -1b       0.115999
  11b-> 28b  -1b-> -1b       0.102025
  11b-> 31b  -1b-> -1b       0.099081
  13a-> 30a  -1a-> -1a       0.089258
  18a-> 33a  -1a-> -1a       0.084036
  18a-> 22a  -1a-> -1a       0.083444
  15b-> 22b  -1b-> -1b       0.081654
  14b-> 23b  -1b-> -1b       0.081654
  13a-> 23a  -1a-> -1a       0.065770
  15b-> 26b  -1b-> -1b       0.061102

----------------------
UHF TRIPLES CORRECTION (Algorithm 1)
----------------------

Multiplier for the singles contribution    ...      1.000000000

SPIN-CASE Alpha-Alpha-Alpha:
10% done
20% done
30% done
40% done
50% done
60% done
70% done
80% done
90% done


SPIN-CASE Beta-Beta-Beta:
10% done
20% done
30% done
40% done
50% done
60% done
70% done
80% done
90% done


SPIN-CASE Alpha-Alpha-Beta:
10% done
20% done
30% done
40% done
50% done
60% done
70% done
80% done
90% done


SPIN-CASE Beta-Beta-Alpha:
10% done
20% done
30% done
40% done
50% done
60% done
70% done
80% done
90% done


Triples Correction (T)                     ...     -0.055565934
    alpha-alpha-alpha ... -0.001836814 (  3.3%)
    alpha-alpha-beta  ... -0.027811763 ( 50.1%)
    alpha-beta -beta  ... -0.024558733 ( 44.2%)
    beta -beta -beta  ... -0.001358623 (  2.4%)
Scaling of triples based on CCSD energies (Peterson et al. Molecular Physics 113, 1551 (2015))
E(T*) = f*E(T) where f = E(F12-CCSD)/E(CCSD) 
f = CCSD (with F12)/ CCSD (without F12)    ...      1.000000000
Scaled triples correction (T)              ...     -0.055565934

Final correlation energy                   ...     -0.934579797
E(CCSD)                                    ...  -1457.092741826
E(CCSD(T))                                 ...  -1457.148307759



        !!!!!!!!!!!!!!!!!!!!!!!!!!!!!!!!!!!!!!!!!!!!!!!!!!!!!!!!!!!!!!!!!!!!!!!!!! 
        !  Warning: Densities are linearized densities                           !
        !!!!!!!!!!!!!!!!!!!!!!!!!!!!!!!!!!!!!!!!!!!!!!!!!!!!!!!!!!!!!!!!!!!!!!!!!! 

NORM  =      1.878260855 sqrt=     1.370496573
W(HF) =      0.532407411
------------------------------------------------------------------------------
                           ORCA POPULATION ANALYSIS
------------------------------------------------------------------------------
Input electron density              ... 41_CoO.mdcip
Input spin density                  ... 41_CoO.mdcir
BaseName (.gbw .S,...)              ... 41_CoO

                    ********************************
                    * MULLIKEN POPULATION ANALYSIS *
                    ********************************

------------------------------------------
MULLIKEN ATOMIC CHARGES AND SPIN DENSITIES
------------------------------------------
   0 Co:    0.640246    2.466809
   1 O :   -0.640246    0.533191
Sum of atomic charges       :   -0.0000000
Sum of atomic spin densities:    3.0000000

---------------------------------------------------
MULLIKEN REDUCED ORBITAL CHARGES AND SPIN DENSITIES
---------------------------------------------------
CHARGE
  0 Cos       :     6.435307  s :     6.435307
      pz      :     3.980417  p :    12.237755
      px      :     4.128669
      py      :     4.128669
      dz2     :     1.118003  d :     7.616300
      dxz     :     1.270080
      dyz     :     1.270080
      dx2y2   :     1.979068
      dxy     :     1.979068
      f0      :     0.011558  f :     0.064611
      f+1     :     0.014326
      f-1     :     0.014326
      f+2     :     0.005877
      f-2     :     0.005877
      f+3     :     0.006323
      f-3     :     0.006323
      g0      :     0.000923  g :     0.005782
      g+1     :     0.000741
      g-1     :     0.000741
      g+2     :     0.000542
      g-2     :     0.000542
      g+3     :     0.000541
      g-3     :     0.000541
      g+4     :     0.000605
      g-4     :     0.000605
  1 O s       :     3.917144  s :     3.917144
      pz      :     1.500071  p :     4.648156
      px      :     1.574042
      py      :     1.574042
      dz2     :     0.015651  d :     0.064949
      dxz     :     0.016742
      dyz     :     0.016742
      dx2y2   :     0.007907
      dxy     :     0.007907
      f0      :     0.002326  f :     0.009268
      f+1     :     0.001963
      f-1     :     0.001963
      f+2     :     0.000913
      f-2     :     0.000913
      f+3     :     0.000595
      f-3     :     0.000595
      g0      :     0.000137  g :     0.000729
      g+1     :     0.000110
      g-1     :     0.000110
      g+2     :     0.000070
      g-2     :     0.000070
      g+3     :     0.000058
      g-3     :     0.000058
      g+4     :     0.000058
      g-4     :     0.000058

SPIN
  0 Cos       :     0.350861  s :     0.350861
      pz      :    -0.056851  p :     0.079020
      px      :     0.067936
      py      :     0.067936
      dz2     :     0.556580  d :     2.017618
      dxz     :     0.720293
      dyz     :     0.720293
      dx2y2   :     0.010226
      dxy     :     0.010226
      f0      :     0.002127  f :     0.018067
      f+1     :     0.006725
      f-1     :     0.006725
      f+2     :     0.001370
      f-2     :     0.001370
      f+3     :    -0.000125
      f-3     :    -0.000125
      g0      :     0.000196  g :     0.001242
      g+1     :     0.000162
      g-1     :     0.000162
      g+2     :     0.000198
      g-2     :     0.000198
      g+3     :     0.000129
      g-3     :     0.000129
      g+4     :     0.000034
      g-4     :     0.000034
  1 O s       :     0.007782  s :     0.007782
      pz      :     0.134034  p :     0.527854
      px      :     0.196910
      py      :     0.196910
      dz2     :     0.001128  d :    -0.001991
      dxz     :    -0.001877
      dyz     :    -0.001877
      dx2y2   :     0.000318
      dxy     :     0.000318
      f0      :     0.000100  f :    -0.000473
      f+1     :    -0.000281
      f-1     :    -0.000281
      f+2     :    -0.000043
      f-2     :    -0.000043
      f+3     :     0.000037
      f-3     :     0.000037
      g0      :     0.000010  g :     0.000019
      g+1     :     0.000004
      g-1     :     0.000004
      g+2     :    -0.000001
      g-2     :    -0.000001
      g+3     :     0.000001
      g-3     :     0.000001
      g+4     :     0.000001
      g-4     :     0.000001


                     *******************************
                     * LOEWDIN POPULATION ANALYSIS *
                     *******************************

-----------------------------------------
LOEWDIN ATOMIC CHARGES AND SPIN DENSITIES
-----------------------------------------
   0 Co:    0.078674    2.433842
   1 O :   -0.078674    0.566158

--------------------------------------------------
LOEWDIN REDUCED ORBITAL CHARGES AND SPIN DENSITIES
--------------------------------------------------
CHARGE
  0 Cos       :     6.401779  s :     6.401779
      pz      :     4.108766  p :    12.414230
      px      :     4.152732
      py      :     4.152732
      dz2     :     1.277662  d :     7.855916
      dxz     :     1.311928
      dyz     :     1.311928
      dx2y2   :     1.977199
      dxy     :     1.977199
      f0      :     0.097623  f :     0.242009
      f+1     :     0.059796
      f-1     :     0.059796
      f+2     :     0.006075
      f-2     :     0.006075
      f+3     :     0.006323
      f-3     :     0.006323
      g0      :     0.001901  g :     0.007392
      g+1     :     0.001061
      g-1     :     0.001061
      g+2     :     0.000539
      g-2     :     0.000539
      g+3     :     0.000541
      g-3     :     0.000541
      g+4     :     0.000605
      g-4     :     0.000605
  1 O s       :     3.476054  s :     3.476054
      pz      :     1.554172  p :     4.464467
      px      :     1.455148
      py      :     1.455148
      dz2     :     0.048638  d :     0.108485
      dxz     :     0.020995
      dyz     :     0.020995
      dx2y2   :     0.008929
      dxy     :     0.008929
      f0      :     0.014385  f :     0.028212
      f+1     :     0.004782
      f-1     :     0.004782
      f+2     :     0.001536
      f-2     :     0.001536
      f+3     :     0.000595
      f-3     :     0.000595
      g0      :     0.000558  g :     0.001456
      g+1     :     0.000233
      g-1     :     0.000233
      g+2     :     0.000100
      g-2     :     0.000100
      g+3     :     0.000058
      g-3     :     0.000058
      g+4     :     0.000058
      g-4     :     0.000058

SPIN
  0 Cos       :     0.294700  s :     0.294700
      pz      :    -0.058290  p :     0.095966
      px      :     0.077128
      py      :     0.077128
      dz2     :     0.557119  d :     2.003924
      dxz     :     0.713010
      dyz     :     0.713010
      dx2y2   :     0.010393
      dxy     :     0.010393
      f0      :     0.003433  f :     0.037934
      f+1     :     0.016003
      f-1     :     0.016003
      f+2     :     0.001372
      f-2     :     0.001372
      f+3     :    -0.000125
      f-3     :    -0.000125
      g0      :     0.000113  g :     0.001319
      g+1     :     0.000244
      g-1     :     0.000244
      g+2     :     0.000196
      g-2     :     0.000196
      g+3     :     0.000129
      g-3     :     0.000129
      g+4     :     0.000034
      g-4     :     0.000034
  1 O s       :     0.011911  s :     0.011911
      pz      :     0.184570  p :     0.540224
      px      :     0.177827
      py      :     0.177827
      dz2     :     0.000518  d :     0.008496
      dxz     :     0.003802
      dyz     :     0.003802
      dx2y2   :     0.000187
      dxy     :     0.000187
      f0      :     0.001774  f :     0.005221
      f+1     :     0.001764
      f-1     :     0.001764
      f+2     :    -0.000077
      f-2     :    -0.000077
      f+3     :     0.000037
      f-3     :     0.000037
      g0      :     0.000117  g :     0.000305
      g+1     :     0.000094
      g-1     :     0.000094
      g+2     :    -0.000001
      g-2     :    -0.000001
      g+3     :     0.000001
      g-3     :     0.000001
      g+4     :     0.000001
      g-4     :     0.000001


                      *****************************
                      * MAYER POPULATION ANALYSIS *
                      *****************************

  NA   - Mulliken gross atomic population
  ZA   - Total nuclear charge
  QA   - Mulliken gross atomic charge
  VA   - Mayer's total valence
  BVA  - Mayer's bonded valence
  FA   - Mayer's free valence

  ATOM       NA         ZA         QA         VA         BVA        FA
  0 Co    26.3598    27.0000     0.6402     4.6375     2.6353     2.0022
  1 O      8.6402     8.0000    -0.6402     2.5458     2.6353    -0.0895

  Mayer bond orders larger than 0.100000
B(  0-Co,  1-O ) :   2.6353 



------------------------------------------------------------------------------- 
                                     TIMINGS                                   
------------------------------------------------------------------------------- 


Total execution time                   ...      148.883 sec

Fock Matrix Formation                  ...        1.097 sec (  0.7%)
Initial Guess                          ...        0.109 sec (  0.1%)
DIIS Solver                            ...        8.669 sec (  5.8%)
State Vector Update                    ...        0.371 sec (  0.2%)
Sigma-vector construction              ...      108.957 sec ( 73.2%)
  <0|H|D>                              ...        0.020 sec (  0.0% of sigma)
  <D|H|D>(0-ext Fock)                  ...        0.193 sec (  0.2% of sigma)
  <D|H|D>(0-ext)                       ...        1.034 sec (  0.9% of sigma)
  <D|H|D>(2-ext Fock)                  ...        0.056 sec (  0.1% of sigma)
  <D|H|D>(2-ext)                       ...        3.142 sec (  2.9% of sigma)
  <D|H|D>(4-ext)                       ...       55.061 sec ( 50.5% of sigma)
  <S|H|0>                              ...        7.927 sec (  7.3% of sigma)
  <S|H|S>                              ...        0.007 sec (  0.0% of sigma)
  <S|H|D>(1-ext)                       ...        0.041 sec (  0.0% of sigma)
  <D|H|S>(1-ext)                       ...        0.605 sec (  0.6% of sigma)
  Fock-dressing                        ...       18.403 sec ( 16.9% of sigma)
  (ik|jl)-dressing                     ...        1.196 sec (  1.1% of sigma)
  (ij|ab),(ia|jb)-dressing             ...       17.653 sec ( 16.2% of sigma)
  Pair energies                        ...        0.028 sec (  0.0% of sigma)
Total Time for computing (T)           ...       19.325 sec ( 13.0% of ALL)
  I/O of integral and amplitudes       ...        3.398 sec ( 17.6% of (T))
  External N**7 contributions          ...        7.013 sec ( 36.3% of (T))
  Internal N**7 contributions          ...        2.338 sec ( 12.1% of (T))
  N**6 triples energy contributions    ...        6.426 sec ( 33.2% of (T))


-------------------
EXTRAPOLATED ENERGY
-------------------


-----------------------------------------------------------------
                      EP1 - MDCI extrapolation:
-----------------------------------------------------------------
NOTE: We use as reference SCF energy, for the extrapolation, the one from the MDCI module and not the one 
from the SCF calculation. In case the first step is a DFT calculation these two might be different.

NOTE: For the SCF part we extrapolate based on the scheme proposed in J. Chem. Phys. 2008, 129, 184116
using the exponents from J. Chem. Theory Comput., 7, 33-43 (2011)

NOTE: For the correlation part we extrapolate based on the scheme proposed in J. Chem. Phys. 1997, 106, 9639
using the exponents from J. Chem. Theory Comput., 7, 33-43 (2011)


Alpha(3/4)     :  7.880 (SCF Extrapolation)
Beta(3/4)      :  2.970 (correlation extrapolation)

SCF energy with basis def2-TZVPP:                     -1456.179508189
SCF energy with basis def2-QZVPP:                     -1456.213727962
Extrapolated CBS SCF energy (3/4) :                   -1456.218441348 (-0.004713387) 

MDCI energy with basis def2-TZVPP:                       -0.887254624
MDCI energy with basis def2-QZVPP:                       -0.934579797
Extrapolated CBS correlation energy (3/4) :              -0.969635455 (-0.035055658)

Estimated CBS total energy (3/4) :                    -1457.188076803



-------------------------   --------------------
FINAL SINGLE POINT ENERGY     -1457.188076803399
-------------------------   --------------------


                            ***************************************
                            *     ORCA property calculations      *
                            ***************************************

                                    ---------------------
                                    Active property flags
                                    ---------------------
   (+) Dipole Moment


------------------------------------------------------------------------------
                       ORCA ELECTRIC PROPERTIES CALCULATION
------------------------------------------------------------------------------

Dipole Moment Calculation                       ... on
Quadrupole Moment Calculation                   ... off
Polarizability Calculation                      ... off
GBWName                                         ... 41_CoO.gbw
Electron density file                           ... 41_CoO.scfp
The origin for moment calculation is the CENTER OF MASS  = ( 0.000000,  0.000000  1.009712)

-------------
DIPOLE MOMENT
-------------
                                X             Y             Z
Electronic contribution:     -0.00000      -0.00000      -2.47289
Nuclear contribution   :      0.00000       0.00000       1.61802
                        -----------------------------------------
Total Dipole Moment    :     -0.00000      -0.00000      -0.85488
                        -----------------------------------------
Magnitude (a.u.)       :      0.85488
Magnitude (Debye)      :      2.17292



--------------------
Rotational spectrum 
--------------------
 
Rotational constants in cm-1:     0.000000     0.507011     0.507011 
Rotational constants in MHz :     0.000000 15199.819890 15199.819890 

 Dipole components along the rotational axes: 
x,y,z [a.u.] :    -0.854876    -0.000000    -0.000000 
x,y,z [Debye]:    -2.172923    -0.000000    -0.000000 

 

                           *** MDCI DENSITY ***

------------------------------------------------------------------------------
                       ORCA ELECTRIC PROPERTIES CALCULATION
------------------------------------------------------------------------------

Dipole Moment Calculation                       ... on
Quadrupole Moment Calculation                   ... off
Polarizability Calculation                      ... off
GBWName                                         ... 41_CoO.gbw
Electron density file                           ... 41_CoO.mdcip
The origin for moment calculation is the CENTER OF MASS  = ( 0.000000,  0.000000  1.009712)

-------------
DIPOLE MOMENT
-------------
                                X             Y             Z
Electronic contribution:     -0.00000      -0.00000      -4.43871
Nuclear contribution   :      0.00000       0.00000       1.61802
                        -----------------------------------------
Total Dipole Moment    :     -0.00000      -0.00000      -2.82069
                        -----------------------------------------
Magnitude (a.u.)       :      2.82069
Magnitude (Debye)      :      7.16963



--------------------
Rotational spectrum 
--------------------
 
Rotational constants in cm-1:     0.000000     0.507011     0.507011 
Rotational constants in MHz :     0.000000 15199.819890 15199.819890 

 Dipole components along the rotational axes: 
x,y,z [a.u.] :    -2.820693    -0.000000    -0.000000 
x,y,z [Debye]:    -7.169631    -0.000000    -0.000000 

 

Timings for individual modules:

Sum of individual times         ...      283.049 sec (=   4.717 min)
GTO integral calculation        ...        1.618 sec (=   0.027 min)   0.6 %
SCF iterations                  ...      100.588 sec (=   1.676 min)  35.5 %
MDCI module                     ...      180.843 sec (=   3.014 min)  63.9 %
                             ****ORCA TERMINATED NORMALLY****
TOTAL RUN TIME: 0 days 0 hours 4 minutes 43 seconds 997 msec
