
                                 *****************
                                 * O   R   C   A *
                                 *****************

           --- An Ab Initio, DFT and Semiempirical electronic structure package ---

                  #######################################################
                  #                        -***-                        #
                  #          Department of theory and spectroscopy      #
                  #               Directorship: Frank Neese             #
                  #        Max Planck Institute fuer Kohlenforschung    #
                  #                Kaiser Wilhelm Platz 1               #
                  #                 D-45470 Muelheim/Ruhr               #
                  #                      Germany                        #
                  #                                                     #
                  #                  All rights reserved                #
                  #                        -***-                        #
                  #######################################################


                         Program Version 4.2.0 -  RELEASE  -


 With contributions from (in alphabetic order):
   Daniel Aravena         : Magnetic Suceptibility
   Michael Atanasov       : Ab Initio Ligand Field Theory (pilot matlab implementation)
   Alexander A. Auer      : GIAO ZORA, VPT2
   Ute Becker             : Parallelization
   Giovanni Bistoni       : ED, misc. LED, open-shell LED, HFLED
   Martin Brehm           : Molecular dynamics
   Dmytro Bykov           : SCF Hessian
   Vijay G. Chilkuri      : MRCI spin determinant printing, contributions to CSF-ICE
   Dipayan Datta          : RHF DLPNO-CCSD density
   Achintya Kumar Dutta   : EOM-CC, STEOM-CC
   Dmitry Ganyushin       : Spin-Orbit,Spin-Spin,Magnetic field MRCI
   Miquel Garcia          : C-PCM Hessian, Gaussian charge scheme
   Yang Guo               : DLPNO-NEVPT2, CIM, IAO-localization
   Andreas Hansen         : Spin unrestricted coupled pair/coupled cluster methods
   Benjamin Helmich-Paris : CASSCF linear response (MC-RPA)
   Lee Huntington         : MR-EOM, pCC
   Robert Izsak           : Overlap fitted RIJCOSX, COSX-SCS-MP3, EOM
   Christian Kollmar      : KDIIS, OOCD, Brueckner-CCSD(T), CCSD density
   Simone Kossmann        : Meta GGA functionals, TD-DFT gradient, OOMP2, MP2 Hessian
   Martin Krupicka        : AUTO-CI
   Lucas Lang             : DCDCAS
   Dagmar Lenk            : GEPOL surface, SMD
   Dimitrios Liakos       : Extrapolation schemes; Compound Job, initial MDCI parallelization
   Dimitrios Manganas     : Further ROCIS development; embedding schemes
   Dimitrios Pantazis     : SARC Basis sets
   Taras Petrenko         : DFT Hessian,TD-DFT gradient, ASA, ECA, R-Raman, ABS, FL, XAS/XES, NRVS
   Peter Pinski           : DLPNO-MP2, DLPNO-MP2 Gradient
   Christoph Reimann      : Effective Core Potentials
   Marius Retegan         : Local ZFS, SOC
   Christoph Riplinger    : Optimizer, TS searches, QM/MM, DLPNO-CCSD(T), (RO)-DLPNO pert. Triples
   Tobias Risthaus        : Range-separated hybrids, TD-DFT gradient, RPA, STAB
   Michael Roemelt        : Original ROCIS implementation
   Masaaki Saitow         : Open-shell DLPNO-CCSD energy and density
   Barbara Sandhoefer     : DKH picture change effects
   Avijit Sen             : IP-ROCIS
   Kantharuban Sivalingam : CASSCF convergence, NEVPT2, FIC-MRCI
   Bernardo de Souza      : ESD, SOC TD-DFT
   Georgi Stoychev        : AutoAux, RI-MP2 NMR
   Willem Van den Heuvel  : Paramagnetic NMR
   Boris Wezisla          : Elementary symmetry handling
   Frank Wennmohs         : Technical directorship


 We gratefully acknowledge several colleagues who have allowed us to
 interface, adapt or use parts of their codes:
   Stefan Grimme, W. Hujo, H. Kruse,             : VdW corrections, initial TS optimization,
                  C. Bannwarth                     DFT functionals, gCP, sTDA/sTD-DF
   Ed Valeev, F. Pavosevic, A. Kumar             : LibInt (2-el integral package), F12 methods
   Garnet Chan, S. Sharma, J. Yang, R. Olivares  : DMRG
   Ulf Ekstrom                                   : XCFun DFT Library
   Mihaly Kallay                                 : mrcc  (arbitrary order and MRCC methods)
   Andreas Klamt, Michael Diedenhofen            : otool_cosmo (COSMO solvation model)
   Jiri Pittner, Ondrej Demel                    : Mk-CCSD
   Frank Weinhold                                : gennbo (NPA and NBO analysis)
   Christopher J. Cramer and Donald G. Truhlar   : smd solvation model
   Lars Goerigk                                  : TD-DFT with DH, B97 family of functionals
   V. Asgeirsson, H. Jonsson                     : NEB implementation
   FAccTs GmbH                                   : IRC, NEB, NEB-TS, Multilevel, MM, QM/MM, CI optimization
   S Lehtola, MJT Oliveira, MAL Marques          : LibXC Library


 Your calculation uses the libint2 library for the computation of 2-el integrals
 For citations please refer to: http://libint.valeyev.net

 Your ORCA version has been built with support for libXC version: 4.2.3
 For citations please refer to: https://tddft.org/programs/libxc/

 This ORCA versions uses:
   CBLAS   interface :  Fast vector & matrix operations
   LAPACKE interface :  Fast linear algebra routines
   SCALAPACK package :  Parallel linear algebra routines


----- Orbital basis set information -----
Your calculation utilizes the basis: def2-TZVPP
   F. Weigend and R. Ahlrichs, Phys. Chem. Chem. Phys. 7, 3297 (2005).

================================================================================
                                        WARNINGS
                       Please study these warnings very carefully!
================================================================================


WARNING: your system is open-shell and RHF/RKS was chosen
  ===> : WILL SWITCH to UHF/UKS


WARNING: MDCI localization with Augmented Hessian Foster-Boys
  ===> : Switching off randomization!

WARNING: Post HF methods need fully converged wavefunctions
  ===> : Setting SCFConvForced true
         You can overwrite this default with %scf ConvForced false 


INFO   : the flag for use of LIBINT has been found!

================================================================================
                                       INPUT FILE
================================================================================
NAME = 42_CoS.in
|  1> #
|  2> # 42_CoS ccsd(t)/cbs
|  3> #
|  4> ! ccsd(t) extrapolate(3/4,def2) verytightscf
|  5> 
|  6> *xyz 0 4
|  7>   Co  0.00000000000000      0.00000000000000      0.00920129654260
|  8>   S   0.00000000000000      0.00000000000000      1.99079870345740
|  9> *
| 10> 
| 11> %maxcore 5000
| 12> %pal
| 13> nprocs 24
| 14> end
| 15> 
| 16> 
| 17>                          ****END OF INPUT****
================================================================================

                   *****************************************
                   * Extrapolated Single Point Calculation *
                   *****************************************

----- Orbital basis set information -----
Your calculation utilizes the basis: def2-TZVPP
   F. Weigend and R. Ahlrichs, Phys. Chem. Chem. Phys. 7, 3297 (2005).

----- AuxJ basis set information -----
Your calculation utilizes the auxiliary basis: def2/J
   F. Weigend, Phys. Chem. Chem. Phys. 8, 1057 (2006).

----- AuxC basis set information -----
Your calculation utilizes the auxiliary basis: def2-TZVPP/C
  H-La, Hf-Rn : A. Hellweg, C. Hattig, S. Hofener and W. Klopper, Theor. Chem. Acc. 117, 587 (2007).
        Ce-Lu : J. Chmela and M. E. Harding, Mol. Phys. (2018).

----- AuxJK basis set information -----
Your calculation utilizes the auxiliary basis: def2/JK
   H-Ba, Hf-Rn: F. Weigend, J. Comput. Chem. 29, 167 (2008).

All done

                     -----------------------------------------
                     Extrapolated Energy 1 Basis=  def2-TZVPP
                     -----------------------------------------

---------------------------------
CARTESIAN COORDINATES (ANGSTROEM)
---------------------------------
  Co     0.000000    0.000000    0.009201
  S      0.000000    0.000000    1.990799

----------------------------
CARTESIAN COORDINATES (A.U.)
----------------------------
  NO LB      ZA    FRAG     MASS         X           Y           Z
   0 Co   27.0000    0    58.930    0.000000    0.000000    0.017388
   1 S    16.0000    0    32.060    0.000000    0.000000    3.762064

--------------------------------
INTERNAL COORDINATES (ANGSTROEM)
--------------------------------
 Co     0   0   0     0.000000000000     0.00000000     0.00000000
 S      1   0   0     1.981597406915     0.00000000     0.00000000

---------------------------
INTERNAL COORDINATES (A.U.)
---------------------------
 Co     0   0   0     0.000000000000     0.00000000     0.00000000
 S      1   0   0     3.744676406757     0.00000000     0.00000000

---------------------
BASIS SET INFORMATION
---------------------
There are 2 groups of distinct atoms

 Group   1 Type Co  : 17s12p7d2f1g contracted to 6s5p4d2f1g pattern {842111/63111/4111/11/1}
 Group   2 Type S   : 14s9p3d1f contracted to 5s5p3d1f pattern {73211/51111/111/1}

Atom   0Co   basis set group =>   1
Atom   1S    basis set group =>   2
---------------------------------
AUXILIARY/J BASIS SET INFORMATION
---------------------------------
There are 2 groups of distinct atoms

 Group   1 Type Co  : 19s5p5d3f3g contracted to 8s5p5d2f3g pattern {121111111/11111/11111/21/111}
 Group   2 Type S   : 14s5p5d2f1g contracted to 8s4p3d1f1g pattern {71111111/2111/311/2/1}

Atom   0Co   basis set group =>   1
Atom   1S    basis set group =>   2
---------------------------------
AUXILIARY/C BASIS SET INFORMATION
---------------------------------
There are 2 groups of distinct atoms

 Group   1 Type Co  : 9s9p8d7f5g3h1i contracted to 9s9p8d7f5g3h1i pattern {111111111/111111111/11111111/1111111/11111/111/1}
 Group   2 Type S   : 11s8p7d5f2g contracted to 11s8p7d5f2g pattern {11111111111/11111111/1111111/11111/11}

Atom   0Co   basis set group =>   1
Atom   1S    basis set group =>   2
----------------------------------
AUXILIARY/JK BASIS SET INFORMATION
----------------------------------
There are 2 groups of distinct atoms

 Group   1 Type Co  : 19s14p12d10f7g3h1i contracted to 16s13p11d9f5g3h1i pattern {4111111111111111/2111111111111/21111111111/211111111/31111/111/1}
 Group   2 Type S   : 16s12p10d4f1g contracted to 13s11p9d4f1g pattern {4111111111111/21111111111/211111111/1111/1}

Atom   0Co   basis set group =>   1
Atom   1S    basis set group =>   2


           ************************************************************
           *        Program running with 24 parallel MPI-processes    *
           *              working on a common directory               *
           ************************************************************
------------------------------------------------------------------------------
                           ORCA GTO INTEGRAL CALCULATION
------------------------------------------------------------------------------

                         BASIS SET STATISTICS AND STARTUP INFO

 # of primitive gaussian shells          ...   66
 # of primitive gaussian functions       ...  174
 # of contracted shells                  ...   32
 # of contracted basis functions         ...  106
 Highest angular momentum                ...    4
 Maximum contraction depth               ...    8
 Integral package used                   ... LIBINT
 Integral threshhold            Thresh   ...  1.000e-12
 Primitive cut-off              TCut     ...  1.000e-14


------------------------------ INTEGRAL EVALUATION ----------------------------


 * One electron integrals 
 Pre-screening matrix                    ... done
 Shell pair data                         ... done (   0.000 sec)



           ************************************************************
           *        Program running with 24 parallel MPI-processes    *
           *              working on a common directory               *
           ************************************************************
-------------------------------------------------------------------------------
                                 ORCA SCF
-------------------------------------------------------------------------------

------------
SCF SETTINGS
------------
Hamiltonian:
 Ab initio Hamiltonian  Method          .... Hartree-Fock(GTOs)


General Settings:
 Integral files         IntName         .... 42_CoS
 Hartree-Fock type      HFTyp           .... UHF
 Total Charge           Charge          ....    0
 Multiplicity           Mult            ....    4
 Number of Electrons    NEL             ....   43
 Basis Dimension        Dim             ....  106
 Nuclear Repulsion      ENuc            ....    115.3637732810 Eh

Convergence Acceleration:
 DIIS                   CNVDIIS         .... on
   Start iteration      DIISMaxIt       ....    12
   Startup error        DIISStart       ....  0.200000
   # of expansion vecs  DIISMaxEq       ....     5
   Bias factor          DIISBfac        ....   1.050
   Max. coefficient     DIISMaxC        ....  10.000
 Newton-Raphson         CNVNR           .... off
 SOSCF                  CNVSOSCF        .... off
 Level Shifting         CNVShift        .... on
   Level shift para.    LevelShift      ....    0.2500
   Turn off err/grad.   ShiftErr        ....    0.0010
 Zerner damping         CNVZerner       .... off
 Static damping         CNVDamp         .... on
   Fraction old density DampFac         ....    0.7000
   Max. Damping (<1)    DampMax         ....    0.9800
   Min. Damping (>=0)   DampMin         ....    0.0000
   Turn off err/grad.   DampErr         ....    0.1000
 Fernandez-Rico         CNVRico         .... off

SCF Procedure:
 Maximum # iterations   MaxIter         ....   125
 SCF integral mode      SCFMode         .... Direct
   Integral package                     .... LIBINT
 Reset frequency        DirectResetFreq ....    20
 Integral Threshold     Thresh          ....  1.000e-12 Eh
 Primitive CutOff       TCut            ....  1.000e-14 Eh

Convergence Tolerance:
 Convergence Check Mode ConvCheckMode   .... Total+1el-Energy
 Convergence forced     ConvForced      .... 1
 Energy Change          TolE            ....  1.000e-09 Eh
 1-El. energy change                    ....  1.000e-06 Eh
 DIIS Error             TolErr          ....  1.000e-08


Diagonalization of the overlap matrix:
Smallest eigenvalue                        ... 4.203e-03
Time for diagonalization                   ...    0.004 sec
Threshold for overlap eigenvalues          ... 1.000e-08
Number of eigenvalues below threshold      ... 0
Time for construction of square roots      ...    0.002 sec
Total time needed                          ...    0.005 sec

-------------------
DFT GRID GENERATION
-------------------

General Integration Accuracy     IntAcc      ...  4.340
Radial Grid Type                 RadialGrid  ... Gauss-Chebyshev
Angular Grid (max. acc.)         AngularGrid ... Lebedev-110
Angular grid pruning method      GridPruning ... 3 (G Style)
Weight generation scheme         WeightScheme... Becke
Basis function cutoff            BFCut       ...    1.0000e-12
Integration weight cutoff        WCut        ...    1.0000e-14
Grids for H and He will be reduced by one unit

# of grid points (after initial pruning)     ...   4718 (   0.0 sec)
# of grid points (after weights+screening)   ...   4691 (   0.0 sec)
nearest neighbour list constructed           ...    0.0 sec
Grid point re-assignment to atoms done       ...    0.0 sec
Grid point division into batches done        ...    0.0 sec
Reduced shell lists constructed in    0.0 sec

Total number of grid points                  ...     4691
Total number of batches                      ...       74
Average number of points per batch           ...       63
Average number of grid points per atom       ...     2346
Average number of shells per batch           ...     8.00 (25.00%)
Average number of basis functions per batch  ...    24.00 (22.64%)
Average number of large shells per batch     ...     7.20 (90.00%)
Average number of large basis fcns per batch ...    21.60 (90.00%)
Maximum spatial batch extension              ...  18.98, 28.73, 16.15 au
Average spatial batch extension              ...   0.97,  1.30,  0.87 au

Time for grid setup =    0.023 sec

------------------------------
INITIAL GUESS: MODEL POTENTIAL
------------------------------
Loading Hartree-Fock densities                     ... done
Calculating cut-offs                               ... done
Setting up the integral package                    ... done
Initializing the effective Hamiltonian             ... done
Starting the Coulomb interaction                   ... done (   0.0 sec)
Reading the grid                                   ... done
Mapping shells                                     ... done
Starting the XC term evaluation                    ... done (   0.0 sec)
Transforming the Hamiltonian                       ... done (   0.0 sec)
Diagonalizing the Hamiltonian                      ... done (   0.0 sec)
Back transforming the eigenvectors                 ... done (   0.0 sec)
Now organizing SCF variables                       ... done
                      ------------------
                      INITIAL GUESS DONE (   0.1 sec)
                      ------------------
--------------
SCF ITERATIONS
--------------
ITER       Energy         Delta-E        Max-DP      RMS-DP      [F,P]     Damp
               ***  Starting incremental Fock matrix formation  ***
  0  -1778.5564981810   0.000000000000 0.03122165  0.00089065  0.2770582 0.7000
  1  -1778.6308809386  -0.074382757577 0.02245658  0.00060674  0.0963428 0.7000
                               ***Turning on DIIS***
  2  -1778.6676775931  -0.036796654486 0.06394563  0.00148519  0.0677464 0.0000
  3  -1778.6305447018   0.037132891328 0.02212938  0.00061192  0.0641605 0.0000
  4  -1779.1686650367  -0.538120334920 0.01508660  0.00042151  0.0482069 0.0000
  5  -1778.6938385592   0.474826477495 0.01543702  0.00049600  0.0317283 0.0000
  6  -1779.0489676238  -0.355129064642 0.02709108  0.00061596  0.0198032 0.0000
  7  -1779.0776057024  -0.028638078571 0.02111740  0.00034943  0.0146288 0.0000
  8  -1779.0205522073   0.057053495136 0.02717602  0.00037203  0.0091024 0.0000
  9  -1778.9813007631   0.039251444203 0.01804791  0.00025267  0.0062121 0.0000
 10  -1778.9386416175   0.042659145594 0.01763339  0.00022310  0.0044811 0.0000
 11  -1778.9129672424   0.025674375042 0.01301296  0.00017739  0.0025912 0.0000
 12  -1778.8985378293   0.014429413110 0.01141494  0.00016267  0.0020263 0.0000
 13  -1778.8932619916   0.005275837729 0.01136301  0.00015613  0.0017821 0.0000
 14  -1778.8826530337   0.010608957869 0.00899842  0.00012754  0.0015486 0.0000
 15  -1778.8756925011   0.006960532639 0.00677534  0.00009905  0.0014222 0.0000
 16  -1778.8676464451   0.008046055970 0.00576498  0.00008688  0.0013697 0.0000
 17  -1778.8563312075   0.011315237569 0.00221504  0.00004382  0.0014137 0.0000
 18  -1778.8455817796   0.010749427949 0.00078906  0.00001528  0.0013253 0.0000
 19  -1778.8379365275   0.007645252072 0.00092901  0.00001095  0.0011824 0.0000
               *** Restarting incremental Fock matrix formation ***
                                   *** Resetting DIIS ***
 20  -1778.8554998026  -0.017563275075 0.00251815  0.00004198  0.0010623 0.0000
 21  -1778.8553819094   0.000117893150 0.00303945  0.00004410  0.0014098 0.0000
 22  -1778.8559493658  -0.000567456317 0.00361753  0.00005133  0.0013686 0.0000
 23  -1778.8576125472  -0.001663181455 0.00389993  0.00005461  0.0014015 0.0000
 24  -1778.8609553081  -0.003342760921 0.00479814  0.00006581  0.0014221 0.0000
 25  -1778.8627880535  -0.001832745359 0.00499000  0.00006815  0.0014646 0.0000
 26  -1778.8669146477  -0.004126594248 0.00612117  0.00008279  0.0014634 0.0000
 27  -1778.8588918504   0.008022797346 0.00288718  0.00004388  0.0014952 0.0000
 28  -1778.8879765998  -0.029084749388 0.01235857  0.00016300  0.0012962 0.0000
 29  -1778.8540655033   0.033911096455 0.00218330  0.00003037  0.0017766 0.0000
 30  -1778.8782125138  -0.024147010467 0.01005011  0.00013424  0.0010427 0.0000
 31  -1778.9058052374  -0.027592723590 0.01364574  0.00018913  0.0014999 0.0000
 32  -1778.8627453863   0.043059851125 0.00225801  0.00003445  0.0018103 0.0000
 33  -1778.9293027155  -0.066557329198 0.03113461  0.00048238  0.0009344 0.0000
 34  -1778.8725106131   0.056792102341 0.00550801  0.00011252  0.0006377 0.0000
 35  -1778.8645652694   0.007945343739 0.00215649  0.00004114  0.0004634 0.0000
 36  -1778.8624981567   0.002067112668 0.00112403  0.00002131  0.0002653 0.0000
 37  -1778.8535953292   0.008902827546 0.00116776  0.00001647  0.0000959 0.0000
 38  -1778.8560999868  -0.002504657605 0.00043956  0.00000674  0.0000372 0.0000
 39  -1778.8557651273   0.000334859515 0.00035395  0.00000615  0.0000148 0.0000
               *** Restarting incremental Fock matrix formation ***
                                   *** Resetting DIIS ***
 40  -1778.8568126784  -0.001047551106 0.00000807  0.00000020  0.0000034 0.0000
 41  -1778.8568128695  -0.000000191169 0.00000541  0.00000013  0.0000017 0.0000
 42  -1778.8568006520   0.000012217564 0.00000632  0.00000016  0.0000012 0.0000
 43  -1778.8568045706  -0.000003918637 0.00000595  0.00000010  0.0000013 0.0000
 44  -1778.8568013526   0.000003217979 0.00000725  0.00000012  0.0000011 0.0000
 45  -1778.8567866470   0.000014705585 0.00001066  0.00000018  0.0000010 0.0000
 46  -1778.8567856650   0.000000982032 0.00000818  0.00000015  0.0000007 0.0000
 47  -1778.8567918108  -0.000006145829 0.00000677  0.00000013  0.0000005 0.0000
 48  -1778.8567967175  -0.000004906666 0.00000527  0.00000010  0.0000004 0.0000
 49  -1778.8568058947  -0.000009177232 0.00000293  0.00000006  0.0000002 0.0000
 50  -1778.8568098316  -0.000003936916 0.00000115  0.00000002  0.0000001 0.0000
 51  -1778.8568119022  -0.000002070585 0.00000052  0.00000001  0.0000001 0.0000
 52  -1778.8568123273  -0.000000425036 0.00000019  0.00000000  0.0000000 0.0000
 53  -1778.8568126253  -0.000000298071 0.00000008  0.00000000  0.0000000 0.0000
                            ***DIIS convergence achieved***

               *****************************************************
               *                     SUCCESS                       *
               *           SCF CONVERGED AFTER  54 CYCLES          *
               *****************************************************


----------------
TOTAL SCF ENERGY
----------------

Total Energy       :        -1778.85681279 Eh          -48405.15475 eV

Components:
Nuclear Repulsion  :          115.36377328 Eh            3139.20787 eV
Electronic Energy  :        -1894.22058607 Eh          -51544.36261 eV
One Electron Energy:        -2694.51172961 Eh          -73321.39175 eV
Two Electron Energy:          800.29114354 Eh           21777.02914 eV

Virial components:
Potential Energy   :        -3557.87702175 Eh          -96814.75573 eV
Kinetic Energy     :         1779.02020896 Eh           48409.60098 eV
Virial Ratio       :            1.99990815


---------------
SCF CONVERGENCE
---------------

  Last Energy change         ...   -1.6119e-07  Tolerance :   1.0000e-09
  Last MAX-Density change    ...    6.5383e-08  Tolerance :   1.0000e-08
  Last RMS-Density change    ...    1.2466e-09  Tolerance :   1.0000e-09
  Last DIIS Error            ...    1.7509e-08  Tolerance :   1.0000e-08

             **** THE GBW FILE WAS UPDATED (42_CoS.gbw) ****
             **** DENSITY FILE WAS UPDATED (42_CoS.scfp) ****
             **** ENERGY FILE WAS UPDATED (42_CoS.en.tmp) ****
----------------------
UHF SPIN CONTAMINATION
----------------------

Expectation value of <S**2>     :     4.152916
Ideal value S*(S+1) for S=1.5   :     3.750000
Deviation                       :     0.402916

             **** THE GBW FILE WAS UPDATED (42_CoS.gbw) ****
             **** DENSITY FILE WAS UPDATED (42_CoS.scfp) ****
----------------
ORBITAL ENERGIES
----------------
                 SPIN UP ORBITALS
  NO   OCC          E(Eh)            E(eV) 
   0   1.0000    -283.098259     -7703.4953 
   1   1.0000     -91.891124     -2500.4846 
   2   1.0000     -34.949288      -951.0185 
   3   1.0000     -30.247225      -823.0688 
   4   1.0000     -30.176560      -821.1460 
   5   1.0000     -30.176560      -821.1460 
   6   1.0000      -8.899072      -242.1561 
   7   1.0000      -6.579481      -179.0368 
   8   1.0000      -6.579481      -179.0368 
   9   1.0000      -6.570135      -178.7825 
  10   1.0000      -4.691446      -127.6607 
  11   1.0000      -3.304892       -89.9307 
  12   1.0000      -3.148783       -85.6827 
  13   1.0000      -3.148783       -85.6827 
  14   1.0000      -0.866756       -23.5856 
  15   1.0000      -0.788680       -21.4611 
  16   1.0000      -0.788680       -21.4611 
  17   1.0000      -0.752215       -20.4688 
  18   1.0000      -0.670433       -18.2434 
  19   1.0000      -0.670433       -18.2434 
  20   1.0000      -0.330715        -8.9992 
  21   1.0000      -0.330715        -8.9992 
  22   1.0000      -0.326455        -8.8833 
  23   0.0000      -0.036798        -1.0013 
  24   0.0000       0.087808         2.3894 
  25   0.0000       0.087808         2.3894 
  26   0.0000       0.159031         4.3275 
  27   0.0000       0.230283         6.2663 
  28   0.0000       0.261155         7.1064 
  29   0.0000       0.261155         7.1064 
  30   0.0000       0.314003         8.5445 
  31   0.0000       0.314003         8.5445 
  32   0.0000       0.321782         8.7561 
  33   0.0000       0.463754        12.6194 
  34   0.0000       0.463754        12.6194 
  35   0.0000       0.479758        13.0549 
  36   0.0000       0.613795        16.7022 
  37   0.0000       0.613795        16.7022 
  38   0.0000       0.617902        16.8140 
  39   0.0000       0.617902        16.8140 
  40   0.0000       0.641838        17.4653 
  41   0.0000       0.745488        20.2858 
  42   0.0000       0.745488        20.2858 
  43   0.0000       0.846314        23.0294 
  44   0.0000       1.110194        30.2099 
  45   0.0000       1.110194        30.2099 
  46   0.0000       1.121561        30.5192 
  47   0.0000       1.167277        31.7632 
  48   0.0000       1.167277        31.7632 
  49   0.0000       1.391884        37.8751 
  50   0.0000       1.809283        49.2331 
  51   0.0000       1.826509        49.7018 
  52   0.0000       1.826509        49.7018 
  53   0.0000       1.896805        51.6147 
  54   0.0000       1.896805        51.6147 
  55   0.0000       1.990873        54.1744 
  56   0.0000       1.990873        54.1744 
  57   0.0000       2.002972        54.5036 
  58   0.0000       2.002972        54.5036 
  59   0.0000       2.071800        56.3765 
  60   0.0000       2.093015        56.9538 
  61   0.0000       2.093015        56.9538 
  62   0.0000       2.188199        59.5439 
  63   0.0000       2.188199        59.5439 
  64   0.0000       2.462156        66.9987 
  65   0.0000       2.857790        77.7644 
  66   0.0000       2.857790        77.7644 
  67   0.0000       2.908711        79.1500 
  68   0.0000       2.916767        79.3693 
  69   0.0000       2.916767        79.3693 
  70   0.0000       2.924052        79.5675 
  71   0.0000       2.924052        79.5675 
  72   0.0000       3.218019        87.5667 
  73   0.0000       3.218019        87.5667 
  74   0.0000       3.402368        92.5831 
  75   0.0000       3.661314        99.6294 
  76   0.0000       4.173899       113.5776 
  77   0.0000       4.173899       113.5776 
  78   0.0000       4.201473       114.3279 
  79   0.0000       4.201473       114.3279 
  80   0.0000       4.331163       117.8569 
  81   0.0000       7.291769       198.4191 
  82   0.0000       7.291769       198.4191 
  83   0.0000       7.355301       200.1479 
  84   0.0000       7.355301       200.1479 
  85   0.0000       7.392676       201.1650 
  86   0.0000       9.603263       261.3181 
  87   0.0000       9.603263       261.3181 
  88   0.0000       9.933111       270.2937 
  89   0.0000      10.410697       283.2895 
  90   0.0000      10.410707       283.2897 
  91   0.0000      10.410707       283.2897 
  92   0.0000      10.421389       283.5804 
  93   0.0000      10.421389       283.5804 
  94   0.0000      10.459786       284.6252 
  95   0.0000      10.459786       284.6252 
  96   0.0000      10.527777       286.4754 
  97   0.0000      10.527777       286.4754 
  98   0.0000      11.012657       299.6696 
  99   0.0000      11.012657       299.6696 
 100   0.0000      11.058717       300.9230 
 101   0.0000      11.058717       300.9230 
 102   0.0000      11.103619       302.1448 
 103   0.0000      11.103619       302.1448 
 104   0.0000      11.265224       306.5423 
 105   0.0000      19.218152       522.9525 

                 SPIN DOWN ORBITALS
  NO   OCC          E(Eh)            E(eV) 
   0   1.0000    -283.094428     -7703.3910 
   1   1.0000     -91.896068     -2500.6191 
   2   1.0000     -34.846177      -948.2127 
   3   1.0000     -30.101877      -819.1137 
   4   1.0000     -30.100562      -819.0779 
   5   1.0000     -30.100562      -819.0779 
   6   1.0000      -8.903589      -242.2790 
   7   1.0000      -6.594996      -179.4590 
   8   1.0000      -6.580855      -179.0742 
   9   1.0000      -6.580855      -179.0742 
  10   1.0000      -4.412938      -120.0821 
  11   1.0000      -2.907667       -79.1216 
  12   1.0000      -2.907667       -79.1216 
  13   1.0000      -2.803435       -76.2853 
  14   1.0000      -0.887736       -24.1565 
  15   1.0000      -0.538719       -14.6593 
  16   1.0000      -0.538719       -14.6593 
  17   1.0000      -0.447620       -12.1804 
  18   1.0000      -0.349401        -9.5077 
  19   1.0000      -0.349401        -9.5077 
  20   0.0000      -0.005573        -0.1517 
  21   0.0000       0.108134         2.9425 
  22   0.0000       0.118714         3.2304 
  23   0.0000       0.118714         3.2304 
  24   0.0000       0.183741         4.9998 
  25   0.0000       0.183741         4.9998 
  26   0.0000       0.210349         5.7239 
  27   0.0000       0.278186         7.5698 
  28   0.0000       0.278186         7.5698 
  29   0.0000       0.284505         7.7418 
  30   0.0000       0.346178         9.4200 
  31   0.0000       0.369974        10.0675 
  32   0.0000       0.369974        10.0675 
  33   0.0000       0.464592        12.6422 
  34   0.0000       0.464592        12.6422 
  35   0.0000       0.480632        13.0787 
  36   0.0000       0.618978        16.8432 
  37   0.0000       0.618978        16.8432 
  38   0.0000       0.626235        17.0407 
  39   0.0000       0.644902        17.5487 
  40   0.0000       0.644902        17.5487 
  41   0.0000       0.750436        20.4204 
  42   0.0000       0.750436        20.4204 
  43   0.0000       0.889458        24.2034 
  44   0.0000       1.139785        31.0151 
  45   0.0000       1.151550        31.3353 
  46   0.0000       1.151550        31.3353 
  47   0.0000       1.286807        35.0158 
  48   0.0000       1.286807        35.0158 
  49   0.0000       1.453610        39.5548 
  50   0.0000       1.791856        48.7589 
  51   0.0000       1.828434        49.7542 
  52   0.0000       1.828434        49.7542 
  53   0.0000       1.877509        51.0896 
  54   0.0000       1.877509        51.0896 
  55   0.0000       1.978411        53.8353 
  56   0.0000       1.978411        53.8353 
  57   0.0000       2.007076        54.6153 
  58   0.0000       2.007076        54.6153 
  59   0.0000       2.062562        56.1252 
  60   0.0000       2.095827        57.0304 
  61   0.0000       2.095827        57.0304 
  62   0.0000       2.191910        59.6449 
  63   0.0000       2.191910        59.6449 
  64   0.0000       2.475182        67.3531 
  65   0.0000       2.926182        79.6255 
  66   0.0000       2.926182        79.6255 
  67   0.0000       2.963502        80.6410 
  68   0.0000       2.963502        80.6410 
  69   0.0000       3.022862        82.2563 
  70   0.0000       3.032245        82.5116 
  71   0.0000       3.032245        82.5116 
  72   0.0000       3.329942        90.6123 
  73   0.0000       3.329942        90.6123 
  74   0.0000       3.482543        94.7648 
  75   0.0000       3.762894       102.3936 
  76   0.0000       4.263686       116.0208 
  77   0.0000       4.263686       116.0208 
  78   0.0000       4.361120       118.6721 
  79   0.0000       4.361120       118.6721 
  80   0.0000       4.495589       122.3312 
  81   0.0000       7.291983       198.4249 
  82   0.0000       7.291983       198.4249 
  83   0.0000       7.349329       199.9854 
  84   0.0000       7.349329       199.9854 
  85   0.0000       7.386184       200.9883 
  86   0.0000       9.602925       261.3089 
  87   0.0000       9.602925       261.3089 
  88   0.0000       9.915748       269.8212 
  89   0.0000      10.545410       286.9552 
  90   0.0000      10.545410       286.9552 
  91   0.0000      10.545884       286.9681 
  92   0.0000      10.545884       286.9681 
  93   0.0000      10.549258       287.0599 
  94   0.0000      10.558274       287.3052 
  95   0.0000      10.558274       287.3052 
  96   0.0000      10.569458       287.6096 
  97   0.0000      10.569458       287.6096 
  98   0.0000      11.181559       304.2657 
  99   0.0000      11.181559       304.2657 
 100   0.0000      11.228398       305.5402 
 101   0.0000      11.228398       305.5402 
 102   0.0000      11.311900       307.8125 
 103   0.0000      11.311900       307.8125 
 104   0.0000      11.513945       313.3104 
 105   0.0000      19.212263       522.7923 

                    ********************************
                    * MULLIKEN POPULATION ANALYSIS *
                    ********************************

--------------------------------------------
MULLIKEN ATOMIC CHARGES AND SPIN POPULATIONS
--------------------------------------------
   0 Co:    0.675731    3.430749
   1 S :   -0.675731   -0.430749
Sum of atomic charges         :   -0.0000000
Sum of atomic spin populations:    3.0000000

-----------------------------------------------------
MULLIKEN REDUCED ORBITAL CHARGES AND SPIN POPULATIONS
-----------------------------------------------------
CHARGE
  0 Cos       :     6.724493  s :     6.724493
      pz      :     4.109754  p :    12.361469
      px      :     4.125858
      py      :     4.125858
      dz2     :     1.076677  d :     7.235035
      dxz     :     1.080042
      dyz     :     1.080042
      dx2y2   :     1.999137
      dxy     :     1.999137
      f0      :     0.001100  f :     0.003060
      f+1     :     0.000949
      f-1     :     0.000949
      f+2     :     0.000031
      f-2     :     0.000031
      f+3     :     0.000000
      f-3     :     0.000000
      g0      :     0.000062  g :     0.000211
      g+1     :     0.000047
      g-1     :     0.000047
      g+2     :     0.000028
      g-2     :     0.000028
      g+3     :     0.000000
      g-3     :     0.000000
      g+4     :     0.000000
      g-4     :     0.000000
  1 S s       :     5.902851  s :     5.902851
      pz      :     3.163819  p :    10.719096
      px      :     3.777639
      py      :     3.777639
      dz2     :     0.018780  d :     0.046941
      dxz     :     0.013443
      dyz     :     0.013443
      dx2y2   :     0.000638
      dxy     :     0.000638
      f0      :     0.002465  f :     0.006843
      f+1     :     0.002023
      f-1     :     0.002023
      f+2     :     0.000166
      f-2     :     0.000166
      f+3     :     0.000000
      f-3     :     0.000000

SPIN
  0 Cos       :     0.564952  s :     0.564952
      pz      :     0.037050  p :     0.103839
      px      :     0.033395
      py      :     0.033395
      dz2     :     0.906120  d :     2.762198
      dxz     :     0.927792
      dyz     :     0.927792
      dx2y2   :     0.000246
      dxy     :     0.000246
      f0      :    -0.000403  f :    -0.000409
      f+1     :    -0.000013
      f-1     :    -0.000013
      f+2     :     0.000010
      f-2     :     0.000010
      f+3     :     0.000000
      f-3     :     0.000000
      g0      :     0.000041  g :     0.000168
      g+1     :     0.000038
      g-1     :     0.000038
      g+2     :     0.000026
      g-2     :     0.000026
      g+3     :     0.000000
      g-3     :     0.000000
      g+4     :     0.000000
      g-4     :     0.000000
  1 S s       :    -0.011544  s :    -0.011544
      pz      :    -0.493938  p :    -0.403701
      px      :     0.045118
      py      :     0.045118
      dz2     :    -0.001975  d :    -0.013259
      dxz     :    -0.005415
      dyz     :    -0.005415
      dx2y2   :    -0.000227
      dxy     :    -0.000227
      f0      :    -0.000302  f :    -0.002244
      f+1     :    -0.000916
      f-1     :    -0.000916
      f+2     :    -0.000055
      f-2     :    -0.000055
      f+3     :     0.000000
      f-3     :     0.000000


                     *******************************
                     * LOEWDIN POPULATION ANALYSIS *
                     *******************************

-------------------------------------------
LOEWDIN ATOMIC CHARGES AND SPIN POPULATIONS
-------------------------------------------
   0 Co:    0.073517    3.307371
   1 S :   -0.073517   -0.307371

----------------------------------------------------
LOEWDIN REDUCED ORBITAL CHARGES AND SPIN POPULATIONS
----------------------------------------------------
CHARGE
  0 Cos       :     6.729897  s :     6.729897
      pz      :     4.296037  p :    12.634340
      px      :     4.169152
      py      :     4.169152
      dz2     :     1.218578  d :     7.555126
      dxz     :     1.169930
      dyz     :     1.169930
      dx2y2   :     1.998344
      dxy     :     1.998344
      f0      :     0.003108  f :     0.006898
      f+1     :     0.001860
      f-1     :     0.001860
      f+2     :     0.000035
      f-2     :     0.000035
      f+3     :     0.000000
      f-3     :     0.000000
      g0      :     0.000069  g :     0.000221
      g+1     :     0.000049
      g-1     :     0.000049
      g+2     :     0.000027
      g-2     :     0.000027
      g+3     :     0.000000
      g-3     :     0.000000
      g+4     :     0.000000
      g-4     :     0.000000
  1 S s       :     5.502923  s :     5.502923
      pz      :     3.202996  p :    10.492275
      px      :     3.644639
      py      :     3.644639
      dz2     :     0.038722  d :     0.063536
      dxz     :     0.011324
      dyz     :     0.011324
      dx2y2   :     0.001083
      dxy     :     0.001083
      f0      :     0.007669  f :     0.014783
      f+1     :     0.003046
      f-1     :     0.003046
      f+2     :     0.000511
      f-2     :     0.000511
      f+3     :     0.000000
      f-3     :     0.000000

SPIN
  0 Cos       :     0.484909  s :     0.484909
      pz      :     0.028437  p :     0.100151
      px      :     0.035857
      py      :     0.035857
      dz2     :     0.882986  d :     2.723349
      dxz     :     0.919847
      dyz     :     0.919847
      dx2y2   :     0.000335
      dxy     :     0.000335
      f0      :    -0.001166  f :    -0.001190
      f+1     :    -0.000022
      f-1     :    -0.000022
      f+2     :     0.000010
      f-2     :     0.000010
      f+3     :     0.000000
      f-3     :     0.000000
      g0      :     0.000032  g :     0.000151
      g+1     :     0.000034
      g-1     :     0.000034
      g+2     :     0.000026
      g-2     :     0.000026
      g+3     :     0.000000
      g-3     :     0.000000
      g+4     :     0.000000
      g-4     :     0.000000
  1 S s       :     0.002424  s :     0.002424
      pz      :    -0.405733  p :    -0.317673
      px      :     0.044030
      py      :     0.044030
      dz2     :     0.006247  d :     0.004300
      dxz     :    -0.000694
      dyz     :    -0.000694
      dx2y2   :    -0.000279
      dxy     :    -0.000279
      f0      :     0.001864  f :     0.003578
      f+1     :     0.000949
      f-1     :     0.000949
      f+2     :    -0.000092
      f-2     :    -0.000092
      f+3     :     0.000000
      f-3     :     0.000000


                      *****************************
                      * MAYER POPULATION ANALYSIS *
                      *****************************

  NA   - Mulliken gross atomic population
  ZA   - Total nuclear charge
  QA   - Mulliken gross atomic charge
  VA   - Mayer's total valence
  BVA  - Mayer's bonded valence
  FA   - Mayer's free valence

  ATOM       NA         ZA         QA         VA         BVA        FA
  0 Co    26.3243    27.0000     0.6757     4.7418     1.6336     3.1082
  1 S     16.6757    16.0000    -0.6757     1.9301     1.6336     0.2965

  Mayer bond orders larger than 0.100000
B(  0-Co,  1-S ) :   1.6336 

-------
TIMINGS
-------

Total SCF time: 0 days 0 hours 0 min 8 sec 

Total time                  ....       8.049 sec
Sum of individual times     ....       7.677 sec  ( 95.4%)

Fock matrix formation       ....       7.290 sec  ( 90.6%)
Diagonalization             ....       0.149 sec  (  1.9%)
Density matrix formation    ....       0.027 sec  (  0.3%)
Population analysis         ....       0.005 sec  (  0.1%)
Initial guess               ....       0.102 sec  (  1.3%)
Orbital Transformation      ....       0.000 sec  (  0.0%)
Orbital Orthonormalization  ....       0.000 sec  (  0.0%)
DIIS solution               ....       0.080 sec  (  1.0%)


           ************************************************************
           *        Program running with 24 parallel MPI-processes    *
           *              working on a common directory               *
           ************************************************************


------------------------------------------------------------------------------- 
                              ORCA-MATRIX DRIVEN CI                            
------------------------------------------------------------------------------- 

--------------------------------
AUTOMATIC CHOICE OF INCORE LEVEL
--------------------------------

Memory available                           ...   2500.00 MB
Memory needed for S+T                      ...     14.35 MB
Memory needed for J+K                      ...     28.81 MB
Memory needed for DIIS                     ...    200.88 MB
Memory needed for 3-ext                    ...     56.71 MB
Memory needed for 4-ext                    ...    183.22 MB
Memory needed for triples                  ...     21.81 MB
 -> Final InCoreLevel    ... 5
 -> check shows that triples correction can be computed


Wavefunction type
-----------------
Correlation treatment                      ...      CCSD     
Single excitations                         ... ON
Orbital optimization                       ... OFF
Calculation of Z vector                    ... OFF
Calculation of Brueckner orbitals          ... OFF
Perturbative triple excitations            ... ON
Calculation of F12 correction              ... OFF
Frozen core treatment                      ... chemical core (20 el)
Reference Wavefunction                     ... UHF
  Alpha-MOs occ    :    10 ...   22 ( 13 MO's/ 13 electrons)
  Beta-MOs occ     :    10 ...   19 ( 10 MO's/ 10 electrons)
  Alpha-MOs virt   :    23 ...  105 ( 83 MO's              )
  Beta-MOs virt    :    20 ...  105 ( 86 MO's              )
Number of AO's                             ...    106
Number of electrons                        ...     43
Number of correlated electrons             ...     23

Algorithmic settings
--------------------
Integral transformation                    ... AO direct full transformation
K(C) Formation                             ... FULL-MO TRAFO
Maximum number of iterations               ...        50
Convergence tolerance (max. residuum)      ... 1.000e-06
Level shift for amplitude update           ... 2.000e-01
Maximum number of DIIS vectors             ...         7
DIIS turned on at iteration                ...         0
Damping before turning on DIIS             ...     0.500
Damping after turning on DIIS              ...     0.000
Pair specific amplitude update             ... OFF
Natural orbital iterations                 ... OFF
Perturbative natural orbital generation    ... OFF
Printlevel                                 ... 2

Memory handling:
----------------
Maximum memory for working arrays          ...   2500 MB
Data storage in matrix containers          ... UNCOMPRESSED
Data type for integral storage             ... DOUBLE
In-Core Storage of quantities:
   Amplitudes+Sigma Vector      ... YES
   J+K operators                ... YES
   DIIS vectors                 ... YES
   3-external integrals         ... YES
   4-external integrals         ... YES


Initializing the integral package          ... done
Warning: reference  - re-canonicalizations have been set to INT 1 VIRT 1

--------------------------
UNRESTRICTED FOCK OPERATOR
--------------------------

<ss|ss>:         1953 b           77 skpd (  3.9%)    0.001 s ( 0.000 ms/b)
<ss|sp>:         6510 b          256 skpd (  3.9%)    0.002 s ( 0.000 ms/b)
<ss|sd>:         4588 b          176 skpd (  3.8%)    0.001 s ( 0.000 ms/b)
<ss|sf>:         1922 b           71 skpd (  3.7%)    0.000 s ( 0.000 ms/b)
<ss|sg>:          682 b           77 skpd ( 11.3%)    0.000 s ( 0.001 ms/b)
<ss|pp>:         3348 b          142 skpd (  4.2%)    0.001 s ( 0.000 ms/b)
<ss|pd>:         4278 b          186 skpd (  4.3%)    0.001 s ( 0.000 ms/b)
<ss|pf>:         1860 b          132 skpd (  7.1%)    0.001 s ( 0.000 ms/b)
<ss|pg>:          620 b           34 skpd (  5.5%)    0.001 s ( 0.001 ms/b)
<ss|dd>:         1736 b           63 skpd (  3.6%)    0.001 s ( 0.001 ms/b)
<ss|df>:         1302 b           65 skpd (  5.0%)    0.001 s ( 0.000 ms/b)
<ss|dg>:          434 b           24 skpd (  5.5%)    0.001 s ( 0.002 ms/b)
<ss|ff>:          372 b           15 skpd (  4.0%)    0.000 s ( 0.001 ms/b)
<ss|fg>:          186 b            7 skpd (  3.8%)    0.000 s ( 0.002 ms/b)
<ss|gg>:           62 b            2 skpd (  3.2%)    0.001 s ( 0.010 ms/b)
<sp|sp>:         5565 b          151 skpd (  2.7%)    0.002 s ( 0.000 ms/b)
<sp|sd>:         7770 b          210 skpd (  2.7%)    0.002 s ( 0.000 ms/b)
<sp|sf>:         3255 b           76 skpd (  2.3%)    0.001 s ( 0.000 ms/b)
<sp|sg>:         1155 b          146 skpd ( 12.6%)    0.001 s ( 0.001 ms/b)
<sp|pp>:         5670 b          132 skpd (  2.3%)    0.003 s ( 0.000 ms/b)
<sp|pd>:         7245 b          151 skpd (  2.1%)    0.004 s ( 0.000 ms/b)
<sp|pf>:         3150 b          163 skpd (  5.2%)    0.002 s ( 0.001 ms/b)
<sp|pg>:         1050 b           36 skpd (  3.4%)    0.002 s ( 0.002 ms/b)
<sp|dd>:         2940 b           52 skpd (  1.8%)    0.004 s ( 0.001 ms/b)
<sp|df>:         2205 b           70 skpd (  3.2%)    0.002 s ( 0.001 ms/b)
<sp|dg>:          735 b           20 skpd (  2.7%)    0.002 s ( 0.003 ms/b)
<sp|ff>:          630 b            9 skpd (  1.4%)    0.001 s ( 0.002 ms/b)
<sp|fg>:          315 b            6 skpd (  1.9%)    0.001 s ( 0.005 ms/b)
<sp|gg>:          105 b            1 skpd (  1.0%)    0.002 s ( 0.019 ms/b)
<sd|sd>:         2775 b           41 skpd (  1.5%)    0.001 s ( 0.000 ms/b)
<sd|sf>:         2294 b           33 skpd (  1.4%)    0.001 s ( 0.001 ms/b)
<sd|sg>:          814 b          104 skpd ( 12.8%)    0.001 s ( 0.002 ms/b)
<sd|pp>:         3996 b          109 skpd (  2.7%)    0.003 s ( 0.001 ms/b)
<sd|pd>:         5106 b           66 skpd (  1.3%)    0.004 s ( 0.001 ms/b)
<sd|pf>:         2220 b          110 skpd (  5.0%)    0.002 s ( 0.001 ms/b)
<sd|pg>:          740 b           25 skpd (  3.4%)    0.002 s ( 0.003 ms/b)
<sd|dd>:         2072 b           16 skpd (  0.8%)    0.005 s ( 0.002 ms/b)
<sd|df>:         1554 b           46 skpd (  3.0%)    0.002 s ( 0.001 ms/b)
<sd|dg>:          518 b           10 skpd (  1.9%)    0.003 s ( 0.006 ms/b)
<sd|ff>:          444 b            6 skpd (  1.4%)    0.001 s ( 0.003 ms/b)
<sd|fg>:          222 b            3 skpd (  1.4%)    0.002 s ( 0.009 ms/b)
<sd|gg>:           74 b            1 skpd (  1.4%)    0.003 s ( 0.039 ms/b)
<sf|sf>:          496 b            1 skpd (  0.2%)    0.000 s ( 0.001 ms/b)
<sf|sg>:          341 b           42 skpd ( 12.3%)    0.001 s ( 0.003 ms/b)
<sf|pp>:         1674 b           37 skpd (  2.2%)    0.002 s ( 0.001 ms/b)
<sf|pd>:         2139 b           19 skpd (  0.9%)    0.003 s ( 0.001 ms/b)
<sf|pf>:          930 b           37 skpd (  4.0%)    0.002 s ( 0.002 ms/b)
<sf|pg>:          310 b           10 skpd (  3.2%)    0.002 s ( 0.006 ms/b)
<sf|dd>:          868 b            6 skpd (  0.7%)    0.004 s ( 0.004 ms/b)
<sf|df>:          651 b           21 skpd (  3.2%)    0.002 s ( 0.003 ms/b)
<sf|dg>:          217 b            6 skpd (  2.8%)    0.002 s ( 0.011 ms/b)
<sf|ff>:          186 b            0 skpd (  0.0%)    0.001 s ( 0.007 ms/b)
<sf|fg>:           93 b            0 skpd (  0.0%)    0.002 s ( 0.017 ms/b)
<sf|gg>:           31 b            0 skpd (  0.0%)    0.002 s ( 0.068 ms/b)
<sg|sg>:           66 b           15 skpd ( 22.7%)    0.000 s ( 0.005 ms/b)
<sg|pp>:          594 b           65 skpd ( 10.9%)    0.001 s ( 0.002 ms/b)
<sg|pd>:          759 b           93 skpd ( 12.3%)    0.002 s ( 0.003 ms/b)
<sg|pf>:          330 b           50 skpd ( 15.2%)    0.001 s ( 0.003 ms/b)
<sg|pg>:          110 b           17 skpd ( 15.5%)    0.001 s ( 0.011 ms/b)
<sg|dd>:          308 b           34 skpd ( 11.0%)    0.002 s ( 0.008 ms/b)
<sg|df>:          231 b           36 skpd ( 15.6%)    0.001 s ( 0.005 ms/b)
<sg|dg>:           77 b           12 skpd ( 15.6%)    0.002 s ( 0.024 ms/b)
<sg|ff>:           66 b            9 skpd ( 13.6%)    0.001 s ( 0.009 ms/b)
<sg|fg>:           33 b            6 skpd ( 18.2%)    0.001 s ( 0.031 ms/b)
<sg|gg>:           11 b            2 skpd ( 18.2%)    0.001 s ( 0.119 ms/b)
<pp|pp>:         1485 b           23 skpd (  1.5%)    0.002 s ( 0.002 ms/b)
<pp|pd>:         3726 b           59 skpd (  1.6%)    0.004 s ( 0.001 ms/b)
<pp|pf>:         1620 b           75 skpd (  4.6%)    0.002 s ( 0.001 ms/b)
<pp|pg>:          540 b           11 skpd (  2.0%)    0.002 s ( 0.004 ms/b)
<pp|dd>:         1512 b           25 skpd (  1.7%)    0.005 s ( 0.003 ms/b)
<pp|df>:         1134 b           28 skpd (  2.5%)    0.002 s ( 0.002 ms/b)
<pp|dg>:          378 b            9 skpd (  2.4%)    0.003 s ( 0.008 ms/b)
<pp|ff>:          324 b            6 skpd (  1.9%)    0.002 s ( 0.005 ms/b)
<pp|fg>:          162 b            3 skpd (  1.9%)    0.002 s ( 0.013 ms/b)
<pp|gg>:           54 b            1 skpd (  1.9%)    0.003 s ( 0.054 ms/b)
<pd|pd>:         2415 b           15 skpd (  0.6%)    0.006 s ( 0.002 ms/b)
<pd|pf>:         2070 b           79 skpd (  3.8%)    0.005 s ( 0.002 ms/b)
<pd|pg>:          690 b           11 skpd (  1.6%)    0.005 s ( 0.007 ms/b)
<pd|dd>:         1932 b            5 skpd (  0.3%)    0.010 s ( 0.005 ms/b)
<pd|df>:         1449 b           22 skpd (  1.5%)    0.004 s ( 0.003 ms/b)
<pd|dg>:          483 b            5 skpd (  1.0%)    0.007 s ( 0.014 ms/b)
<pd|ff>:          414 b            1 skpd (  0.2%)    0.003 s ( 0.008 ms/b)
<pd|fg>:          207 b            0 skpd (  0.0%)    0.005 s ( 0.024 ms/b)
<pd|gg>:           69 b            0 skpd (  0.0%)    0.007 s ( 0.098 ms/b)
<pf|pf>:          465 b           31 skpd (  6.7%)    0.002 s ( 0.004 ms/b)
<pf|pg>:          300 b           12 skpd (  4.0%)    0.003 s ( 0.011 ms/b)
<pf|dd>:          840 b           28 skpd (  3.3%)    0.006 s ( 0.007 ms/b)
<pf|df>:          630 b           35 skpd (  5.6%)    0.003 s ( 0.005 ms/b)
<pf|dg>:          210 b            8 skpd (  3.8%)    0.004 s ( 0.021 ms/b)
<pf|ff>:          180 b            6 skpd (  3.3%)    0.003 s ( 0.015 ms/b)
<pf|fg>:           90 b            3 skpd (  3.3%)    0.003 s ( 0.039 ms/b)
<pf|gg>:           30 b            1 skpd (  3.3%)    0.004 s ( 0.148 ms/b)
<pg|pg>:           55 b            2 skpd (  3.6%)    0.001 s ( 0.023 ms/b)
<pg|dd>:          280 b            2 skpd (  0.7%)    0.004 s ( 0.014 ms/b)
<pg|df>:          210 b           10 skpd (  4.8%)    0.002 s ( 0.009 ms/b)
<pg|dg>:           70 b            2 skpd (  2.9%)    0.003 s ( 0.043 ms/b)
<pg|ff>:           60 b            0 skpd (  0.0%)    0.001 s ( 0.019 ms/b)
<pg|fg>:           30 b            0 skpd (  0.0%)    0.002 s ( 0.069 ms/b)
<pg|gg>:           10 b            0 skpd (  0.0%)    0.003 s ( 0.253 ms/b)
<dd|dd>:          406 b            1 skpd (  0.2%)    0.005 s ( 0.012 ms/b)
<dd|df>:          588 b            9 skpd (  1.5%)    0.003 s ( 0.005 ms/b)
<dd|dg>:          196 b            1 skpd (  0.5%)    0.005 s ( 0.024 ms/b)
<dd|ff>:          168 b            0 skpd (  0.0%)    0.003 s ( 0.015 ms/b)
<dd|fg>:           84 b            0 skpd (  0.0%)    0.004 s ( 0.042 ms/b)
<dd|gg>:           28 b            0 skpd (  0.0%)    0.005 s ( 0.174 ms/b)
<df|df>:          231 b           11 skpd (  4.8%)    0.003 s ( 0.015 ms/b)
<df|dg>:          147 b            6 skpd (  4.1%)    0.005 s ( 0.034 ms/b)
<df|ff>:          126 b            5 skpd (  4.0%)    0.003 s ( 0.026 ms/b)
<df|fg>:           63 b            3 skpd (  4.8%)    0.004 s ( 0.067 ms/b)
<df|gg>:           21 b            1 skpd (  4.8%)    0.005 s ( 0.265 ms/b)
<dg|dg>:           28 b            1 skpd (  3.6%)    0.002 s ( 0.092 ms/b)
<dg|ff>:           42 b            0 skpd (  0.0%)    0.001 s ( 0.033 ms/b)
<dg|fg>:           21 b            0 skpd (  0.0%)    0.002 s ( 0.114 ms/b)
<dg|gg>:            7 b            0 skpd (  0.0%)    0.003 s ( 0.409 ms/b)
<ff|ff>:           21 b            0 skpd (  0.0%)    0.001 s ( 0.051 ms/b)
<ff|fg>:           18 b            0 skpd (  0.0%)    0.002 s ( 0.106 ms/b)
<ff|gg>:            6 b            0 skpd (  0.0%)    0.003 s ( 0.487 ms/b)
<fg|fg>:            6 b            0 skpd (  0.0%)    0.001 s ( 0.236 ms/b)
<fg|gg>:            3 b            0 skpd (  0.0%)    0.002 s ( 0.667 ms/b)
<gg|gg>:            1 b            0 skpd (  0.0%)    0.001 s ( 1.133 ms/b)
Recanonicalizing the internal orbitals
Recanonicalizing the virtual orbitals
Time needed for Fock operator              ...            0.305 sec
Reference energy                           ...  -1778.856812681
Warning: for UHF the TrafoType has to be JK
Warning: for UHF the K(C)-option cannot be MO but must be AOX

-------------------------------
PARTIAL EXCHANGE TRANSFORMATION
-------------------------------

Transformation type                        ... two-operators
Generation of integrals (i,mue|j,nue)      ... ON
Generation of integrals (mue,kappa|nue,tau)... ON
Generation of integrals (i,mue|a,nue)      ... ON
Dimension of the basis                     ...  106
Number of internal alpha-MOs               ...   13 (  10-  22)
Number of internal beta-MOs                ...   10 (  10-  19)
Number of external alpha-MOs               ...   83 (  23- 105)
Number of external beta-MOs                ...   86 (  20- 105)
Pair cutoff                                ... 0.000e+00 Eh
Number of AO pairs in the trafo            ... 5671
Total Number of distinct AO pairs          ... 5671
Memory devoted for trafo                   ... 2500.0 MB 
Max. Number of MO pairs treated together   ... 29163      
Number Format for Storage                  ... Double (8 Byte)
Integral package used                      ... LIBINT

Starting integral evaluation:
    ... done with AO integral generation
Closing buffer AOK[aa] ( 0.00 GB; CompressionRatio= 0.99)
Closing buffer AOK[bb] ( 0.00 GB; CompressionRatio= 0.99)
Closing buffer AOK[ab] ( 0.00 GB; CompressionRatio= 0.99)
Closing buffer AOK[ba] ( 0.00 GB; CompressionRatio= 0.99)
Collecting buffer AOK 
Closing buffer IAAO1[aa] ( 0.00 GB; CompressionRatio= 1.00)
Closing buffer IAAO1[bb] ( 0.00 GB; CompressionRatio= 1.00)
Closing buffer IAAO1[ab] ( 0.00 GB; CompressionRatio= 1.00)
Closing buffer IAAO1[ba] ( 0.00 GB; CompressionRatio= 1.00)
Closing buffer IAAO2[aa] ( 0.00 GB; CompressionRatio= 1.00)
Closing buffer IAAO2[bb] ( 0.00 GB; CompressionRatio= 1.00)
Closing buffer IAAO2[ab] ( 0.00 GB; CompressionRatio= 1.00)
Closing buffer IAAO2[ba] ( 0.00 GB; CompressionRatio= 1.00)
Collecting buffer IAAO 
Closing buffer PRQS    ( 0.01 GB; CompressionRatio= 1.00)
Collecting buffer PRQS 
Number of alpha/alpha MO pairs in trafo    ...   91
Number of beta /beta  MO pairs in trafo    ...   55
Number of alpha/ beta MO pairs in trafo    ...  130
------------------------
SORTING OF (i,mue|j,nue)
------------------------

SORTING OF ALPHA/ALPHA PAIRS
IBATCH = 1 of  1
Closing buffer KAO[aa] ( 0.00 GB; CompressionRatio= 1.00)
Collecting buffer KAO 
SORTING OF BETA /BETA  PAIRS
IBATCH = 1 of  1
Closing buffer KAO[bb] ( 0.00 GB; CompressionRatio= 1.00)
Collecting buffer KAO 
SORTING OF ALPHA/BETA  PAIRS
IBATCH = 1 of  1
Closing buffer KAO[ab] ( 0.00 GB; CompressionRatio= 0.999866518354)
Collecting buffer KAO[ab] 
------------------------
SORTING OF (i,mue|a,nue)
------------------------

Number of alpha/alpha (i,a) pairs in trafo  ... 1079
Number of beta /beta  (i,a) pairs in trafo  ...  860
Number of alpha/ beta (i,a) pairs in trafo  ... 1118
Number of beta /alpha (i,a) pairs in trafo  ...  830
Setting up the alpha/alpha list             ... done
Setting up the beta /beta  list             ... done
Setting up the alpha/beta  list             ... done
Setting up the beta /alpha list             ... done
    ... Now sorting (i,mue|a,nue)integrals
    ... Integrals (i,b|a,c) will be made on the fly
SORTING OF ALPHA/ALPHA PAIRS
IBATCH = 1 of  1
Closing buffer IPAQ[aa]  0.00 GB; CompressionRatio= 1.00)
SORTING OF BETA /BETA  PAIRS
IBATCH = 1 of  1
Closing buffer IPAQ[bb]( 0.00 GB; CompressionRatio= 1.00)
SORTING OF ALPHA/BETA  PAIRS (NMatSort_ab=47)
IBATCH = 1 of  1
Closing buffer IPAQ[ab]( 0.00 GB; CompressionRatio= 1.00)
SORTING OF BETA/ALPHA  PAIRS
IBATCH = 1 of  1
Closing buffer IPAQ[ba]( 0.00 GB; CompressionRatio= 1.00)
N(AO-Batches) Done                         ...      8595 
N(AO-Batches) Skipped                      ...         0 
N(IJ)-pairs Skipped                        ...         0 
TOTAL TIME for half transformation         ...     1.504 sec
AO-integral generation                     ...     0.051 sec
Half transformation                        ...     0.016 sec
K-integral sorting                         ...     0.916 sec
<ss|**>: 
------------------------------
PARTIAL COULOMB TRANSFORMATION
------------------------------

Transformation type                        ... two-operators
Dimension of the basis                     ...  106
Number of internal alpha-MOs               ...   13 (10-22)
Number of internal beta-MOs                ...   10 (10-19)
Pair cutoff                                ... 0.000e+00 Eh
Number of AO pairs included in the trafo   ... 5671
Total Number of distinct AO pairs          ... 5671
Memory devoted for trafo                   ... 2500.0 MB 
Max. Number of MO pairs treated together   ... 57781      
Max. Number of MOs treated per batch       ...  545      
Number Format for Storage                  ... Double (8 Byte)
AO-integral source                         ... DIRECT
Integral package used                      ... LIBINT

Starting integral evaluation:
<sp|**>:        31744 b        0 skpd     0.009 s (  0.000 ms/b)
<sd|**>:        53760 b        0 skpd     0.018 s (  0.000 ms/b)
       37888 b        0 skpd     0.024 s (  0.001 ms/b)
<sf|**>:        15872 b        0 skpd     0.013 s (  0.001 ms/b)
<sg|**>:         5632 b        0 skpd     0.019 s (  0.003 ms/b)
<pp|**>:        27648 b        0 skpd     0.028 s (  0.001 ms/b)
<pd|**>:        35328 b        0 skpd     0.045 s (  0.001 ms/b)
<pf|**>:        15360 b        0 skpd     0.026 s (  0.002 ms/b)
<pg|**>:         5120 b        0 skpd     0.030 s (  0.006 ms/b)
<dd|**>:        14336 b        0 skpd     0.057 s (  0.004 ms/b)
<df|**>:        10752 b        0 skpd     0.024 s (  0.002 ms/b)
<dg|**>:         3584 b        0 skpd     0.038 s (  0.011 ms/b)
<ff|**>:         3072 b        0 skpd     0.017 s (  0.006 ms/b)
<fg|**>:         1536 b        0 skpd     0.025 s (  0.016 ms/b)
<gg|**>:          512 b        0 skpd     0.036 s (  0.071 ms/b)
Closing buffer AOJ[aa] ( 0.00 GB; CompressionRatio= 0.98)
Closing buffer AOJ[bb] ( 0.00 GB; CompressionRatio= 0.00)
Collecting buffer AOJ 
    ... done with AO integral generation
Number of Alpha-MO pairs included          ...   91
Number of Beta-MO pairs included           ...   55
    ... Now sorting integrals
SORTING ALPHA/ALPHA PAIRS
IBATCH = 1 of  1
Closing buffer JAO[aa] ( 0.00 GB; CompressionRatio= 1.00)
SORTING BETA/BETA PAIRS
IBATCH = 1 of  1
Closing buffer JAO[bb] ( 0.00 GB; CompressionRatio= 1.00)
Collecting buffer JAO 
TOTAL TIME for half transformation         ...     0.465 sec
AO-integral generation                     ...     0.407 sec
Half transformation                        ...     0.013 sec
J-integral sorting                         ...     0.032 sec

-------------------------- SECOND HALF TRANSFORMATION -------------------------
Formation of (ij|kl),(ij|ka), (ij|ab)      ... ok (     0.059 sec)
Formation of (ik|jl),(ik|ja), (ia|jb)      ... ok (     0.100 sec)


-----------------------
SPIN UNRESTRICTED GUESS
-----------------------

Entering MDCI_UHF_Guess, Tailored=0
Spin-components of the MP2 energy:
EMP2(aa)=     -0.159634372
EMP2(bb)=     -0.096181425
EMP2(ab)=     -0.528983480

Initial guess performed in     0.044 sec
E(0)                                       ...  -1778.856812681
E(MP2)                                     ...     -0.784799277
Initial E(tot)                             ...  -1779.641611958
<T|T>                                      ...      0.179627247
Number of pairs included                   ... 253

------------------------------------------------
                  UHF COUPLED CLUSTER ITERATIONS
------------------------------------------------

Number of amplitudes to be optimized       ...      1363951

Iter       E(tot)           E(Corr)          Delta-E          Residual     Time      <S|S>**1/2
  0  -1779.641611958     -0.784799277      0.000000000      0.033853981    1.40      0.000000105
                           *** Turning on DIIS ***
  1  -1779.598532228     -0.741719547      0.043079730      0.012720161    1.47      0.086710082
  2  -1779.623306382     -0.766493702     -0.024774154      0.016378069    1.50      0.102235638
  3  -1779.632174626     -0.775361945     -0.008868244      0.011425585    1.49      0.151448431
  4  -1779.638936856     -0.782124176     -0.006762230      0.010668666    1.49      0.193217732
  5  -1779.654094584     -0.797281904     -0.015157728      0.005074480    1.52      0.309101475
  6  -1779.659147477     -0.802334796     -0.005052893      0.003160973    1.54      0.361967701
  7  -1779.662974753     -0.806162073     -0.003827276      0.002112846    1.56      0.401222310
  8  -1779.664237575     -0.807424895     -0.001262822      0.001585486    1.54      0.414319084
  9  -1779.664688996     -0.807876315     -0.000451421      0.001095590    1.56      0.420300257
 10  -1779.665347557     -0.808534876     -0.000658561      0.000634678    1.53      0.425684327
 11  -1779.664780291     -0.807967611      0.000567265      0.000296304    1.49      0.422056654
 12  -1779.664924256     -0.808111575     -0.000143965      0.000199130    1.51      0.422794274
 13  -1779.664889609     -0.808076928      0.000034647      0.000160857    1.51      0.422333958
 14  -1779.664906087     -0.808093406     -0.000016478      0.000150551    1.48      0.422474464
 15  -1779.664929487     -0.808116807     -0.000023400      0.000097824    1.54      0.422592436
 16  -1779.664953268     -0.808140587     -0.000023781      0.000063510    1.49      0.422792435
 17  -1779.664951674     -0.808138994      0.000001593      0.000035233    1.52      0.422789307
 18  -1779.664943103     -0.808130423      0.000008571      0.000017275    1.53      0.422719636
 19  -1779.664938507     -0.808125827      0.000004596      0.000009106    1.53      0.422701161
 20  -1779.664942687     -0.808130007     -0.000004180      0.000006814    1.54      0.422742656
 21  -1779.664946534     -0.808133854     -0.000003847      0.000004207    1.49      0.422793881
 22  -1779.664949826     -0.808137146     -0.000003292      0.000002268    1.50      0.422822979
 23  -1779.664950477     -0.808137796     -0.000000651      0.000001407    1.52      0.422827911
 24  -1779.664950636     -0.808137955     -0.000000159      0.000000814    1.48      0.422828068
               --- The Coupled-Cluster iterations have converged ---

----------------------
COUPLED CLUSTER ENERGY
----------------------

E(0)                                       ...  -1778.856812681
E(CORR)                                    ...     -0.808137955
E(TOT)                                     ...  -1779.664950636
Singles norm <S|S>**1/2                    ...      0.422828068 ( 0.174794578, 0.248033491)  
T1 diagnostic                              ...      0.088165747                              

------------------
LARGEST AMPLITUDES
------------------
  18b-> 24b  -1b-> -1b       0.273008
  19b-> 25b  -1b-> -1b       0.273008
  22a-> 23a  -1a-> -1a       0.263968
  17b-> 21b  -1b-> -1b       0.222267
  18b-> 22b  -1b-> -1b       0.161202
  19b-> 23b  -1b-> -1b       0.161202
  18b-> 31b  -1b-> -1b       0.123265
  19b-> 32b  -1b-> -1b       0.123265
  17b-> 29b  -1b-> -1b       0.103314
  17b-> 30b  -1b-> -1b       0.077046
  19b-> 24b  18b-> 25b       0.063701
  19b-> 25b  18b-> 24b       0.063701
  17b-> 26b  -1b-> -1b       0.060493
  22a-> 23a  18b-> 24b       0.057365
  22a-> 23a  19b-> 25b       0.057365
  17b-> 35b  -1b-> -1b       0.054178

----------------------
UHF TRIPLES CORRECTION (Algorithm 1)
----------------------

Multiplier for the singles contribution    ...      1.000000000

SPIN-CASE Alpha-Alpha-Alpha:
10% done
20% done
30% done
40% done
50% done
60% done
70% done
80% done
90% done


SPIN-CASE Beta-Beta-Beta:
10% done
20% done
30% done
40% done
50% done
60% done
70% done
80% done
90% done


SPIN-CASE Alpha-Alpha-Beta:
10% done
20% done
30% done
40% done
50% done
60% done
70% done
80% done
90% done


SPIN-CASE Beta-Beta-Alpha:
10% done
20% done
30% done
40% done
50% done
60% done
70% done
80% done
90% done


Triples Correction (T)                     ...     -0.044814866
    alpha-alpha-alpha ... -0.001150700 (  2.6%)
    alpha-alpha-beta  ... -0.020320983 ( 45.3%)
    alpha-beta -beta  ... -0.021221891 ( 47.4%)
    beta -beta -beta  ... -0.002121292 (  4.7%)
Scaling of triples based on CCSD energies (Peterson et al. Molecular Physics 113, 1551 (2015))
E(T*) = f*E(T) where f = E(F12-CCSD)/E(CCSD) 
f = CCSD (with F12)/ CCSD (without F12)    ...      1.000000000
Scaled triples correction (T)              ...     -0.044814866

Final correlation energy                   ...     -0.852952821
E(CCSD)                                    ...  -1779.664950636
E(CCSD(T))                                 ...  -1779.709765502



        !!!!!!!!!!!!!!!!!!!!!!!!!!!!!!!!!!!!!!!!!!!!!!!!!!!!!!!!!!!!!!!!!!!!!!!!!! 
        !  Warning: Densities are linearized densities                           !
        !!!!!!!!!!!!!!!!!!!!!!!!!!!!!!!!!!!!!!!!!!!!!!!!!!!!!!!!!!!!!!!!!!!!!!!!!! 

NORM  =      1.693632482 sqrt=     1.301396359
W(HF) =      0.590446871
------------------------------------------------------------------------------
                           ORCA POPULATION ANALYSIS
------------------------------------------------------------------------------
Input electron density              ... 42_CoS.mdcip
Input spin density                  ... 42_CoS.mdcir
BaseName (.gbw .S,...)              ... 42_CoS

                    ********************************
                    * MULLIKEN POPULATION ANALYSIS *
                    ********************************

------------------------------------------
MULLIKEN ATOMIC CHARGES AND SPIN DENSITIES
------------------------------------------
   0 Co:    0.238324    2.232660
   1 S :   -0.238324    0.767340
Sum of atomic charges       :   -0.0000000
Sum of atomic spin densities:    3.0000000

---------------------------------------------------
MULLIKEN REDUCED ORBITAL CHARGES AND SPIN DENSITIES
---------------------------------------------------
CHARGE
  0 Cos       :     6.483765  s :     6.483765
      pz      :     4.039998  p :    12.273419
      px      :     4.116710
      py      :     4.116710
      dz2     :     1.240400  d :     7.966163
      dxz     :     1.383608
      dyz     :     1.383608
      dx2y2   :     1.979274
      dxy     :     1.979274
      f0      :     0.004959  f :     0.034747
      f+1     :     0.004854
      f-1     :     0.004854
      f+2     :     0.004743
      f-2     :     0.004743
      f+3     :     0.005297
      f-3     :     0.005297
      g0      :     0.000403  g :     0.003581
      g+1     :     0.000395
      g-1     :     0.000395
      g+2     :     0.000385
      g-2     :     0.000385
      g+3     :     0.000391
      g-3     :     0.000391
      g+4     :     0.000417
      g-4     :     0.000417
  1 S s       :     5.871081  s :     5.871081
      pz      :     3.286546  p :    10.192917
      px      :     3.453185
      py      :     3.453185
      dz2     :     0.035103  d :     0.153561
      dxz     :     0.037059
      dyz     :     0.037059
      dx2y2   :     0.022169
      dxy     :     0.022169
      f0      :     0.004909  f :     0.020765
      f+1     :     0.004415
      f-1     :     0.004415
      f+2     :     0.002099
      f-2     :     0.002099
      f+3     :     0.001413
      f-3     :     0.001413

SPIN
  0 Cos       :     0.283103  s :     0.283103
      pz      :    -0.003149  p :     0.112977
      px      :     0.058063
      py      :     0.058063
      dz2     :     0.622256  d :     1.827883
      dxz     :     0.592332
      dyz     :     0.592332
      dx2y2   :     0.010481
      dxy     :     0.010481
      f0      :     0.001769  f :     0.007737
      f+1     :     0.001736
      f-1     :     0.001736
      f+2     :     0.001157
      f-2     :     0.001157
      f+3     :     0.000090
      f-3     :     0.000090
      g0      :     0.000163  g :     0.000960
      g+1     :     0.000152
      g-1     :     0.000152
      g+2     :     0.000134
      g-2     :     0.000134
      g+3     :     0.000088
      g-3     :     0.000088
      g+4     :     0.000024
      g-4     :     0.000024
  1 S s       :     0.007609  s :     0.007609
      pz      :     0.088966  p :     0.767200
      px      :     0.339117
      py      :     0.339117
      dz2     :    -0.002111  d :    -0.006587
      dxz     :    -0.004351
      dyz     :    -0.004351
      dx2y2   :     0.002113
      dxy     :     0.002113
      f0      :     0.000004  f :    -0.000883
      f+1     :    -0.000599
      f-1     :    -0.000599
      f+2     :    -0.000033
      f-2     :    -0.000033
      f+3     :     0.000189
      f-3     :     0.000189


                     *******************************
                     * LOEWDIN POPULATION ANALYSIS *
                     *******************************

-----------------------------------------
LOEWDIN ATOMIC CHARGES AND SPIN DENSITIES
-----------------------------------------
   0 Co:   -0.255149    2.247832
   1 S :    0.255149    0.752168

--------------------------------------------------
LOEWDIN REDUCED ORBITAL CHARGES AND SPIN DENSITIES
--------------------------------------------------
CHARGE
  0 Cos       :     6.504394  s :     6.504394
      pz      :     4.197688  p :    12.485838
      px      :     4.144075
      py      :     4.144075
      dz2     :     1.379316  d :     8.223240
      dxz     :     1.443895
      dyz     :     1.443895
      dx2y2   :     1.978067
      dxy     :     1.978067
      f0      :     0.007037  f :     0.038090
      f+1     :     0.005478
      f-1     :     0.005478
      f+2     :     0.004752
      f-2     :     0.004752
      f+3     :     0.005297
      f-3     :     0.005297
      g0      :     0.000411  g :     0.003587
      g+1     :     0.000395
      g-1     :     0.000395
      g+2     :     0.000385
      g-2     :     0.000385
      g+3     :     0.000391
      g-3     :     0.000391
      g+4     :     0.000417
      g-4     :     0.000417
  1 S s       :     5.498545  s :     5.498545
      pz      :     3.313888  p :    10.032215
      px      :     3.359163
      py      :     3.359163
      dz2     :     0.055152  d :     0.181719
      dxz     :     0.040439
      dyz     :     0.040439
      dx2y2   :     0.022845
      dxy     :     0.022845
      f0      :     0.010735  f :     0.032373
      f+1     :     0.006784
      f-1     :     0.006784
      f+2     :     0.002621
      f-2     :     0.002621
      f+3     :     0.001413
      f-3     :     0.001413

SPIN
  0 Cos       :     0.265047  s :     0.265047
      pz      :    -0.005685  p :     0.135114
      px      :     0.070399
      py      :     0.070399
      dz2     :     0.619941  d :     1.838755
      dxz     :     0.598758
      dyz     :     0.598758
      dx2y2   :     0.010649
      dxy     :     0.010649
      f0      :     0.001575  f :     0.007963
      f+1     :     0.001945
      f-1     :     0.001945
      f+2     :     0.001158
      f-2     :     0.001158
      f+3     :     0.000090
      f-3     :     0.000090
      g0      :     0.000160  g :     0.000954
      g+1     :     0.000151
      g-1     :     0.000151
      g+2     :     0.000134
      g-2     :     0.000134
      g+3     :     0.000088
      g-3     :     0.000088
      g+4     :     0.000024
      g-4     :     0.000024
  1 S s       :     0.006938  s :     0.006938
      pz      :     0.110755  p :     0.738832
      px      :     0.314038
      py      :     0.314038
      dz2     :    -0.001433  d :     0.002988
      dxz     :     0.000231
      dyz     :     0.000231
      dx2y2   :     0.001980
      dxy     :     0.001980
      f0      :     0.001312  f :     0.003411
      f+1     :     0.000929
      f-1     :     0.000929
      f+2     :    -0.000068
      f-2     :    -0.000068
      f+3     :     0.000189
      f-3     :     0.000189


                      *****************************
                      * MAYER POPULATION ANALYSIS *
                      *****************************

  NA   - Mulliken gross atomic population
  ZA   - Total nuclear charge
  QA   - Mulliken gross atomic charge
  VA   - Mayer's total valence
  BVA  - Mayer's bonded valence
  FA   - Mayer's free valence

  ATOM       NA         ZA         QA         VA         BVA        FA
  0 Co    26.7617    27.0000     0.2383     4.5403     2.2016     2.3387
  1 S     16.2383    16.0000    -0.2383     3.1128     2.2016     0.9113

  Mayer bond orders larger than 0.100000
B(  0-Co,  1-S ) :   2.2016 



------------------------------------------------------------------------------- 
                                     TIMINGS                                   
------------------------------------------------------------------------------- 


Total execution time                   ...       44.181 sec

Fock Matrix Formation                  ...        0.305 sec (  0.7%)
Initial Guess                          ...        0.044 sec (  0.1%)
DIIS Solver                            ...        3.253 sec (  7.4%)
State Vector Update                    ...        0.134 sec (  0.3%)
Sigma-vector construction              ...       34.350 sec ( 77.7%)
  <0|H|D>                              ...        0.007 sec (  0.0% of sigma)
  <D|H|D>(0-ext Fock)                  ...        0.061 sec (  0.2% of sigma)
  <D|H|D>(0-ext)                       ...        0.322 sec (  0.9% of sigma)
  <D|H|D>(2-ext Fock)                  ...        0.016 sec (  0.0% of sigma)
  <D|H|D>(2-ext)                       ...        0.889 sec (  2.6% of sigma)
  <D|H|D>(4-ext)                       ...       18.032 sec ( 52.5% of sigma)
  <S|H|0>                              ...        1.790 sec (  5.2% of sigma)
  <S|H|S>                              ...        0.004 sec (  0.0% of sigma)
  <S|H|D>(1-ext)                       ...        0.016 sec (  0.0% of sigma)
  <D|H|S>(1-ext)                       ...        0.227 sec (  0.7% of sigma)
  Fock-dressing                        ...        5.076 sec ( 14.8% of sigma)
  (ik|jl)-dressing                     ...        0.443 sec (  1.3% of sigma)
  (ij|ab),(ia|jb)-dressing             ...        5.997 sec ( 17.5% of sigma)
  Pair energies                        ...        0.010 sec (  0.0% of sigma)
Total Time for computing (T)           ...        3.340 sec (  7.6% of ALL)
  I/O of integral and amplitudes       ...        0.663 sec ( 19.9% of (T))
  External N**7 contributions          ...        0.899 sec ( 26.9% of (T))
  Internal N**7 contributions          ...        0.473 sec ( 14.2% of (T))
  N**6 triples energy contributions    ...        1.261 sec ( 37.8% of (T))

----- Orbital basis set information -----
Your calculation utilizes the basis: def2-QZVPP
   F. Weigend and R. Ahlrichs, Phys. Chem. Chem. Phys. 7, 3297 (2005).

----- AuxJ basis set information -----
Your calculation utilizes the auxiliary basis: def2/J
   F. Weigend, Phys. Chem. Chem. Phys. 8, 1057 (2006).

----- AuxC basis set information -----
Your calculation utilizes the auxiliary basis: def2-QZVPP/C
  H-La, Hf-Rn : A. Hellweg, C. Hattig, S. Hofener and W. Klopper, Theor. Chem. Acc. 117, 587 (2007).
        Ce-Lu : J. Chmela and M. E. Harding, Mol. Phys. (2018).

----- AuxJK basis set information -----
Your calculation utilizes the auxiliary basis: def2/JK
   H-Ba, Hf-Rn: F. Weigend, J. Comput. Chem. 29, 167 (2008).

All done

                     -----------------------------------------
                     Extrapolated Energy 2 Basis=  def2-QZVPP
                     -----------------------------------------

---------------------------------
CARTESIAN COORDINATES (ANGSTROEM)
---------------------------------
  Co     0.000000    0.000000    0.009201
  S      0.000000    0.000000    1.990799

----------------------------
CARTESIAN COORDINATES (A.U.)
----------------------------
  NO LB      ZA    FRAG     MASS         X           Y           Z
   0 Co   27.0000    0    58.930    0.000000    0.000000    0.017388
   1 S    16.0000    0    32.060    0.000000    0.000000    3.762064

--------------------------------
INTERNAL COORDINATES (ANGSTROEM)
--------------------------------
 Co     0   0   0     0.000000000000     0.00000000     0.00000000
 S      1   0   0     1.981597406915     0.00000000     0.00000000

---------------------------
INTERNAL COORDINATES (A.U.)
---------------------------
 Co     0   0   0     0.000000000000     0.00000000     0.00000000
 S      1   0   0     3.744676406757     0.00000000     0.00000000

---------------------
BASIS SET INFORMATION
---------------------
There are 2 groups of distinct atoms

 Group   1 Type Co  : 24s18p10d4f2g contracted to 11s6p5d4f2g pattern {114111111111/951111/61111/1111/11}
 Group   2 Type S   : 20s14p4d2f1g contracted to 9s6p4d2f1g pattern {1031111111/821111/1111/11/1}

Atom   0Co   basis set group =>   1
Atom   1S    basis set group =>   2
---------------------------------
AUXILIARY/J BASIS SET INFORMATION
---------------------------------
There are 2 groups of distinct atoms

 Group   1 Type Co  : 19s5p5d3f3g contracted to 8s5p5d2f3g pattern {121111111/11111/11111/21/111}
[...]
 16  -1779.745747510     -0.846748294     -0.000024367      0.000062336    6.02      0.414841164
 17  -1779.745750047     -0.846750831     -0.000002536      0.000030927    5.96      0.414854100
 18  -1779.745741278     -0.846742062      0.000008768      0.000013303    6.00      0.414788374
 19  -1779.745735395     -0.846736179      0.000005883      0.000009572    6.07      0.414761484
 20  -1779.745738672     -0.846739456     -0.000003277      0.000007402    6.04      0.414790704
 21  -1779.745741099     -0.846741883     -0.000002427      0.000004394    6.04      0.414831121
 22  -1779.745745280     -0.846746064     -0.000004181      0.000002100    5.88      0.414868665
 23  -1779.745745571     -0.846746355     -0.000000291      0.000001327    5.83      0.414870553
 24  -1779.745746112     -0.846746897     -0.000000541      0.000000654    5.87      0.414874706
               --- The Coupled-Cluster iterations have converged ---

----------------------
COUPLED CLUSTER ENERGY
----------------------

E(0)                                       ...  -1778.898999216
E(CORR)                                    ...     -0.846746897
E(TOT)                                     ...  -1779.745746112
Singles norm <S|S>**1/2                    ...      0.414874706 ( 0.168554450, 0.246320256)  
T1 diagnostic                              ...      0.086507356                              

------------------
LARGEST AMPLITUDES
------------------
  22a-> 23a  -1a-> -1a       0.247121
  18b-> 28b  -1b-> -1b       0.234228
  19b-> 29b  -1b-> -1b       0.234228
  18b-> 26b  -1b-> -1b       0.176927
  19b-> 27b  -1b-> -1b       0.176927
  17b-> 25b  -1b-> -1b       0.162647
  18b-> 33b  -1b-> -1b       0.118491
  19b-> 34b  -1b-> -1b       0.118491
  17b-> 23b  -1b-> -1b       0.104400
  17b-> 24b  -1b-> -1b       0.102760
  17b-> 38b  -1b-> -1b       0.092504
  18b-> 36b  -1b-> -1b       0.084702
  19b-> 37b  -1b-> -1b       0.084702
  17b-> 32b  -1b-> -1b       0.084149
  17b-> 35b  -1b-> -1b       0.074271
  18b-> 21b  -1b-> -1b       0.070484

----------------------
UHF TRIPLES CORRECTION (Algorithm 1)
----------------------

Multiplier for the singles contribution    ...      1.000000000

SPIN-CASE Alpha-Alpha-Alpha:
10% done
20% done
30% done
40% done
50% done
60% done
70% done
80% done
90% done


SPIN-CASE Beta-Beta-Beta:
10% done
20% done
30% done
40% done
50% done
60% done
70% done
80% done
90% done


SPIN-CASE Alpha-Alpha-Beta:
10% done
20% done
30% done
40% done
50% done
60% done
70% done
80% done
90% done


SPIN-CASE Beta-Beta-Alpha:
10% done
20% done
30% done
40% done
50% done
60% done
70% done
80% done
90% done


Triples Correction (T)                     ...     -0.050618467
    alpha-alpha-alpha ... -0.001540545 (  3.0%)
    alpha-alpha-beta  ... -0.023200069 ( 45.8%)
    alpha-beta -beta  ... -0.023621807 ( 46.7%)
    beta -beta -beta  ... -0.002256047 (  4.5%)
Scaling of triples based on CCSD energies (Peterson et al. Molecular Physics 113, 1551 (2015))
E(T*) = f*E(T) where f = E(F12-CCSD)/E(CCSD) 
f = CCSD (with F12)/ CCSD (without F12)    ...      1.000000000
Scaled triples correction (T)              ...     -0.050618467

Final correlation energy                   ...     -0.897365364
E(CCSD)                                    ...  -1779.745746112
E(CCSD(T))                                 ...  -1779.796364579



        !!!!!!!!!!!!!!!!!!!!!!!!!!!!!!!!!!!!!!!!!!!!!!!!!!!!!!!!!!!!!!!!!!!!!!!!!! 
        !  Warning: Densities are linearized densities                           !
        !!!!!!!!!!!!!!!!!!!!!!!!!!!!!!!!!!!!!!!!!!!!!!!!!!!!!!!!!!!!!!!!!!!!!!!!!! 

NORM  =      1.684132238 sqrt=     1.297741206
W(HF) =      0.593777601
------------------------------------------------------------------------------
                           ORCA POPULATION ANALYSIS
------------------------------------------------------------------------------
Input electron density              ... 42_CoS.mdcip
Input spin density                  ... 42_CoS.mdcir
BaseName (.gbw .S,...)              ... 42_CoS

                    ********************************
                    * MULLIKEN POPULATION ANALYSIS *
                    ********************************

------------------------------------------
MULLIKEN ATOMIC CHARGES AND SPIN DENSITIES
------------------------------------------
   0 Co:    0.203841    2.271159
   1 S :   -0.203841    0.728841
Sum of atomic charges       :   -0.0000000
Sum of atomic spin densities:    3.0000000

---------------------------------------------------
MULLIKEN REDUCED ORBITAL CHARGES AND SPIN DENSITIES
---------------------------------------------------
CHARGE
  0 Cos       :     6.511847  s :     6.511847
      pz      :     4.055614  p :    12.290625
      px      :     4.117505
      py      :     4.117505
      dz2     :     1.239840  d :     7.938477
      dxz     :     1.372957
      dyz     :     1.372957
      dx2y2   :     1.976362
      dxy     :     1.976362
      f0      :     0.008765  f :     0.049770
      f+1     :     0.007981
      f-1     :     0.007981
      f+2     :     0.006160
      f-2     :     0.006160
      f+3     :     0.006362
      f-3     :     0.006362
      g0      :     0.000680  g :     0.005439
      g+1     :     0.000640
      g-1     :     0.000640
      g+2     :     0.000562
      g-2     :     0.000562
      g+3     :     0.000563
      g-3     :     0.000563
      g+4     :     0.000614
      g-4     :     0.000614
  1 S s       :     5.852785  s :     5.852785
      pz      :     3.257395  p :    10.153989
      px      :     3.448297
      py      :     3.448297
      dz2     :     0.031912  d :     0.162883
      dxz     :     0.042161
      dyz     :     0.042161
      dx2y2   :     0.023324
      dxy     :     0.023324
      f0      :     0.004467  f :     0.029806
      f+1     :     0.007350
      f-1     :     0.007350
      f+2     :     0.003524
      f-2     :     0.003524
      f+3     :     0.001796
      f-3     :     0.001796
      g0      :     0.000867  g :     0.004378
      g+1     :     0.000861
      g-1     :     0.000861
      g+2     :     0.000459
      g-2     :     0.000459
      g+3     :     0.000230
      g-3     :     0.000230
      g+4     :     0.000205
      g-4     :     0.000205

SPIN
  0 Cos       :     0.294575  s :     0.294575
      pz      :    -0.001969  p :     0.124186
      px      :     0.063078
      py      :     0.063078
      dz2     :     0.620548  d :     1.837567
      dxz     :     0.598485
      dyz     :     0.598485
      dx2y2   :     0.010024
      dxy     :     0.010024
      f0      :     0.001523  f :     0.013614
      f+1     :     0.005021
      f-1     :     0.005021
      f+2     :     0.001036
      f-2     :     0.001036
      f+3     :    -0.000012
      f-3     :    -0.000012
      g0      :     0.000204  g :     0.001217
      g+1     :     0.000177
      g-1     :     0.000177
      g+2     :     0.000173
      g-2     :     0.000173
      g+3     :     0.000117
      g-3     :     0.000117
      g+4     :     0.000039
      g-4     :     0.000039
  1 S s       :     0.005813  s :     0.005813
      pz      :     0.075895  p :     0.726642
      px      :     0.325374
      py      :     0.325374
      dz2     :     0.000156  d :    -0.003618
      dxz     :    -0.003931
      dyz     :    -0.003931
      dx2y2   :     0.002044
      dxy     :     0.002044
      f0      :     0.001015  f :    -0.000147
      f+1     :    -0.000679
      f-1     :    -0.000679
      f+2     :    -0.000126
      f-2     :    -0.000126
      f+3     :     0.000224
      f-3     :     0.000224
      g0      :     0.000207  g :     0.000152
      g+1     :     0.000003
      g-1     :     0.000003
      g+2     :    -0.000031
      g-2     :    -0.000031
      g+3     :    -0.000000
      g-3     :    -0.000000
      g+4     :     0.000001
      g-4     :     0.000001


                     *******************************
                     * LOEWDIN POPULATION ANALYSIS *
                     *******************************

-----------------------------------------
LOEWDIN ATOMIC CHARGES AND SPIN DENSITIES
-----------------------------------------
   0 Co:   -0.524149    2.304115
   1 S :    0.524149    0.695885

--------------------------------------------------
LOEWDIN REDUCED ORBITAL CHARGES AND SPIN DENSITIES
--------------------------------------------------
CHARGE
  0 Cos       :     6.477413  s :     6.477413
      pz      :     4.238736  p :    12.572901
      px      :     4.167083
      py      :     4.167083
      dz2     :     1.407577  d :     8.252276
      dxz     :     1.450285
      dyz     :     1.450285
      dx2y2   :     1.972064
      dxy     :     1.972064
      f0      :     0.068030  f :     0.215714
      f+1     :     0.060711
      f-1     :     0.060711
      f+2     :     0.006765
      f-2     :     0.006765
      f+3     :     0.006366
      f-3     :     0.006366
      g0      :     0.000926  g :     0.005845
      g+1     :     0.000724
      g-1     :     0.000724
      g+2     :     0.000558
      g-2     :     0.000558
      g+3     :     0.000563
      g-3     :     0.000563
      g+4     :     0.000614
      g-4     :     0.000614
  1 S s       :     5.370999  s :     5.370999
      pz      :     3.292066  p :     9.811520
      px      :     3.259727
      py      :     3.259727
      dz2     :     0.068019  d :     0.201112
      dxz     :     0.042366
      dyz     :     0.042366
      dx2y2   :     0.024181
      dxy     :     0.024181
      f0      :     0.034564  f :     0.078795
      f+1     :     0.014371
      f-1     :     0.014371
      f+2     :     0.005953
      f-2     :     0.005953
      f+3     :     0.001792
      f-3     :     0.001792
      g0      :     0.005843  g :     0.013425
      g+1     :     0.002486
      g-1     :     0.002486
      g+2     :     0.000870
      g-2     :     0.000870
      g+3     :     0.000230
      g-3     :     0.000230
      g+4     :     0.000205
      g-4     :     0.000205

SPIN
  0 Cos       :     0.254936  s :     0.254936
      pz      :    -0.002758  p :     0.165836
      px      :     0.084297
      py      :     0.084297
      dz2     :     0.621861  d :     1.842095
      dxz     :     0.599613
      dyz     :     0.599613
      dx2y2   :     0.010504
      dxy     :     0.010504
      f0      :     0.001288  f :     0.040037
      f+1     :     0.018321
      f-1     :     0.018321
      f+2     :     0.001064
      f-2     :     0.001064
      f+3     :    -0.000011
      f-3     :    -0.000011
      g0      :     0.000174  g :     0.001211
      g+1     :     0.000190
      g-1     :     0.000190
      g+2     :     0.000171
      g-2     :     0.000171
      g+3     :     0.000117
      g-3     :     0.000117
      g+4     :     0.000039
      g-4     :     0.000039
  1 S s       :     0.007760  s :     0.007760
      pz      :     0.112498  p :     0.667889
      px      :     0.277696
      py      :     0.277696
      dz2     :    -0.000591  d :     0.009472
      dxz     :     0.003288
      dyz     :     0.003288
      dx2y2   :     0.001743
      dxy     :     0.001743
      f0      :     0.001669  f :     0.008085
      f+1     :     0.003297
      f-1     :     0.003297
      f+2     :    -0.000312
      f-2     :    -0.000312
      f+3     :     0.000223
      f-3     :     0.000223
      g0      :     0.001129  g :     0.002679
      g+1     :     0.000824
      g-1     :     0.000824
      g+2     :    -0.000049
      g-2     :    -0.000049
      g+3     :    -0.000000
      g-3     :    -0.000000
      g+4     :     0.000001
      g-4     :     0.000001


                      *****************************
                      * MAYER POPULATION ANALYSIS *
                      *****************************

  NA   - Mulliken gross atomic population
  ZA   - Total nuclear charge
  QA   - Mulliken gross atomic charge
  VA   - Mayer's total valence
  BVA  - Mayer's bonded valence
  FA   - Mayer's free valence

  ATOM       NA         ZA         QA         VA         BVA        FA
  0 Co    26.7962    27.0000     0.2038     4.7053     2.2663     2.4390
  1 S     16.2038    16.0000    -0.2038     3.1883     2.2663     0.9220

  Mayer bond orders larger than 0.100000
B(  0-Co,  1-S ) :   2.2663 



------------------------------------------------------------------------------- 
                                     TIMINGS                                   
------------------------------------------------------------------------------- 


Total execution time                   ...      187.352 sec

Fock Matrix Formation                  ...        1.311 sec (  0.7%)
Initial Guess                          ...        0.126 sec (  0.1%)
DIIS Solver                            ...       10.192 sec (  5.4%)
State Vector Update                    ...        0.418 sec (  0.2%)
Sigma-vector construction              ...      137.753 sec ( 73.5%)
  <0|H|D>                              ...        0.022 sec (  0.0% of sigma)
  <D|H|D>(0-ext Fock)                  ...        0.217 sec (  0.2% of sigma)
  <D|H|D>(0-ext)                       ...        1.165 sec (  0.8% of sigma)
  <D|H|D>(2-ext Fock)                  ...        0.068 sec (  0.0% of sigma)
  <D|H|D>(2-ext)                       ...        3.765 sec (  2.7% of sigma)
  <D|H|D>(4-ext)                       ...       72.682 sec ( 52.8% of sigma)
  <S|H|0>                              ...        9.999 sec (  7.3% of sigma)
  <S|H|S>                              ...        0.008 sec (  0.0% of sigma)
  <S|H|D>(1-ext)                       ...        0.047 sec (  0.0% of sigma)
  <D|H|S>(1-ext)                       ...        0.690 sec (  0.5% of sigma)
  Fock-dressing                        ...       21.855 sec ( 15.9% of sigma)
  (ik|jl)-dressing                     ...        1.340 sec (  1.0% of sigma)
  (ij|ab),(ia|jb)-dressing             ...       21.594 sec ( 15.7% of sigma)
  Pair energies                        ...        0.027 sec (  0.0% of sigma)
Total Time for computing (T)           ...       25.047 sec ( 13.4% of ALL)
  I/O of integral and amplitudes       ...        4.067 sec ( 16.2% of (T))
  External N**7 contributions          ...        8.854 sec ( 35.4% of (T))
  Internal N**7 contributions          ...        2.698 sec ( 10.8% of (T))
  N**6 triples energy contributions    ...        9.173 sec ( 36.6% of (T))


-------------------
EXTRAPOLATED ENERGY
-------------------


-----------------------------------------------------------------
                      EP1 - MDCI extrapolation:
-----------------------------------------------------------------
NOTE: We use as reference SCF energy, for the extrapolation, the one from the MDCI module and not the one 
from the SCF calculation. In case the first step is a DFT calculation these two might be different.

NOTE: For the SCF part we extrapolate based on the scheme proposed in J. Chem. Phys. 2008, 129, 184116
using the exponents from J. Chem. Theory Comput., 7, 33-43 (2011)

NOTE: For the correlation part we extrapolate based on the scheme proposed in J. Chem. Phys. 1997, 106, 9639
using the exponents from J. Chem. Theory Comput., 7, 33-43 (2011)


Alpha(3/4)     :  7.880 (SCF Extrapolation)
Beta(3/4)      :  2.970 (correlation extrapolation)

SCF energy with basis def2-TZVPP:                     -1778.856812681
SCF energy with basis def2-QZVPP:                     -1778.898999216
Extrapolated CBS SCF energy (3/4) :                   -1778.904809934 (-0.005810718) 

MDCI energy with basis def2-TZVPP:                       -0.852952821
MDCI energy with basis def2-QZVPP:                       -0.897365364
Extrapolated CBS correlation energy (3/4) :              -0.930263519 (-0.032898155)

Estimated CBS total energy (3/4) :                    -1779.835073453



-------------------------   --------------------
FINAL SINGLE POINT ENERGY     -1779.835073452558
-------------------------   --------------------


                            ***************************************
                            *     ORCA property calculations      *
                            ***************************************

                                    ---------------------
                                    Active property flags
                                    ---------------------
   (+) Dipole Moment


------------------------------------------------------------------------------
                       ORCA ELECTRIC PROPERTIES CALCULATION
------------------------------------------------------------------------------

Dipole Moment Calculation                       ... on
Quadrupole Moment Calculation                   ... off
Polarizability Calculation                      ... off
GBWName                                         ... 42_CoS.gbw
Electron density file                           ... 42_CoS.scfp
The origin for moment calculation is the CENTER OF MASS  = ( 0.000000,  0.000000  1.336811)

-------------
DIPOLE MOMENT
-------------
                                X             Y             Z
Electronic contribution:      0.00000      -0.00000      -5.47684
Nuclear contribution   :      0.00000       0.00000       3.17962
                        -----------------------------------------
Total Dipole Moment    :      0.00000      -0.00000      -2.29722
                        -----------------------------------------
Magnitude (a.u.)       :      2.29722
Magnitude (Debye)      :      5.83907



--------------------
Rotational spectrum 
--------------------
 
Rotational constants in cm-1:     0.000000     0.206757     0.206757 
Rotational constants in MHz :     0.000000  6198.412278  6198.412278 

 Dipole components along the rotational axes: 
x,y,z [a.u.] :    -2.297220    -0.000000     0.000000 
x,y,z [Debye]:    -5.839070    -0.000000     0.000000 

 

                           *** MDCI DENSITY ***

------------------------------------------------------------------------------
                       ORCA ELECTRIC PROPERTIES CALCULATION
------------------------------------------------------------------------------

Dipole Moment Calculation                       ... on
Quadrupole Moment Calculation                   ... off
Polarizability Calculation                      ... off
GBWName                                         ... 42_CoS.gbw
Electron density file                           ... 42_CoS.mdcip
The origin for moment calculation is the CENTER OF MASS  = ( 0.000000,  0.000000  1.336811)

-------------
DIPOLE MOMENT
-------------
                                X             Y             Z
Electronic contribution:     -0.00000       0.00000      -4.56879
Nuclear contribution   :      0.00000       0.00000       3.17962
                        -----------------------------------------
Total Dipole Moment    :     -0.00000       0.00000      -1.38917
                        -----------------------------------------
Magnitude (a.u.)       :      1.38917
Magnitude (Debye)      :      3.53098



--------------------
Rotational spectrum 
--------------------
 
Rotational constants in cm-1:     0.000000     0.206757     0.206757 
Rotational constants in MHz :     0.000000  6198.412278  6198.412278 

 Dipole components along the rotational axes: 
x,y,z [a.u.] :    -1.389167     0.000000    -0.000000 
x,y,z [Debye]:    -3.530983     0.000000    -0.000000 

 

Timings for individual modules:

Sum of individual times         ...      256.789 sec (=   4.280 min)
GTO integral calculation        ...        1.560 sec (=   0.026 min)   0.6 %
SCF iterations                  ...       21.436 sec (=   0.357 min)   8.3 %
MDCI module                     ...      233.793 sec (=   3.897 min)  91.0 %
                             ****ORCA TERMINATED NORMALLY****
TOTAL RUN TIME: 0 days 0 hours 4 minutes 17 seconds 734 msec
