
                                 *****************
                                 * O   R   C   A *
                                 *****************

           --- An Ab Initio, DFT and Semiempirical electronic structure package ---

                  #######################################################
                  #                        -***-                        #
                  #          Department of theory and spectroscopy      #
                  #               Directorship: Frank Neese             #
                  #        Max Planck Institute fuer Kohlenforschung    #
                  #                Kaiser Wilhelm Platz 1               #
                  #                 D-45470 Muelheim/Ruhr               #
                  #                      Germany                        #
                  #                                                     #
                  #                  All rights reserved                #
                  #                        -***-                        #
                  #######################################################


                         Program Version 4.2.0 -  RELEASE  -


 With contributions from (in alphabetic order):
   Daniel Aravena         : Magnetic Suceptibility
   Michael Atanasov       : Ab Initio Ligand Field Theory (pilot matlab implementation)
   Alexander A. Auer      : GIAO ZORA, VPT2
   Ute Becker             : Parallelization
   Giovanni Bistoni       : ED, misc. LED, open-shell LED, HFLED
   Martin Brehm           : Molecular dynamics
   Dmytro Bykov           : SCF Hessian
   Vijay G. Chilkuri      : MRCI spin determinant printing, contributions to CSF-ICE
   Dipayan Datta          : RHF DLPNO-CCSD density
   Achintya Kumar Dutta   : EOM-CC, STEOM-CC
   Dmitry Ganyushin       : Spin-Orbit,Spin-Spin,Magnetic field MRCI
   Miquel Garcia          : C-PCM Hessian, Gaussian charge scheme
   Yang Guo               : DLPNO-NEVPT2, CIM, IAO-localization
   Andreas Hansen         : Spin unrestricted coupled pair/coupled cluster methods
   Benjamin Helmich-Paris : CASSCF linear response (MC-RPA)
   Lee Huntington         : MR-EOM, pCC
   Robert Izsak           : Overlap fitted RIJCOSX, COSX-SCS-MP3, EOM
   Christian Kollmar      : KDIIS, OOCD, Brueckner-CCSD(T), CCSD density
   Simone Kossmann        : Meta GGA functionals, TD-DFT gradient, OOMP2, MP2 Hessian
   Martin Krupicka        : AUTO-CI
   Lucas Lang             : DCDCAS
   Dagmar Lenk            : GEPOL surface, SMD
   Dimitrios Liakos       : Extrapolation schemes; Compound Job, initial MDCI parallelization
   Dimitrios Manganas     : Further ROCIS development; embedding schemes
   Dimitrios Pantazis     : SARC Basis sets
   Taras Petrenko         : DFT Hessian,TD-DFT gradient, ASA, ECA, R-Raman, ABS, FL, XAS/XES, NRVS
   Peter Pinski           : DLPNO-MP2, DLPNO-MP2 Gradient
   Christoph Reimann      : Effective Core Potentials
   Marius Retegan         : Local ZFS, SOC
   Christoph Riplinger    : Optimizer, TS searches, QM/MM, DLPNO-CCSD(T), (RO)-DLPNO pert. Triples
   Tobias Risthaus        : Range-separated hybrids, TD-DFT gradient, RPA, STAB
   Michael Roemelt        : Original ROCIS implementation
   Masaaki Saitow         : Open-shell DLPNO-CCSD energy and density
   Barbara Sandhoefer     : DKH picture change effects
   Avijit Sen             : IP-ROCIS
   Kantharuban Sivalingam : CASSCF convergence, NEVPT2, FIC-MRCI
   Bernardo de Souza      : ESD, SOC TD-DFT
   Georgi Stoychev        : AutoAux, RI-MP2 NMR
   Willem Van den Heuvel  : Paramagnetic NMR
   Boris Wezisla          : Elementary symmetry handling
   Frank Wennmohs         : Technical directorship


 We gratefully acknowledge several colleagues who have allowed us to
 interface, adapt or use parts of their codes:
   Stefan Grimme, W. Hujo, H. Kruse,             : VdW corrections, initial TS optimization,
                  C. Bannwarth                     DFT functionals, gCP, sTDA/sTD-DF
   Ed Valeev, F. Pavosevic, A. Kumar             : LibInt (2-el integral package), F12 methods
   Garnet Chan, S. Sharma, J. Yang, R. Olivares  : DMRG
   Ulf Ekstrom                                   : XCFun DFT Library
   Mihaly Kallay                                 : mrcc  (arbitrary order and MRCC methods)
   Andreas Klamt, Michael Diedenhofen            : otool_cosmo (COSMO solvation model)
   Jiri Pittner, Ondrej Demel                    : Mk-CCSD
   Frank Weinhold                                : gennbo (NPA and NBO analysis)
   Christopher J. Cramer and Donald G. Truhlar   : smd solvation model
   Lars Goerigk                                  : TD-DFT with DH, B97 family of functionals
   V. Asgeirsson, H. Jonsson                     : NEB implementation
   FAccTs GmbH                                   : IRC, NEB, NEB-TS, Multilevel, MM, QM/MM, CI optimization
   S Lehtola, MJT Oliveira, MAL Marques          : LibXC Library


 Your calculation uses the libint2 library for the computation of 2-el integrals
 For citations please refer to: http://libint.valeyev.net

 Your ORCA version has been built with support for libXC version: 4.2.3
 For citations please refer to: https://tddft.org/programs/libxc/

 This ORCA versions uses:
   CBLAS   interface :  Fast vector & matrix operations
   LAPACKE interface :  Fast linear algebra routines
   SCALAPACK package :  Parallel linear algebra routines


----- Orbital basis set information -----
Your calculation utilizes the basis: def2-TZVPP
   F. Weigend and R. Ahlrichs, Phys. Chem. Chem. Phys. 7, 3297 (2005).

================================================================================
                                        WARNINGS
                       Please study these warnings very carefully!
================================================================================


WARNING: your system is open-shell and RHF/RKS was chosen
  ===> : WILL SWITCH to UHF/UKS


WARNING: MDCI localization with Augmented Hessian Foster-Boys
  ===> : Switching off randomization!

WARNING: Post HF methods need fully converged wavefunctions
  ===> : Setting SCFConvForced true
         You can overwrite this default with %scf ConvForced false 


INFO   : the flag for use of LIBINT has been found!

================================================================================
                                       INPUT FILE
================================================================================
NAME = 43_NiH.in
|  1> #
|  2> # 43_NiH ccsd(t)/cbs
|  3> #
|  4> ! ccsd(t) extrapolate(3/4,def2) verytightscf
|  5> 
|  6> *xyz 0 2
|  7>   Ni  0.00000000000000      0.00000000000000      0.25339129346416
|  8>   H   0.00000000000000      0.00000000000000      1.74660870653584
|  9> *
| 10> 
| 11> %maxcore 5000
| 12> %pal
| 13> nprocs 24
| 14> end
| 15> 
| 16> 
| 17>                          ****END OF INPUT****
================================================================================

                   *****************************************
                   * Extrapolated Single Point Calculation *
                   *****************************************

----- Orbital basis set information -----
Your calculation utilizes the basis: def2-TZVPP
   F. Weigend and R. Ahlrichs, Phys. Chem. Chem. Phys. 7, 3297 (2005).

----- AuxJ basis set information -----
Your calculation utilizes the auxiliary basis: def2/J
   F. Weigend, Phys. Chem. Chem. Phys. 8, 1057 (2006).

----- AuxC basis set information -----
Your calculation utilizes the auxiliary basis: def2-TZVPP/C
  H-La, Hf-Rn : A. Hellweg, C. Hattig, S. Hofener and W. Klopper, Theor. Chem. Acc. 117, 587 (2007).
        Ce-Lu : J. Chmela and M. E. Harding, Mol. Phys. (2018).

----- AuxJK basis set information -----
Your calculation utilizes the auxiliary basis: def2/JK
   H-Ba, Hf-Rn: F. Weigend, J. Comput. Chem. 29, 167 (2008).

All done

                     -----------------------------------------
                     Extrapolated Energy 1 Basis=  def2-TZVPP
                     -----------------------------------------

---------------------------------
CARTESIAN COORDINATES (ANGSTROEM)
---------------------------------
  Ni     0.000000    0.000000    0.253391
  H      0.000000    0.000000    1.746609

----------------------------
CARTESIAN COORDINATES (A.U.)
----------------------------
  NO LB      ZA    FRAG     MASS         X           Y           Z
   0 Ni   28.0000    0    58.700    0.000000    0.000000    0.478840
   1 H     1.0000    0     1.008    0.000000    0.000000    3.300612

--------------------------------
INTERNAL COORDINATES (ANGSTROEM)
--------------------------------
 Ni     0   0   0     0.000000000000     0.00000000     0.00000000
 H      1   0   0     1.493217413072     0.00000000     0.00000000

---------------------------
INTERNAL COORDINATES (A.U.)
---------------------------
 Ni     0   0   0     0.000000000000     0.00000000     0.00000000
 H      1   0   0     2.821771969108     0.00000000     0.00000000

---------------------
BASIS SET INFORMATION
---------------------
There are 2 groups of distinct atoms

 Group   1 Type Ni  : 17s12p7d2f1g contracted to 6s5p4d2f1g pattern {842111/63111/4111/11/1}
 Group   2 Type H   : 5s2p1d contracted to 3s2p1d pattern {311/11/1}

Atom   0Ni   basis set group =>   1
Atom   1H    basis set group =>   2
---------------------------------
AUXILIARY/J BASIS SET INFORMATION
---------------------------------
There are 2 groups of distinct atoms

 Group   1 Type Ni  : 19s5p5d3f3g contracted to 8s5p5d2f3g pattern {121111111/11111/11111/21/111}
 Group   2 Type H   : 5s2p1d contracted to 3s1p1d pattern {311/2/1}

Atom   0Ni   basis set group =>   1
Atom   1H    basis set group =>   2
---------------------------------
AUXILIARY/C BASIS SET INFORMATION
---------------------------------
There are 2 groups of distinct atoms

 Group   1 Type Ni  : 9s9p8d7f5g3h1i contracted to 9s9p8d7f5g3h1i pattern {111111111/111111111/11111111/1111111/11111/111/1}
 Group   2 Type H   : 4s3p2d1f contracted to 4s3p2d1f pattern {1111/111/11/1}

Atom   0Ni   basis set group =>   1
Atom   1H    basis set group =>   2
----------------------------------
AUXILIARY/JK BASIS SET INFORMATION
----------------------------------
There are 2 groups of distinct atoms

 Group   1 Type Ni  : 19s14p12d10f7g3h1i contracted to 16s13p11d9f5g3h1i pattern {4111111111111111/2111111111111/21111111111/211111111/31111/111/1}
 Group   2 Type H   : 4s2p2d contracted to 2s2p2d pattern {31/11/11}

Atom   0Ni   basis set group =>   1
Atom   1H    basis set group =>   2


           ************************************************************
           *        Program running with 24 parallel MPI-processes    *
           *              working on a common directory               *
           ************************************************************
------------------------------------------------------------------------------
                           ORCA GTO INTEGRAL CALCULATION
------------------------------------------------------------------------------

                         BASIS SET STATISTICS AND STARTUP INFO

 # of primitive gaussian shells          ...   47
 # of primitive gaussian functions       ...  127
 # of contracted shells                  ...   24
 # of contracted basis functions         ...   78
 Highest angular momentum                ...    4
 Maximum contraction depth               ...    8
 Integral package used                   ... LIBINT
 Integral threshhold            Thresh   ...  1.000e-12
 Primitive cut-off              TCut     ...  1.000e-14


------------------------------ INTEGRAL EVALUATION ----------------------------


 * One electron integrals 
 Pre-screening matrix                    ... done
 Shell pair data                         ... done (   0.000 sec)



           ************************************************************
           *        Program running with 24 parallel MPI-processes    *
           *              working on a common directory               *
           ************************************************************
-------------------------------------------------------------------------------
                                 ORCA SCF
-------------------------------------------------------------------------------

------------
SCF SETTINGS
------------
Hamiltonian:
 Ab initio Hamiltonian  Method          .... Hartree-Fock(GTOs)


General Settings:
 Integral files         IntName         .... 43_NiH
 Hartree-Fock type      HFTyp           .... UHF
 Total Charge           Charge          ....    0
 Multiplicity           Mult            ....    2
 Number of Electrons    NEL             ....   29
 Basis Dimension        Dim             ....   78
 Nuclear Repulsion      ENuc            ....      9.9228429180 Eh

Convergence Acceleration:
 DIIS                   CNVDIIS         .... on
   Start iteration      DIISMaxIt       ....    12
   Startup error        DIISStart       ....  0.200000
   # of expansion vecs  DIISMaxEq       ....     5
   Bias factor          DIISBfac        ....   1.050
   Max. coefficient     DIISMaxC        ....  10.000
 Newton-Raphson         CNVNR           .... off
 SOSCF                  CNVSOSCF        .... off
 Level Shifting         CNVShift        .... on
   Level shift para.    LevelShift      ....    0.2500
   Turn off err/grad.   ShiftErr        ....    0.0010
 Zerner damping         CNVZerner       .... off
 Static damping         CNVDamp         .... on
   Fraction old density DampFac         ....    0.7000
   Max. Damping (<1)    DampMax         ....    0.9800
   Min. Damping (>=0)   DampMin         ....    0.0000
   Turn off err/grad.   DampErr         ....    0.1000
 Fernandez-Rico         CNVRico         .... off

SCF Procedure:
 Maximum # iterations   MaxIter         ....   125
 SCF integral mode      SCFMode         .... Direct
   Integral package                     .... LIBINT
 Reset frequency        DirectResetFreq ....    20
 Integral Threshold     Thresh          ....  1.000e-12 Eh
 Primitive CutOff       TCut            ....  1.000e-14 Eh

Convergence Tolerance:
 Convergence Check Mode ConvCheckMode   .... Total+1el-Energy
 Convergence forced     ConvForced      .... 1
 Energy Change          TolE            ....  1.000e-09 Eh
 1-El. energy change                    ....  1.000e-06 Eh
 DIIS Error             TolErr          ....  1.000e-08


Diagonalization of the overlap matrix:
Smallest eigenvalue                        ... 1.248e-02
Time for diagonalization                   ...    0.002 sec
Threshold for overlap eigenvalues          ... 1.000e-08
Number of eigenvalues below threshold      ... 0
Time for construction of square roots      ...    0.001 sec
Total time needed                          ...    0.003 sec

-------------------
DFT GRID GENERATION
-------------------

General Integration Accuracy     IntAcc      ...  4.340
Radial Grid Type                 RadialGrid  ... Gauss-Chebyshev
Angular Grid (max. acc.)         AngularGrid ... Lebedev-110
Angular grid pruning method      GridPruning ... 3 (G Style)
Weight generation scheme         WeightScheme... Becke
Basis function cutoff            BFCut       ...    1.0000e-12
Integration weight cutoff        WCut        ...    1.0000e-14
Grids for H and He will be reduced by one unit

# of grid points (after initial pruning)     ...   3706 (   0.0 sec)
# of grid points (after weights+screening)   ...   3681 (   0.0 sec)
nearest neighbour list constructed           ...    0.0 sec
Grid point re-assignment to atoms done       ...    0.0 sec
Grid point division into batches done        ...    0.0 sec
Reduced shell lists constructed in    0.0 sec

Total number of grid points                  ...     3681
Total number of batches                      ...       58
Average number of points per batch           ...       63
Average number of grid points per atom       ...     1840
Average number of shells per batch           ...     7.50 (31.25%)
Average number of basis functions per batch  ...    19.50 (25.00%)
Average number of large shells per batch     ...     6.75 (90.00%)
Average number of large basis fcns per batch ...    17.25 (88.46%)
Maximum spatial batch extension              ...  34.10, 26.34, 18.34 au
Average spatial batch extension              ...   1.21,  1.23,  0.81 au

Time for grid setup =    0.019 sec

------------------------------
INITIAL GUESS: MODEL POTENTIAL
------------------------------
Loading Hartree-Fock densities                     ... done
Calculating cut-offs                               ... done
Setting up the integral package                    ... done
Initializing the effective Hamiltonian             ... done
Starting the Coulomb interaction                   ... done (   0.0 sec)
Reading the grid                                   ... done
Mapping shells                                     ... done
Starting the XC term evaluation                    ... done (   0.0 sec)
Transforming the Hamiltonian                       ... done (   0.0 sec)
Diagonalizing the Hamiltonian                      ... done (   0.0 sec)
Back transforming the eigenvectors                 ... done (   0.0 sec)
Now organizing SCF variables                       ... done
                      ------------------
                      INITIAL GUESS DONE (   0.2 sec)
                      ------------------
--------------
SCF ITERATIONS
--------------
ITER       Energy         Delta-E        Max-DP      RMS-DP      [F,P]     Damp
               ***  Starting incremental Fock matrix formation  ***
  0  -1507.1700677058   0.000000000000 0.02829931  0.00095296  0.3192788 0.7000
  1  -1507.2188356840  -0.048767978176 0.02546763  0.00056740  0.1501860 0.7000
                               ***Turning on DIIS***
  2  -1507.2424454032  -0.023609719227 0.06273658  0.00131785  0.0946299 0.0000
  3  -1507.1642937737   0.078151629504 0.01470126  0.00056011  0.0639352 0.0000
  4  -1507.8673390971  -0.703045323352 0.01187120  0.00042590  0.0575459 0.0000
  5  -1507.3803082178   0.487030879290 0.01172694  0.00040184  0.0301672 0.0000
  6  -1507.4197896963  -0.039481478547 0.00559857  0.00018425  0.0122832 0.0000
  7  -1507.3585656634   0.061224032934 0.00464074  0.00011729  0.0056289 0.0000
  8  -1507.3507890738   0.007776589641 0.00313878  0.00007447  0.0024722 0.0000
  9  -1507.3445201103   0.006268963418 0.00205949  0.00004889  0.0012040 0.0000
 10  -1507.3427449260   0.001775184309 0.00173804  0.00004258  0.0005467 0.0000
 11  -1507.3426935946   0.000051331460 0.00035580  0.00001000  0.0001745 0.0000
 12  -1507.3446068154  -0.001913220786 0.00017599  0.00000447  0.0001390 0.0000
 13  -1507.3427989761   0.001807839296 0.00020565  0.00000443  0.0000345 0.0000
 14  -1507.3431705021  -0.000371526000 0.00008999  0.00000192  0.0000171 0.0000
 15  -1507.3431744252  -0.000003923107 0.00015066  0.00000343  0.0000162 0.0000
 16  -1507.3432388908  -0.000064465683 0.00026165  0.00000601  0.0000123 0.0000
 17  -1507.3432309217   0.000007969190 0.00008975  0.00000208  0.0000038 0.0000
 18  -1507.3432083417   0.000022579967 0.00001665  0.00000035  0.0000021 0.0000
 19  -1507.3432079236   0.000000418114 0.00000546  0.00000014  0.0000014 0.0000
               *** Restarting incremental Fock matrix formation ***
                                   *** Resetting DIIS ***
 20  -1507.3432140797  -0.000006156126 0.00000071  0.00000002  0.0000008 0.0000
 21  -1507.3432001647   0.000013915022 0.00000029  0.00000001  0.0000011 0.0000
 22  -1507.3432147817  -0.000014617070 0.00000086  0.00000002  0.0000002 0.0000
 23  -1507.3432141210   0.000000660736 0.00000074  0.00000002  0.0000001 0.0000
 24  -1507.3432140563   0.000000064726 0.00000070  0.00000002  0.0000001 0.0000
 25  -1507.3432141374  -0.000000081136 0.00000057  0.00000001  0.0000000 0.0000
                            ***DIIS convergence achieved***

               *****************************************************
               *                     SUCCESS                       *
               *           SCF CONVERGED AFTER  26 CYCLES          *
               *****************************************************


----------------
TOTAL SCF ENERGY
----------------

Total Energy       :        -1507.34321408 Eh          -41016.89411 eV

Components:
Nuclear Repulsion  :            9.92284292 Eh             270.01428 eV
Electronic Energy  :        -1517.26605700 Eh          -41286.90840 eV
One Electron Energy:        -2119.65139477 Eh          -57678.64678 eV
Two Electron Energy:          602.38533777 Eh           16391.73838 eV

Virial components:
Potential Energy   :        -3014.50813376 Eh          -82028.93659 eV
Kinetic Energy     :         1507.16491968 Eh           41012.04248 eV
Virial Ratio       :            2.00011830


---------------
SCF CONVERGENCE
---------------

  Last Energy change         ...    5.5821e-08  Tolerance :   1.0000e-09
  Last MAX-Density change    ...    1.2415e-07  Tolerance :   1.0000e-08
  Last RMS-Density change    ...    2.8666e-09  Tolerance :   1.0000e-09
  Last DIIS Error            ...    1.1298e-08  Tolerance :   1.0000e-08

             **** THE GBW FILE WAS UPDATED (43_NiH.gbw) ****
             **** DENSITY FILE WAS UPDATED (43_NiH.scfp) ****
             **** ENERGY FILE WAS UPDATED (43_NiH.en.tmp) ****
----------------------
UHF SPIN CONTAMINATION
----------------------

Expectation value of <S**2>     :     0.779761
Ideal value S*(S+1) for S=0.5   :     0.750000
Deviation                       :     0.029761

             **** THE GBW FILE WAS UPDATED (43_NiH.gbw) ****
             **** DENSITY FILE WAS UPDATED (43_NiH.scfp) ****
----------------
ORBITAL ENERGIES
----------------
                 SPIN UP ORBITALS
  NO   OCC          E(Eh)            E(eV) 
   0   1.0000    -305.402406     -8310.4220 
   1   1.0000     -37.694052     -1025.7073 
   2   1.0000     -32.744943      -891.0352 
   3   1.0000     -32.709980      -890.0838 
   4   1.0000     -32.709980      -890.0838 
   5   1.0000      -4.702557      -127.9631 
   6   1.0000      -3.170606       -86.2766 
   7   1.0000      -3.089159       -84.0603 
   8   1.0000      -3.089159       -84.0603 
   9   1.0000      -0.546194       -14.8627 
  10   1.0000      -0.481019       -13.0892 
  11   1.0000      -0.481019       -13.0892 
  12   1.0000      -0.450551       -12.2601 
  13   1.0000      -0.450551       -12.2601 
  14   1.0000      -0.318366        -8.6632 
  15   0.0000       0.031035         0.8445 
  16   0.0000       0.139389         3.7930 
  17   0.0000       0.139389         3.7930 
  18   0.0000       0.230104         6.2615 
  19   0.0000       0.287172         7.8143 
  20   0.0000       0.323297         8.7974 
  21   0.0000       0.323297         8.7974 
  22   0.0000       0.329972         8.9790 
  23   0.0000       0.329972         8.9790 
  24   0.0000       0.384111        10.4522 
  25   0.0000       0.593861        16.1598 
  26   0.0000       0.757177        20.6038 
  27   0.0000       0.757177        20.6038 
  28   0.0000       0.888645        24.1813 
  29   0.0000       1.050177        28.5768 
  30   0.0000       1.050177        28.5768 
  31   0.0000       1.330035        36.1921 
  32   0.0000       1.331339        36.2276 
  33   0.0000       1.331339        36.2276 
  34   0.0000       1.359346        36.9897 
  35   0.0000       1.359346        36.9897 
  36   0.0000       1.549307        42.1588 
  37   0.0000       2.922915        79.5366 
  38   0.0000       2.970982        80.8445 
  39   0.0000       3.165597        86.1403 
  40   0.0000       3.165597        86.1403 
  41   0.0000       3.320959        90.3679 
  42   0.0000       3.320959        90.3679 
  43   0.0000       3.360525        91.4445 
  44   0.0000       3.360525        91.4445 
  45   0.0000       3.468191        94.3743 
  46   0.0000       3.468191        94.3743 
  47   0.0000       3.484571        94.8200 
  48   0.0000       3.668451        99.8236 
  49   0.0000       3.692374       100.4746 
  50   0.0000       3.692374       100.4746 
  51   0.0000       4.118553       112.0715 
  52   0.0000       4.118553       112.0715 
  53   0.0000       4.343503       118.1927 
  54   0.0000       4.343503       118.1927 
  55   0.0000       4.498668       122.4150 
  56   0.0000       4.626003       125.8799 
  57   0.0000       4.776401       129.9725 
  58   0.0000       4.776401       129.9725 
  59   0.0000       4.780550       130.0854 
  60   0.0000       4.780550       130.0854 
  61   0.0000       5.687490       154.7645 
  62   0.0000      12.219421       332.5073 
  63   0.0000      12.219421       332.5073 
  64   0.0000      12.228109       332.7438 
  65   0.0000      12.230096       332.7978 
  66   0.0000      12.230096       332.7978 
  67   0.0000      12.258192       333.5624 
  68   0.0000      12.258192       333.5624 
  69   0.0000      12.260667       333.6297 
  70   0.0000      12.260667       333.6297 
  71   0.0000      12.683315       345.1306 
  72   0.0000      12.683315       345.1306 
  73   0.0000      12.694138       345.4251 
  74   0.0000      12.694138       345.4251 
  75   0.0000      12.732445       346.4674 
  76   0.0000      12.732445       346.4674 
  77   0.0000      12.979121       353.1798 

                 SPIN DOWN ORBITALS
  NO   OCC          E(Eh)            E(eV) 
   0   1.0000    -305.401312     -8310.3922 
   1   1.0000     -37.659197     -1024.7588 
   2   1.0000     -32.688183      -889.4907 
   3   1.0000     -32.688183      -889.4907 
   4   1.0000     -32.688003      -889.4858 
   5   1.0000      -4.609401      -125.4282 
   6   1.0000      -3.024775       -82.3083 
   7   1.0000      -3.024775       -82.3083 
   8   1.0000      -2.968433       -80.7752 
   9   1.0000      -0.452100       -12.3023 
  10   1.0000      -0.452100       -12.3023 
  11   1.0000      -0.400501       -10.8982 
  12   1.0000      -0.400501       -10.8982 
  13   1.0000      -0.382715       -10.4142 
  14   0.0000       0.028287         0.7697 
  15   0.0000       0.154343         4.1999 
  16   0.0000       0.154343         4.1999 
  17   0.0000       0.203998         5.5511 
  18   0.0000       0.268845         7.3156 
  19   0.0000       0.327731         8.9180 
  20   0.0000       0.327731         8.9180 
  21   0.0000       0.336762         9.1638 
  22   0.0000       0.336762         9.1638 
  23   0.0000       0.354424         9.6444 
  24   0.0000       0.491005        13.3609 
  25   0.0000       0.591254        16.0888 
  26   0.0000       0.770052        20.9542 
  27   0.0000       0.770052        20.9542 
  28   0.0000       0.911773        24.8106 
  29   0.0000       1.041971        28.3535 
  30   0.0000       1.041971        28.3535 
  31   0.0000       1.348017        36.6814 
  32   0.0000       1.348017        36.6814 
  33   0.0000       1.368809        37.2472 
  34   0.0000       1.368809        37.2472 
  35   0.0000       1.388555        37.7845 
  36   0.0000       1.597948        43.4824 
  37   0.0000       2.920664        79.4753 
  38   0.0000       2.999017        81.6074 
  39   0.0000       3.196569        86.9831 
  40   0.0000       3.196569        86.9831 
  41   0.0000       3.344090        90.9973 
  42   0.0000       3.344090        90.9973 
  43   0.0000       3.359867        91.4266 
  44   0.0000       3.359867        91.4266 
  45   0.0000       3.489743        94.9607 
  46   0.0000       3.489743        94.9607 
  47   0.0000       3.529020        96.0295 
  48   0.0000       3.688015       100.3560 
  49   0.0000       3.688015       100.3560 
  50   0.0000       3.713760       101.0566 
  51   0.0000       4.111694       111.8849 
  52   0.0000       4.111694       111.8849 
  53   0.0000       4.357607       118.5765 
  54   0.0000       4.357607       118.5765 
  55   0.0000       4.551499       123.8526 
  56   0.0000       4.682584       127.4196 
  57   0.0000       4.792011       130.3973 
  58   0.0000       4.792011       130.3973 
  59   0.0000       4.803578       130.7120 
  60   0.0000       4.803578       130.7120 
  61   0.0000       5.754053       156.5758 
  62   0.0000      12.262984       333.6927 
  63   0.0000      12.262984       333.6927 
  64   0.0000      12.264014       333.7208 
  65   0.0000      12.264014       333.7208 
  66   0.0000      12.283350       334.2469 
  67   0.0000      12.283350       334.2469 
  68   0.0000      12.284116       334.2678 
  69   0.0000      12.284116       334.2678 
  70   0.0000      12.308579       334.9335 
  71   0.0000      12.696268       345.4830 
  72   0.0000      12.696268       345.4830 
  73   0.0000      12.725952       346.2908 
  74   0.0000      12.725952       346.2908 
  75   0.0000      12.837182       349.3175 
  76   0.0000      12.837182       349.3175 
  77   0.0000      13.125162       357.1538 

                    ********************************
                    * MULLIKEN POPULATION ANALYSIS *
                    ********************************

--------------------------------------------
MULLIKEN ATOMIC CHARGES AND SPIN POPULATIONS
--------------------------------------------
   0 Ni:    0.372547    1.132512
   1 H :   -0.372547   -0.132512
Sum of atomic charges         :    0.0000000
Sum of atomic spin populations:    1.0000000

-----------------------------------------------------
MULLIKEN REDUCED ORBITAL CHARGES AND SPIN POPULATIONS
-----------------------------------------------------
CHARGE
  0 Nis       :     6.506863  s :     6.506863
      pz      :     4.099715  p :    12.101188
      px      :     4.000737
      py      :     4.000737
      dz2     :     1.022257  d :     9.018262
      dxz     :     1.998068
      dyz     :     1.998068
      dx2y2   :     1.999934
      dxy     :     1.999934
      f0      :     0.000678  f :     0.001073
      f+1     :     0.000141
      f-1     :     0.000141
      f+2     :     0.000057
      f-2     :     0.000057
      f+3     :     0.000000
      f-3     :     0.000000
      g0      :     0.000032  g :     0.000067
      g+1     :     0.000010
      g-1     :     0.000010
      g+2     :     0.000007
      g-2     :     0.000007
      g+3     :     0.000000
      g-3     :     0.000000
      g+4     :     0.000000
      g-4     :     0.000000
  1 H s       :     1.364184  s :     1.364184
      pz      :     0.005947  p :     0.007498
      px      :     0.000775
      py      :     0.000775
      dz2     :     0.000324  d :     0.000865
      dxz     :     0.000269
      dyz     :     0.000269
      dx2y2   :     0.000002
      dxy     :     0.000002

SPIN
  0 Nis       :     0.197618  s :     0.197618
      pz      :     0.000869  p :     0.000740
      px      :    -0.000064
      py      :    -0.000064
      dz2     :     0.933549  d :     0.934426
      dxz     :     0.000423
      dyz     :     0.000423
      dx2y2   :     0.000015
      dxy     :     0.000015
      f0      :    -0.000164  f :    -0.000293
      f+1     :    -0.000063
      f-1     :    -0.000063
      f+2     :    -0.000002
      f-2     :    -0.000002
      f+3     :     0.000000
      f-3     :     0.000000
      g0      :     0.000015  g :     0.000021
      g+1     :     0.000009
      g-1     :     0.000009
      g+2     :    -0.000006
      g-2     :    -0.000006
      g+3     :     0.000000
      g-3     :     0.000000
      g+4     :     0.000000
      g-4     :     0.000000
  1 H s       :    -0.132239  s :    -0.132239
      pz      :     0.000047  p :    -0.000575
      px      :    -0.000311
      py      :    -0.000311
      dz2     :     0.000304  d :     0.000303
      dxz     :     0.000006
      dyz     :     0.000006
      dx2y2   :    -0.000007
      dxy     :    -0.000007


                     *******************************
                     * LOEWDIN POPULATION ANALYSIS *
                     *******************************

-------------------------------------------
LOEWDIN ATOMIC CHARGES AND SPIN POPULATIONS
-------------------------------------------
   0 Ni:    0.247946    1.054824
   1 H :   -0.247946   -0.054824

----------------------------------------------------
LOEWDIN REDUCED ORBITAL CHARGES AND SPIN POPULATIONS
----------------------------------------------------
CHARGE
  0 Nis       :     6.557590  s :     6.557590
      pz      :     4.169141  p :    12.170837
      px      :     4.000848
      py      :     4.000848
      dz2     :     1.057089  d :     9.021604
      dxz     :     1.982593
      dyz     :     1.982593
      dx2y2   :     1.999664
      dxy     :     1.999664
      f0      :     0.001375  f :     0.001963
      f+1     :     0.000235
      f-1     :     0.000235
      f+2     :     0.000059
      f-2     :     0.000059
      f+3     :     0.000000
      f-3     :     0.000000
      g0      :     0.000031  g :     0.000060
      g+1     :     0.000007
      g-1     :     0.000007
      g+2     :     0.000007
      g-2     :     0.000007
      g+3     :     0.000000
      g-3     :     0.000000
      g+4     :     0.000000
      g-4     :     0.000000
  1 H s       :     1.177634  s :     1.177634
      pz      :     0.029833  p :     0.053830
      px      :     0.011999
      py      :     0.011999
      dz2     :     0.007308  d :     0.016482
      dxz     :     0.004317
      dyz     :     0.004317
      dx2y2   :     0.000270
      dxy     :     0.000270

SPIN
  0 Nis       :     0.170846  s :     0.170846
      pz      :    -0.024587  p :    -0.024868
      px      :    -0.000140
      py      :    -0.000140
      dz2     :     0.907586  d :     0.909334
      dxz     :     0.000848
      dyz     :     0.000848
      dx2y2   :     0.000026
      dxy     :     0.000026
      f0      :    -0.000365  f :    -0.000498
      f+1     :    -0.000065
      f-1     :    -0.000065
      f+2     :    -0.000002
      f-2     :    -0.000002
      f+3     :     0.000000
      f-3     :     0.000000
      g0      :     0.000007  g :     0.000009
      g+1     :     0.000007
      g-1     :     0.000007
      g+2     :    -0.000006
      g-2     :    -0.000006
      g+3     :     0.000000
      g-3     :     0.000000
      g+4     :     0.000000
      g-4     :     0.000000
  1 H s       :    -0.060511  s :    -0.060511
      pz      :     0.004045  p :     0.002878
      px      :    -0.000584
      py      :    -0.000584
      dz2     :     0.002979  d :     0.002810
      dxz     :    -0.000066
      dyz     :    -0.000066
      dx2y2   :    -0.000018
      dxy     :    -0.000018


                      *****************************
                      * MAYER POPULATION ANALYSIS *
                      *****************************

  NA   - Mulliken gross atomic population
  ZA   - Total nuclear charge
  QA   - Mulliken gross atomic charge
  VA   - Mayer's total valence
  BVA  - Mayer's bonded valence
  FA   - Mayer's free valence

  ATOM       NA         ZA         QA         VA         BVA        FA
  0 Ni    27.6275    28.0000     0.3725     1.8617     0.8677     0.9940
  1 H      1.3725     1.0000    -0.3725     0.8921     0.8677     0.0244

  Mayer bond orders larger than 0.100000
B(  0-Ni,  1-H ) :   0.8677 

-------
TIMINGS
-------

Total SCF time: 0 days 0 hours 0 min 3 sec 

Total time                  ....       3.395 sec
Sum of individual times     ....       3.137 sec  ( 92.4%)

Fock matrix formation       ....       2.889 sec  ( 85.1%)
Diagonalization             ....       0.043 sec  (  1.3%)
Density matrix formation    ....       0.009 sec  (  0.3%)
Population analysis         ....       0.004 sec  (  0.1%)
Initial guess               ....       0.145 sec  (  4.3%)
Orbital Transformation      ....       0.000 sec  (  0.0%)
Orbital Orthonormalization  ....       0.000 sec  (  0.0%)
DIIS solution               ....       0.028 sec  (  0.8%)


           ************************************************************
           *        Program running with 24 parallel MPI-processes    *
           *              working on a common directory               *
           ************************************************************


------------------------------------------------------------------------------- 
                              ORCA-MATRIX DRIVEN CI                            
------------------------------------------------------------------------------- 

--------------------------------
AUTOMATIC CHOICE OF INCORE LEVEL
--------------------------------

Memory available                           ...   2500.00 MB
Memory needed for S+T                      ...      5.00 MB
Memory needed for J+K                      ...     10.05 MB
Memory needed for DIIS                     ...     69.95 MB
Memory needed for 3-ext                    ...     19.08 MB
Memory needed for 4-ext                    ...     61.05 MB
Memory needed for triples                  ...      9.54 MB
 -> Final InCoreLevel    ... 5
 -> check shows that triples correction can be computed


Wavefunction type
-----------------
Correlation treatment                      ...      CCSD     
Single excitations                         ... ON
Orbital optimization                       ... OFF
Calculation of Z vector                    ... OFF
Calculation of Brueckner orbitals          ... OFF
Perturbative triple excitations            ... ON
Calculation of F12 correction              ... OFF
Frozen core treatment                      ... chemical core (10 el)
Reference Wavefunction                     ... UHF
  Alpha-MOs occ    :     5 ...   14 ( 10 MO's/ 10 electrons)
  Beta-MOs occ     :     5 ...   13 (  9 MO's/  9 electrons)
  Alpha-MOs virt   :    15 ...   77 ( 63 MO's              )
  Beta-MOs virt    :    14 ...   77 ( 64 MO's              )
Number of AO's                             ...     78
Number of electrons                        ...     29
Number of correlated electrons             ...     19

Algorithmic settings
--------------------
Integral transformation                    ... AO direct full transformation
K(C) Formation                             ... FULL-MO TRAFO
Maximum number of iterations               ...        50
Convergence tolerance (max. residuum)      ... 1.000e-06
Level shift for amplitude update           ... 2.000e-01
Maximum number of DIIS vectors             ...         7
DIIS turned on at iteration                ...         0
Damping before turning on DIIS             ...     0.500
Damping after turning on DIIS              ...     0.000
Pair specific amplitude update             ... OFF
Natural orbital iterations                 ... OFF
Perturbative natural orbital generation    ... OFF
Printlevel                                 ... 2

Memory handling:
----------------
Maximum memory for working arrays          ...   2500 MB
Data storage in matrix containers          ... UNCOMPRESSED
Data type for integral storage             ... DOUBLE
In-Core Storage of quantities:
   Amplitudes+Sigma Vector      ... YES
   J+K operators                ... YES
   DIIS vectors                 ... YES
   3-external integrals         ... YES
   4-external integrals         ... YES


Initializing the integral package          ... done
Warning: reference  - re-canonicalizations have been set to INT 1 VIRT 1

--------------------------
UNRESTRICTED FOCK OPERATOR
--------------------------

<ss|ss>:         1035 b            0 skpd (  0.0%)    0.001 s ( 0.001 ms/b)
<ss|sp>:         2835 b            0 skpd (  0.0%)    0.001 s ( 0.000 ms/b)
<ss|sd>:         2025 b            0 skpd (  0.0%)    0.001 s ( 0.000 ms/b)
<ss|sf>:          810 b            0 skpd (  0.0%)    0.000 s ( 0.000 ms/b)
<ss|sg>:          405 b            0 skpd (  0.0%)    0.000 s ( 0.001 ms/b)
<ss|pp>:         1260 b            0 skpd (  0.0%)    0.002 s ( 0.002 ms/b)
<ss|pd>:         1575 b            0 skpd (  0.0%)    0.001 s ( 0.001 ms/b)
<ss|pf>:          630 b            0 skpd (  0.0%)    0.000 s ( 0.001 ms/b)
<ss|pg>:          315 b            0 skpd (  0.0%)    0.001 s ( 0.003 ms/b)
<ss|dd>:          675 b            0 skpd (  0.0%)    0.002 s ( 0.003 ms/b)
<ss|df>:          450 b            0 skpd (  0.0%)    0.001 s ( 0.002 ms/b)
<ss|dg>:          225 b            0 skpd (  0.0%)    0.001 s ( 0.002 ms/b)
<ss|ff>:          135 b            0 skpd (  0.0%)    0.000 s ( 0.004 ms/b)
<ss|fg>:           90 b            0 skpd (  0.0%)    0.001 s ( 0.008 ms/b)
<ss|gg>:           45 b            0 skpd (  0.0%)    0.001 s ( 0.021 ms/b)
<sp|sp>:         2016 b            0 skpd (  0.0%)    0.001 s ( 0.001 ms/b)
<sp|sd>:         2835 b            0 skpd (  0.0%)    0.001 s ( 0.000 ms/b)
<sp|sf>:         1134 b            0 skpd (  0.0%)    0.000 s ( 0.000 ms/b)
<sp|sg>:          567 b            0 skpd (  0.0%)    0.001 s ( 0.002 ms/b)
<sp|pp>:         1764 b            0 skpd (  0.0%)    0.004 s ( 0.002 ms/b)
<sp|pd>:         2205 b            0 skpd (  0.0%)    0.003 s ( 0.001 ms/b)
<sp|pf>:          882 b            0 skpd (  0.0%)    0.001 s ( 0.001 ms/b)
<sp|pg>:          441 b            0 skpd (  0.0%)    0.002 s ( 0.005 ms/b)
<sp|dd>:          945 b            0 skpd (  0.0%)    0.004 s ( 0.004 ms/b)
<sp|df>:          630 b            0 skpd (  0.0%)    0.002 s ( 0.003 ms/b)
<sp|dg>:          315 b            0 skpd (  0.0%)    0.001 s ( 0.004 ms/b)
<sp|ff>:          189 b            0 skpd (  0.0%)    0.001 s ( 0.007 ms/b)
<sp|fg>:          126 b            0 skpd (  0.0%)    0.002 s ( 0.014 ms/b)
<sp|gg>:           63 b            0 skpd (  0.0%)    0.002 s ( 0.038 ms/b)
<sd|sd>:         1035 b            0 skpd (  0.0%)    0.001 s ( 0.001 ms/b)
<sd|sf>:          810 b            0 skpd (  0.0%)    0.001 s ( 0.001 ms/b)
<sd|sg>:          405 b            0 skpd (  0.0%)    0.001 s ( 0.002 ms/b)
<sd|pp>:         1260 b            0 skpd (  0.0%)    0.004 s ( 0.003 ms/b)
<sd|pd>:         1575 b            0 skpd (  0.0%)    0.003 s ( 0.002 ms/b)
<sd|pf>:          630 b            0 skpd (  0.0%)    0.001 s ( 0.002 ms/b)
<sd|pg>:          315 b            0 skpd (  0.0%)    0.003 s ( 0.010 ms/b)
<sd|dd>:          675 b            0 skpd (  0.0%)    0.005 s ( 0.007 ms/b)
<sd|df>:          450 b            0 skpd (  0.0%)    0.003 s ( 0.006 ms/b)
<sd|dg>:          225 b            0 skpd (  0.0%)    0.002 s ( 0.009 ms/b)
<sd|ff>:          135 b            0 skpd (  0.0%)    0.002 s ( 0.012 ms/b)
<sd|fg>:           90 b            0 skpd (  0.0%)    0.002 s ( 0.026 ms/b)
<sd|gg>:           45 b            0 skpd (  0.0%)    0.003 s ( 0.071 ms/b)
<sf|sf>:          171 b            0 skpd (  0.0%)    0.000 s ( 0.001 ms/b)
<sf|sg>:          162 b            0 skpd (  0.0%)    0.001 s ( 0.003 ms/b)
<sf|pp>:          504 b            0 skpd (  0.0%)    0.002 s ( 0.004 ms/b)
<sf|pd>:          630 b            0 skpd (  0.0%)    0.002 s ( 0.002 ms/b)
<sf|pf>:          252 b            0 skpd (  0.0%)    0.001 s ( 0.003 ms/b)
<sf|pg>:          126 b            0 skpd (  0.0%)    0.002 s ( 0.014 ms/b)
<sf|dd>:          270 b            0 skpd (  0.0%)    0.002 s ( 0.009 ms/b)
<sf|df>:          180 b            0 skpd (  0.0%)    0.001 s ( 0.008 ms/b)
<sf|dg>:           90 b            0 skpd (  0.0%)    0.001 s ( 0.014 ms/b)
<sf|ff>:           54 b            0 skpd (  0.0%)    0.001 s ( 0.017 ms/b)
<sf|fg>:           36 b            0 skpd (  0.0%)    0.001 s ( 0.041 ms/b)
<sf|gg>:           18 b            0 skpd (  0.0%)    0.002 s ( 0.107 ms/b)
<sg|sg>:           45 b            0 skpd (  0.0%)    0.000 s ( 0.006 ms/b)
<sg|pp>:          252 b            0 skpd (  0.0%)    0.002 s ( 0.007 ms/b)
<sg|pd>:          315 b            0 skpd (  0.0%)    0.001 s ( 0.004 ms/b)
<sg|pf>:          126 b            0 skpd (  0.0%)    0.001 s ( 0.005 ms/b)
<sg|pg>:           63 b            0 skpd (  0.0%)    0.002 s ( 0.026 ms/b)
<sg|dd>:          135 b            0 skpd (  0.0%)    0.002 s ( 0.017 ms/b)
<sg|df>:           90 b            0 skpd (  0.0%)    0.001 s ( 0.014 ms/b)
<sg|dg>:           45 b            0 skpd (  0.0%)    0.001 s ( 0.031 ms/b)
<sg|ff>:           27 b            0 skpd (  0.0%)    0.001 s ( 0.027 ms/b)
<sg|fg>:           18 b            0 skpd (  0.0%)    0.001 s ( 0.068 ms/b)
<sg|gg>:            9 b            0 skpd (  0.0%)    0.002 s ( 0.183 ms/b)
<pp|pp>:          406 b            0 skpd (  0.0%)    0.002 s ( 0.005 ms/b)
<pp|pd>:          980 b            0 skpd (  0.0%)    0.002 s ( 0.002 ms/b)
<pp|pf>:          392 b            0 skpd (  0.0%)    0.001 s ( 0.003 ms/b)
<pp|pg>:          196 b            0 skpd (  0.0%)    0.002 s ( 0.010 ms/b)
<pp|dd>:          420 b            0 skpd (  0.0%)    0.003 s ( 0.007 ms/b)
<pp|df>:          280 b            0 skpd (  0.0%)    0.002 s ( 0.006 ms/b)
<pp|dg>:          140 b            0 skpd (  0.0%)    0.002 s ( 0.012 ms/b)
<pp|ff>:           84 b            0 skpd (  0.0%)    0.001 s ( 0.013 ms/b)
<pp|fg>:           56 b            0 skpd (  0.0%)    0.002 s ( 0.030 ms/b)
<pp|gg>:           28 b            0 skpd (  0.0%)    0.002 s ( 0.080 ms/b)
<pd|pd>:          630 b            0 skpd (  0.0%)    0.003 s ( 0.005 ms/b)
<pd|pf>:          490 b            0 skpd (  0.0%)    0.002 s ( 0.004 ms/b)
<pd|pg>:          245 b            0 skpd (  0.0%)    0.004 s ( 0.016 ms/b)
<pd|dd>:          525 b            0 skpd (  0.0%)    0.006 s ( 0.011 ms/b)
<pd|df>:          350 b            0 skpd (  0.0%)    0.004 s ( 0.010 ms/b)
<pd|dg>:          175 b            0 skpd (  0.0%)    0.004 s ( 0.022 ms/b)
<pd|ff>:          105 b            0 skpd (  0.0%)    0.002 s ( 0.022 ms/b)
<pd|fg>:           70 b            0 skpd (  0.0%)    0.003 s ( 0.050 ms/b)
<pd|gg>:           35 b            0 skpd (  0.0%)    0.005 s ( 0.136 ms/b)
<pf|pf>:          105 b            0 skpd (  0.0%)    0.001 s ( 0.007 ms/b)
<pf|pg>:           98 b            0 skpd (  0.0%)    0.002 s ( 0.019 ms/b)
<pf|dd>:          210 b            0 skpd (  0.0%)    0.003 s ( 0.012 ms/b)
<pf|df>:          140 b            0 skpd (  0.0%)    0.002 s ( 0.013 ms/b)
<pf|dg>:           70 b            0 skpd (  0.0%)    0.002 s ( 0.030 ms/b)
<pf|ff>:           42 b            0 skpd (  0.0%)    0.002 s ( 0.040 ms/b)
<pf|fg>:           28 b            0 skpd (  0.0%)    0.002 s ( 0.072 ms/b)
<pf|gg>:           14 b            0 skpd (  0.0%)    0.003 s ( 0.183 ms/b)
<pg|pg>:           28 b            0 skpd (  0.0%)    0.001 s ( 0.039 ms/b)
<pg|dd>:          105 b            0 skpd (  0.0%)    0.003 s ( 0.024 ms/b)
<pg|df>:           70 b            0 skpd (  0.0%)    0.001 s ( 0.021 ms/b)
<pg|dg>:           35 b            0 skpd (  0.0%)    0.002 s ( 0.056 ms/b)
<pg|ff>:           21 b            0 skpd (  0.0%)    0.001 s ( 0.048 ms/b)
<pg|fg>:           14 b            0 skpd (  0.0%)    0.002 s ( 0.117 ms/b)
<pg|gg>:            7 b            0 skpd (  0.0%)    0.002 s ( 0.292 ms/b)
<dd|dd>:          120 b            0 skpd (  0.0%)    0.004 s ( 0.030 ms/b)
<dd|df>:          150 b            0 skpd (  0.0%)    0.002 s ( 0.016 ms/b)
<dd|dg>:           75 b            0 skpd (  0.0%)    0.003 s ( 0.041 ms/b)
<dd|ff>:           45 b            0 skpd (  0.0%)    0.002 s ( 0.041 ms/b)
<dd|fg>:           30 b            0 skpd (  0.0%)    0.002 s ( 0.080 ms/b)
<dd|gg>:           15 b            0 skpd (  0.0%)    0.003 s ( 0.215 ms/b)
<df|df>:           55 b            0 skpd (  0.0%)    0.002 s ( 0.033 ms/b)
<df|dg>:           50 b            0 skpd (  0.0%)    0.002 s ( 0.050 ms/b)
<df|ff>:           30 b            0 skpd (  0.0%)    0.002 s ( 0.072 ms/b)
<df|fg>:           20 b            0 skpd (  0.0%)    0.002 s ( 0.114 ms/b)
<df|gg>:           10 b            0 skpd (  0.0%)    0.003 s ( 0.297 ms/b)
<dg|dg>:           15 b            0 skpd (  0.0%)    0.002 s ( 0.121 ms/b)
<dg|ff>:           15 b            0 skpd (  0.0%)    0.001 s ( 0.083 ms/b)
<dg|fg>:           10 b            0 skpd (  0.0%)    0.002 s ( 0.179 ms/b)
<dg|gg>:            5 b            0 skpd (  0.0%)    0.002 s ( 0.450 ms/b)
<ff|ff>:            6 b            0 skpd (  0.0%)    0.001 s ( 0.090 ms/b)
<ff|fg>:            6 b            0 skpd (  0.0%)    0.001 s ( 0.165 ms/b)
<ff|gg>:            3 b            0 skpd (  0.0%)    0.001 s ( 0.470 ms/b)
<fg|fg>:            3 b            0 skpd (  0.0%)    0.001 s ( 0.321 ms/b)
<fg|gg>:            2 b            0 skpd (  0.0%)    0.002 s ( 0.763 ms/b)
<gg|gg>:            1 b            0 skpd (  0.0%)    0.002 s ( 1.613 ms/b)
Recanonicalizing the internal orbitals
Recanonicalizing the virtual orbitals
Time needed for Fock operator              ...            0.230 sec
Reference energy                           ...  -1507.343214080
Warning: for UHF the TrafoType has to be JK
Warning: for UHF the K(C)-option cannot be MO but must be AOX

-------------------------------
PARTIAL EXCHANGE TRANSFORMATION
-------------------------------

Transformation type                        ... two-operators
Generation of integrals (i,mue|j,nue)      ... ON
Generation of integrals (mue,kappa|nue,tau)... ON
Generation of integrals (i,mue|a,nue)      ... ON
Dimension of the basis                     ...   78
Number of internal alpha-MOs               ...   10 (   5-  14)
Number of internal beta-MOs                ...    9 (   5-  13)
Number of external alpha-MOs               ...   63 (  15-  77)
Number of external beta-MOs                ...   64 (  14-  77)
Pair cutoff                                ... 0.000e+00 Eh
Number of AO pairs in the trafo            ... 3081
Total Number of distinct AO pairs          ... 3081
Memory devoted for trafo                   ... 2500.0 MB 
Max. Number of MO pairs treated together   ... 53859      
Number Format for Storage                  ... Double (8 Byte)
Integral package used                      ... LIBINT

Starting integral evaluation:
    ... done with AO integral generation
Closing buffer AOK[aa] ( 0.00 GB; CompressionRatio= 0.99)
Closing buffer AOK[bb] ( 0.00 GB; CompressionRatio= 0.98)
Closing buffer AOK[ab] ( 0.00 GB; CompressionRatio= 0.98)
Closing buffer AOK[ba] ( 0.00 GB; CompressionRatio= 0.98)
Collecting buffer AOK 
Closing buffer IAAO1[aa] ( 0.00 GB; CompressionRatio= 1.00)
Closing buffer IAAO1[bb] ( 0.00 GB; CompressionRatio= 1.00)
Closing buffer IAAO1[ab] ( 0.00 GB; CompressionRatio= 1.00)
Closing buffer IAAO1[ba] ( 0.00 GB; CompressionRatio= 1.00)
Closing buffer IAAO2[aa] ( 0.00 GB; CompressionRatio= 1.00)
Closing buffer IAAO2[bb] ( 0.00 GB; CompressionRatio= 1.00)
Closing buffer IAAO2[ab] ( 0.00 GB; CompressionRatio= 1.00)
Closing buffer IAAO2[ba] ( 0.00 GB; CompressionRatio= 1.00)
Collecting buffer IAAO 
Closing buffer PRQS    ( 0.00 GB; CompressionRatio= 1.00)
Collecting buffer PRQS 
Number of alpha/alpha MO pairs in trafo    ...   55
Number of beta /beta  MO pairs in trafo    ...   45
Number of alpha/ beta MO pairs in trafo    ...   90
------------------------
SORTING OF (i,mue|j,nue)
------------------------

SORTING OF ALPHA/ALPHA PAIRS
IBATCH = 1 of  1
Closing buffer KAO[aa] ( 0.00 GB; CompressionRatio= 1.00)
Collecting buffer KAO 
SORTING OF BETA /BETA  PAIRS
IBATCH = 1 of  1
Closing buffer KAO[bb] ( 0.00 GB; CompressionRatio= 1.00)
Collecting buffer KAO 
SORTING OF ALPHA/BETA  PAIRS
IBATCH = 1 of  1
Closing buffer KAO[ab] ( 0.00 GB; CompressionRatio= 0.999753512448)
Collecting buffer KAO[ab] 
------------------------
SORTING OF (i,mue|a,nue)
------------------------

Number of alpha/alpha (i,a) pairs in trafo  ...  630
Number of beta /beta  (i,a) pairs in trafo  ...  576
Number of alpha/ beta (i,a) pairs in trafo  ...  640
Number of beta /alpha (i,a) pairs in trafo  ...  567
Setting up the alpha/alpha list             ... done
Setting up the beta /beta  list             ... done
Setting up the alpha/beta  list             ... done
Setting up the beta /alpha list             ... done
    ... Now sorting (i,mue|a,nue)integrals
    ... Integrals (i,b|a,c) will be made on the fly
SORTING OF ALPHA/ALPHA PAIRS
IBATCH = 1 of  1
Closing buffer IPAQ[aa]  0.00 GB; CompressionRatio= 1.00)
SORTING OF BETA /BETA  PAIRS
IBATCH = 1 of  1
Closing buffer IPAQ[bb]( 0.00 GB; CompressionRatio= 1.00)
SORTING OF ALPHA/BETA  PAIRS (NMatSort_ab=27)
IBATCH = 1 of  1
Closing buffer IPAQ[ab]( 0.00 GB; CompressionRatio= 1.00)
SORTING OF BETA/ALPHA  PAIRS
IBATCH = 1 of  1
Closing buffer IPAQ[ba]( 0.00 GB; CompressionRatio= 1.00)
N(AO-Batches) Done                         ...       576 
N(AO-Batches) Skipped                      ...         0 
N(IJ)-pairs Skipped                        ...         0 
TOTAL TIME for half transformation         ...     0.645 sec
AO-integral generation                     ...     0.006 sec
Half transformation                        ...     0.001 sec
K-integral sorting                         ...     0.368 sec
<ss|**>: 
------------------------------
PARTIAL COULOMB TRANSFORMATION
------------------------------

Transformation type                        ... two-operators
Dimension of the basis                     ...   78
Number of internal alpha-MOs               ...   10 (5-14)
Number of internal beta-MOs                ...    9 (5-13)
Pair cutoff                                ... 0.000e+00 Eh
Number of AO pairs included in the trafo   ... 3081
Total Number of distinct AO pairs          ... 3081
Memory devoted for trafo                   ... 2500.0 MB 
Max. Number of MO pairs treated together   ... 106355      
Max. Number of MOs treated per batch       ... 1363      
Number Format for Storage                  ... Double (8 Byte)
AO-integral source                         ... DIRECT
Integral package used                      ... LIBINT

Starting integral evaluation:
<sp|**>:        13500 b        0 skpd     0.003 s (  0.000 ms/b)
<sd|**>:        18900 b        0 skpd     0.011 s (  0.001 ms/b)
<sf|**>:        13500 b        0 skpd     0.014 s (  0.001 ms/b)
<sg|**>:         5400 b        0 skpd     0.008 s (  0.001 ms/b)
<pp|**>:         2700 b        0 skpd     0.012 s (  0.004 ms/b)
        8400 b        0 skpd     0.018 s (  0.002 ms/b)
<pd|**>:        10500 b        0 skpd     0.022 s (  0.002 ms/b)
<pf|**>:         4200 b        0 skpd     0.010 s (  0.002 ms/b)
<pg|**>:         2100 b        0 skpd     0.018 s (  0.009 ms/b)
<dd|**>:         4500 b        0 skpd     0.027 s (  0.006 ms/b)
<df|**>:         3000 b        0 skpd     0.015 s (  0.005 ms/b)
<dg|**>:         1500 b        0 skpd     0.023 s (  0.016 ms/b)
<ff|**>:          900 b        0 skpd     0.011 s (  0.013 ms/b)
<fg|**>:          600 b        0 skpd     0.015 s (  0.025 ms/b)
<gg|**>:          300 b        0 skpd     0.022 s (  0.075 ms/b)
Closing buffer AOJ[aa] ( 0.00 GB; CompressionRatio= 0.97)
Closing buffer AOJ[bb] ( 0.00 GB; CompressionRatio= 0.00)
Collecting buffer AOJ 
    ... done with AO integral generation
Number of Alpha-MO pairs included          ...   55
Number of Beta-MO pairs included           ...   45
    ... Now sorting integrals
SORTING ALPHA/ALPHA PAIRS
IBATCH = 1 of  1
Closing buffer JAO[aa] ( 0.00 GB; CompressionRatio= 1.00)
SORTING BETA/BETA PAIRS
IBATCH = 1 of  1
Closing buffer JAO[bb] ( 0.00 GB; CompressionRatio= 1.00)
Collecting buffer JAO 
TOTAL TIME for half transformation         ...     0.249 sec
AO-integral generation                     ...     0.231 sec
Half transformation                        ...     0.005 sec
J-integral sorting                         ...     0.009 sec

-------------------------- SECOND HALF TRANSFORMATION -------------------------
Formation of (ij|kl),(ij|ka), (ij|ab)      ... ok (     0.029 sec)
Formation of (ik|jl),(ik|ja), (ia|jb)      ... ok (     0.047 sec)


-----------------------
SPIN UNRESTRICTED GUESS
-----------------------

Entering MDCI_UHF_Guess, Tailored=0
Spin-components of the MP2 energy:
EMP2(aa)=     -0.148573522
EMP2(bb)=     -0.114124425
EMP2(ab)=     -0.534365090

Initial guess performed in     0.018 sec
E(0)                                       ...  -1507.343214080
E(MP2)                                     ...     -0.797063037
Initial E(tot)                             ...  -1508.140277117
<T|T>                                      ...      0.129225836
Number of pairs included                   ... 171

------------------------------------------------
                  UHF COUPLED CLUSTER ITERATIONS
------------------------------------------------

Number of amplitudes to be optimized       ...       526491

Iter       E(tot)           E(Corr)          Delta-E          Residual     Time      <S|S>**1/2
  0  -1508.140277117     -0.797063037     -0.000000000      0.032983569    0.43      0.000000034
                           *** Turning on DIIS ***
  1  -1508.015334739     -0.672120660      0.124942378      0.016766128    0.47      0.089067125
  2  -1508.058307768     -0.715093688     -0.042973029      0.010878781    0.48      0.071166570
  3  -1508.058549819     -0.715335739     -0.000242051      0.009409860    0.51      0.090819506
  4  -1508.061077166     -0.717863086     -0.002527347      0.007049053    0.50      0.104729570
  5  -1508.063286901     -0.720072821     -0.002209735      0.004663862    0.51      0.123329395
  6  -1508.064159074     -0.720944994     -0.000872173      0.002323145    0.51      0.138121085
  7  -1508.064528362     -0.721314283     -0.000369288      0.001279827    0.50      0.148566168
  8  -1508.064841983     -0.721627903     -0.000313621      0.000886946    0.49      0.154194374
  9  -1508.064880334     -0.721666255     -0.000038351      0.000540421    0.49      0.155970423
 10  -1508.064921944     -0.721707864     -0.000041609      0.000250054    0.49      0.157564040
 11  -1508.064959690     -0.721745611     -0.000037747      0.000150044    0.49      0.157872360
 12  -1508.064926778     -0.721712698      0.000032913      0.000118248    0.49      0.158084225
 13  -1508.064936872     -0.721722792     -0.000010094      0.000070096    0.51      0.158384081
 14  -1508.064933089     -0.721719009      0.000003783      0.000037536    0.52      0.158513010
 15  -1508.064934539     -0.721720460     -0.000001450      0.000020925    0.50      0.158664742
 16  -1508.064935139     -0.721721059     -0.000000600      0.000012135    0.50      0.158705084
 17  -1508.064934600     -0.721720520      0.000000539      0.000007370    0.49      0.158693813
 18  -1508.064933487     -0.721719407      0.000001113      0.000004510    0.49      0.158683140
 19  -1508.064932579     -0.721718500      0.000000908      0.000001492    0.49      0.158661412
 20  -1508.064932103     -0.721718023      0.000000477      0.000000952    0.49      0.158659772
               --- The Coupled-Cluster iterations have converged ---

----------------------
COUPLED CLUSTER ENERGY
----------------------

E(0)                                       ...  -1507.343214080
E(CORR)                                    ...     -0.721718023
E(TOT)                                     ...  -1508.064932103
Singles norm <S|S>**1/2                    ...      0.158659772 ( 0.077033191, 0.081626581)  
T1 diagnostic                              ...      0.036399048                              

------------------
LARGEST AMPLITUDES
------------------
  13b-> 24b  -1b-> -1b       0.102626
  13b-> 17b  -1b-> -1b       0.078094
   9a-> 15a  -1a-> -1a       0.072484
  14a-> 15a  -1a-> -1a       0.071543
  13b-> 23b  -1b-> -1b       0.060219
  14a-> 15a  13b-> 14b       0.048708
   9a-> 19a  -1a-> -1a       0.040712
  14a-> 19a  -1a-> -1a       0.037398
   9a-> 15a  13b-> 24b       0.036225
  13b-> 14b  -1b-> -1b       0.036022
  14a-> 15a  13b-> 25b       0.035244
  12a-> 22a  -1a-> -1a       0.035094
  13a-> 23a  -1a-> -1a       0.035094
  11b-> 21b  -1b-> -1b       0.033669
  12b-> 22b  -1b-> -1b       0.033669
  14a-> 18a  -1a-> -1a       0.033086

----------------------
UHF TRIPLES CORRECTION (Algorithm 1)
----------------------

Multiplier for the singles contribution    ...      1.000000000

SPIN-CASE Alpha-Alpha-Alpha:
10% done
20% done
30% done
40% done
50% done
60% done
70% done
80% done
90% done


SPIN-CASE Beta-Beta-Beta:
10% done
20% done
30% done
40% done
50% done
60% done
70% done
80% done
90% done


SPIN-CASE Alpha-Alpha-Beta:
10% done
20% done
30% done
40% done
50% done
60% done
70% done
80% done
90% done


SPIN-CASE Beta-Beta-Alpha:
10% done
20% done
30% done
40% done
50% done
60% done
70% done
80% done
90% done


Triples Correction (T)                     ...     -0.022206322
    alpha-alpha-alpha ... -0.001052042 (  4.7%)
    alpha-alpha-beta  ... -0.010971827 ( 49.4%)
    alpha-beta -beta  ... -0.009510723 ( 42.8%)
    beta -beta -beta  ... -0.000671730 (  3.0%)
Scaling of triples based on CCSD energies (Peterson et al. Molecular Physics 113, 1551 (2015))
E(T*) = f*E(T) where f = E(F12-CCSD)/E(CCSD) 
f = CCSD (with F12)/ CCSD (without F12)    ...      1.000000000
Scaled triples correction (T)              ...     -0.022206322

Final correlation energy                   ...     -0.743924345
E(CCSD)                                    ...  -1508.064932103
E(CCSD(T))                                 ...  -1508.087138425



        !!!!!!!!!!!!!!!!!!!!!!!!!!!!!!!!!!!!!!!!!!!!!!!!!!!!!!!!!!!!!!!!!!!!!!!!!! 
        !  Warning: Densities are linearized densities                           !
        !!!!!!!!!!!!!!!!!!!!!!!!!!!!!!!!!!!!!!!!!!!!!!!!!!!!!!!!!!!!!!!!!!!!!!!!!! 

NORM  =      1.172075452 sqrt=     1.082624336
W(HF) =      0.853187394
------------------------------------------------------------------------------
                           ORCA POPULATION ANALYSIS
------------------------------------------------------------------------------
Input electron density              ... 43_NiH.mdcip
Input spin density                  ... 43_NiH.mdcir
BaseName (.gbw .S,...)              ... 43_NiH

                    ********************************
                    * MULLIKEN POPULATION ANALYSIS *
                    ********************************

------------------------------------------
MULLIKEN ATOMIC CHARGES AND SPIN DENSITIES
------------------------------------------
   0 Ni:    0.226426    1.050223
   1 H :   -0.226426   -0.050223
Sum of atomic charges       :   -0.0000000
Sum of atomic spin densities:    1.0000000

---------------------------------------------------
MULLIKEN REDUCED ORBITAL CHARGES AND SPIN DENSITIES
---------------------------------------------------
CHARGE
  0 Nis       :     6.636734  s :     6.636734
      pz      :     4.069468  p :    12.082783
      px      :     4.006657
      py      :     4.006657
      dz2     :     1.067485  d :     9.018631
      dxz     :     1.986034
      dyz     :     1.986034
      dx2y2   :     1.989539
      dxy     :     1.989539
      f0      :     0.004290  f :     0.032136
      f+1     :     0.004319
      f-1     :     0.004319
      f+2     :     0.004862
      f-2     :     0.004862
      f+3     :     0.004742
      f-3     :     0.004742
      g0      :     0.000346  g :     0.003290
      g+1     :     0.000352
      g-1     :     0.000352
      g+2     :     0.000365
      g-2     :     0.000365
      g+3     :     0.000379
      g-3     :     0.000379
      g+4     :     0.000376
      g-4     :     0.000376
  1 H s       :     1.196918  s :     1.196918
      pz      :     0.011765  p :     0.027308
      px      :     0.007771
      py      :     0.007771
      dz2     :     0.000837  d :     0.002200
      dxz     :     0.000586
      dyz     :     0.000586
      dx2y2   :     0.000095
      dxy     :     0.000095

SPIN
  0 Nis       :     0.242703  s :     0.242703
      pz      :     0.001292  p :     0.003099
      px      :     0.000904
      py      :     0.000904
      dz2     :     0.795273  d :     0.801475
      dxz     :     0.001369
      dyz     :     0.001369
      dx2y2   :     0.001732
      dxy     :     0.001732
      f0      :     0.001142  f :     0.002614
      f+1     :     0.000725
      f-1     :     0.000725
      f+2     :    -0.000085
      f-2     :    -0.000085
      f+3     :     0.000096
      f-3     :     0.000096
      g0      :     0.000092  g :     0.000332
      g+1     :     0.000072
      g-1     :     0.000072
      g+2     :     0.000031
      g-2     :     0.000031
      g+3     :    -0.000003
      g-3     :    -0.000003
      g+4     :     0.000019
      g-4     :     0.000019
  1 H s       :    -0.048813  s :    -0.048813
      pz      :    -0.000271  p :    -0.001571
      px      :    -0.000650
      py      :    -0.000650
      dz2     :     0.000229  d :     0.000161
      dxz     :    -0.000026
      dyz     :    -0.000026
      dx2y2   :    -0.000007
      dxy     :    -0.000007


                     *******************************
                     * LOEWDIN POPULATION ANALYSIS *
                     *******************************

-----------------------------------------
LOEWDIN ATOMIC CHARGES AND SPIN DENSITIES
-----------------------------------------
   0 Ni:    0.185297    1.003290
   1 H :   -0.185297   -0.003290

--------------------------------------------------
LOEWDIN REDUCED ORBITAL CHARGES AND SPIN DENSITIES
--------------------------------------------------
CHARGE
  0 Nis       :     6.634449  s :     6.634449
      pz      :     4.112414  p :    12.126202
      px      :     4.006894
      py      :     4.006894
      dz2     :     1.102333  d :     9.017687
      dxz     :     1.968468
      dyz     :     1.968468
      dx2y2   :     1.989209
      dxy     :     1.989209
      f0      :     0.005064  f :     0.033080
      f+1     :     0.004403
      f-1     :     0.004403
      f+2     :     0.004863
      f-2     :     0.004863
      f+3     :     0.004742
      f-3     :     0.004742
      g0      :     0.000347  g :     0.003285
      g+1     :     0.000349
      g-1     :     0.000349
      g+2     :     0.000365
      g-2     :     0.000365
      g+3     :     0.000379
      g-3     :     0.000379
      g+4     :     0.000376
      g-4     :     0.000376
  1 H s       :     1.088202  s :     1.088202
      pz      :     0.037675  p :     0.079348
      px      :     0.020837
      py      :     0.020837
      dz2     :     0.007361  d :     0.017747
      dxz     :     0.004769
      dyz     :     0.004769
      dx2y2   :     0.000424
      dxy     :     0.000424

SPIN
  0 Nis       :     0.220149  s :     0.220149
      pz      :    -0.010489  p :    -0.009002
      px      :     0.000743
      py      :     0.000743
      dz2     :     0.782289  d :     0.789313
      dxz     :     0.001773
      dyz     :     0.001773
      dx2y2   :     0.001739
      dxy     :     0.001739
      f0      :     0.001033  f :     0.002506
      f+1     :     0.000726
      f-1     :     0.000726
      f+2     :    -0.000085
      f-2     :    -0.000085
      f+3     :     0.000096
      f-3     :     0.000096
      g0      :     0.000087  g :     0.000323
      g+1     :     0.000070
      g-1     :     0.000070
      g+2     :     0.000031
      g-2     :     0.000031
      g+3     :    -0.000003
      g-3     :    -0.000003
      g+4     :     0.000019
      g-4     :     0.000019
  1 H s       :    -0.005876  s :    -0.005876
      pz      :     0.002116  p :     0.000415
      px      :    -0.000851
      py      :    -0.000851
      dz2     :     0.002337  d :     0.002171
      dxz     :    -0.000069
      dyz     :    -0.000069
      dx2y2   :    -0.000014
      dxy     :    -0.000014


                      *****************************
                      * MAYER POPULATION ANALYSIS *
                      *****************************

  NA   - Mulliken gross atomic population
  ZA   - Total nuclear charge
  QA   - Mulliken gross atomic charge
  VA   - Mayer's total valence
  BVA  - Mayer's bonded valence
  FA   - Mayer's free valence

  ATOM       NA         ZA         QA         VA         BVA        FA
  0 Ni    27.7736    28.0000     0.2264     2.5907     0.9088     1.6819
  1 H      1.2264     1.0000    -0.2264     1.0499     0.9088     0.1410

  Mayer bond orders larger than 0.100000
B(  0-Ni,  1-H ) :   0.9088 



------------------------------------------------------------------------------- 
                                     TIMINGS                                   
------------------------------------------------------------------------------- 


Total execution time                   ...       12.731 sec

Fock Matrix Formation                  ...        0.230 sec (  1.8%)
Initial Guess                          ...        0.018 sec (  0.1%)
DIIS Solver                            ...        0.974 sec (  7.6%)
State Vector Update                    ...        0.045 sec (  0.4%)
Sigma-vector construction              ...        9.316 sec ( 73.2%)
  <0|H|D>                              ...        0.003 sec (  0.0% of sigma)
  <D|H|D>(0-ext Fock)                  ...        0.015 sec (  0.2% of sigma)
  <D|H|D>(0-ext)                       ...        0.053 sec (  0.6% of sigma)
  <D|H|D>(2-ext Fock)                  ...        0.005 sec (  0.1% of sigma)
  <D|H|D>(2-ext)                       ...        0.216 sec (  2.3% of sigma)
  <D|H|D>(4-ext)                       ...        3.310 sec ( 35.5% of sigma)
  <S|H|0>                              ...        0.556 sec (  6.0% of sigma)
  <S|H|S>                              ...        0.003 sec (  0.0% of sigma)
  <S|H|D>(1-ext)                       ...        0.006 sec (  0.1% of sigma)
  <D|H|S>(1-ext)                       ...        0.089 sec (  1.0% of sigma)
  Fock-dressing                        ...        2.527 sec ( 27.1% of sigma)
  (ik|jl)-dressing                     ...        0.071 sec (  0.8% of sigma)
  (ij|ab),(ia|jb)-dressing             ...        1.913 sec ( 20.5% of sigma)
  Pair energies                        ...        0.005 sec (  0.1% of sigma)
Total Time for computing (T)           ...        0.799 sec (  6.3% of ALL)
  I/O of integral and amplitudes       ...        0.156 sec ( 19.5% of (T))
  External N**7 contributions          ...        0.201 sec ( 25.2% of (T))
  Internal N**7 contributions          ...        0.090 sec ( 11.2% of (T))
  N**6 triples energy contributions    ...        0.338 sec ( 42.3% of (T))

----- Orbital basis set information -----
Your calculation utilizes the basis: def2-QZVPP
   F. Weigend and R. Ahlrichs, Phys. Chem. Chem. Phys. 7, 3297 (2005).

----- AuxJ basis set information -----
Your calculation utilizes the auxiliary basis: def2/J
   F. Weigend, Phys. Chem. Chem. Phys. 8, 1057 (2006).

----- AuxC basis set information -----
Your calculation utilizes the auxiliary basis: def2-QZVPP/C
  H-La, Hf-Rn : A. Hellweg, C. Hattig, S. Hofener and W. Klopper, Theor. Chem. Acc. 117, 587 (2007).
        Ce-Lu : J. Chmela and M. E. Harding, Mol. Phys. (2018).

----- AuxJK basis set information -----
Your calculation utilizes the auxiliary basis: def2/JK
   H-Ba, Hf-Rn: F. Weigend, J. Comput. Chem. 29, 167 (2008).

All done

                     -----------------------------------------
                     Extrapolated Energy 2 Basis=  def2-QZVPP
                     -----------------------------------------

---------------------------------
CARTESIAN COORDINATES (ANGSTROEM)
---------------------------------
  Ni     0.000000    0.000000    0.253391
  H      0.000000    0.000000    1.746609

----------------------------
CARTESIAN COORDINATES (A.U.)
----------------------------
  NO LB      ZA    FRAG     MASS         X           Y           Z
   0 Ni   28.0000    0    58.700    0.000000    0.000000    0.478840
   1 H     1.0000    0     1.008    0.000000    0.000000    3.300612

--------------------------------
INTERNAL COORDINATES (ANGSTROEM)
--------------------------------
 Ni     0   0   0     0.000000000000     0.00000000     0.00000000
 H      1   0   0     1.493217413072     0.00000000     0.00000000

---------------------------
INTERNAL COORDINATES (A.U.)
---------------------------
 Ni     0   0   0     0.000000000000     0.00000000     0.00000000
 H      1   0   0     2.821771969108     0.00000000     0.00000000

---------------------
BASIS SET INFORMATION
---------------------
There are 2 groups of distinct atoms

 Group   1 Type Ni  : 24s18p10d4f2g contracted to 11s6p5d4f2g pattern {114111111111/951111/61111/1111/11}
 Group   2 Type H   : 7s3p2d1f contracted to 4s3p2d1f pattern {4111/111/11/1}

Atom   0Ni   basis set group =>   1
Atom   1H    basis set group =>   2
---------------------------------
AUXILIARY/J BASIS SET INFORMATION
---------------------------------
There are 2 groups of distinct atoms

 Group   1 Type Ni  : 19s5p5d3f3g contracted to 8s5p5d2f3g pattern {121111111/11111/11111/21/111}
 Group   2 Type H   : 5s2p1d contracted to 3s1p1d pattern {311/2/1}

Atom   0Ni   basis set group =>   1
Atom   1H    basis set group =>   2
---------------------------------
AUXILIARY/C BASIS SET INFORMATION
---------------------------------
There are 2 groups of distinct atoms

 Group   1 Type Ni  : 15s13p11d9f7g5h2i contracted to 15s13p11d9f7g5h2i pattern {111111111111111/1111111111111/11111111111/111111111/1111111/11111/11}
 Group   2 Type H   : 6s4p3d2f1g contracted to 6s4p3d2f1g pattern {111111/1111/111/11/1}

Atom   0Ni   basis set group =>   1
Atom   1H    basis set group =>   2
----------------------------------
AUXILIARY/JK BASIS SET INFORMATION
----------------------------------
There are 2 groups of distinct atoms

 Group   1 Type Ni  : 19s14p12d10f7g3h1i contracted to 16s13p11d9f5g3h1i pattern {4111111111111111/2111111111111/21111111111/211111111/31111/111/1}
 Group   2 Type H   : 4s2p2d contracted to 2s2p2d pattern {31/11/11}

Atom   0Ni   basis set group =>   1
Atom   1H    basis set group =>   2

Checking for AutoStart:
The File: 43_NiH.gbw exists
Trying to determine its content:
     ... Fine, the file contains calculation information
     ... Fine, the calculation information was read
     ... Fine, the file contains a basis set
     ... Fine, the basis set was read
     ... Fine, the file contains a geometry
     ... Fine, the geometry was read
     ... Fine, the file contains a set of orbitals
     ... Fine, the orbitals can be read
     => possible old guess file was deleted
     => GBW file was renamed to GES file
     => GES file is set as startup file
     => Guess is set to MORead
     ... now leaving AutoStart



           ************************************************************
           *        Program running with 24 parallel MPI-processes    *
           *              working on a common directory               *
           ************************************************************
------------------------------------------------------------------------------
                           ORCA GTO INTEGRAL CALCULATION
------------------------------------------------------------------------------

                         BASIS SET STATISTICS AND STARTUP INFO

 # of primitive gaussian shells          ...   71
 # of primitive gaussian functions       ...  207
 # of contracted shells                  ...   38
 # of contracted basis functions         ...  130
 Highest angular momentum                ...    4
 Maximum contraction depth               ...   11
 Integral package used                   ... LIBINT
 Integral threshhold            Thresh   ...  1.000e-12
 Primitive cut-off              TCut     ...  1.000e-14


------------------------------ INTEGRAL EVALUATION ----------------------------


 * One electron integrals 
 Pre-screening matrix                    ... done
 Shell pair data                         ... done (   0.000 sec)



           ************************************************************
           *        Program running with 24 parallel MPI-processes    *
           *              working on a common directory               *
           ************************************************************
-------------------------------------------------------------------------------
                                 ORCA SCF
-------------------------------------------------------------------------------

------------
SCF SETTINGS
------------
Hamiltonian:
 Ab initio Hamiltonian  Method          .... Hartree-Fock(GTOs)


General Settings:
 Integral files         IntName         .... 43_NiH
 Hartree-Fock type      HFTyp           .... UHF
 Total Charge           Charge          ....    0
 Multiplicity           Mult            ....    2
 Number of Electrons    NEL             ....   29
 Basis Dimension        Dim             ....  130
 Nuclear Repulsion      ENuc            ....      9.9228429180 Eh

Convergence Acceleration:
 DIIS                   CNVDIIS         .... on
   Start iteration      DIISMaxIt       ....    12
   Startup error        DIISStart       ....  0.200000
   # of expansion vecs  DIISMaxEq       ....     5
   Bias factor          DIISBfac        ....   1.050
   Max. coefficient     DIISMaxC        ....  10.000
 Newton-Raphson         CNVNR           .... off
 SOSCF                  CNVSOSCF        .... off
 Level Shifting         CNVShift        .... on
   Level shift para.    LevelShift      ....    0.2500
   Turn off err/grad.   ShiftErr        ....    0.0010
 Zerner damping         CNVZerner       .... off
 Static damping         CNVDamp         .... on
   Fraction old density DampFac         ....    0.7000
   Max. Damping (<1)    DampMax         ....    0.9800
   Min. Damping (>=0)   DampMin         ....    0.0000
   Turn off err/grad.   DampErr         ....    0.1000
 Fernandez-Rico         CNVRico         .... off

SCF Procedure:
 Maximum # iterations   MaxIter         ....   125
 SCF integral mode      SCFMode         .... Direct
   Integral package                     .... LIBINT
 Reset frequency        DirectResetFreq ....    20
 Integral Threshold     Thresh          ....  1.000e-12 Eh
 Primitive CutOff       TCut            ....  1.000e-14 Eh

Convergence Tolerance:
 Convergence Check Mode ConvCheckMode   .... Total+1el-Energy
 Convergence forced     ConvForced      .... 1
 Energy Change          TolE            ....  1.000e-09 Eh
 1-El. energy change                    ....  1.000e-06 Eh
 DIIS Error             TolErr          ....  1.000e-08


Diagonalization of the overlap matrix:
Smallest eigenvalue                        ... 5.169e-04
Time for diagonalization                   ...    0.004 sec
Threshold for overlap eigenvalues          ... 1.000e-08
Number of eigenvalues below threshold      ... 0
Time for construction of square roots      ...    0.002 sec
Total time needed                          ...    0.006 sec

---------------------
INITIAL GUESS: MOREAD
---------------------
Guess MOs are being read from file: 43_NiH.ges
Input Geometry matches current geometry (good)
Atom 0: N(Shells)= 28 and 18 - projection required
Input basis set needs projection
NBasis(read)= 78
NBasis(calc)= 130
Basis set overlap was calculated
Using GuessMode=FMatrix for the initial guess
C*T matrix was formed
Effective Fockian was calculated
Effective Fockian was diagonalized
Initial density was built
C*T matrix was formed
Effective Fockian was calculated
Effective Fockian was diagonalized
Initial density was built
                      ------------------
                      INITIAL GUESS DONE (   0.0 sec)
                      ------------------
--------------
SCF ITERATIONS
--------------
ITER       Energy         Delta-E        Max-DP      RMS-DP      [F,P]     Damp
               ***  Starting incremental Fock matrix formation  ***
  0  -1507.3727868611   0.000000000000 0.00676531  0.00018105  0.0756298 0.7000
  1  -1507.3736803998  -0.000893538690 0.00502552  0.00013197  0.0529224 0.7000
                               ***Turning on DIIS***
  2  -1507.3743259039  -0.000645504091 0.01286256  0.00032436  0.0370329 0.0000
  3  -1507.3758504049  -0.001524501000 0.00244039  0.00004550  0.0019677 0.0000
[...]
  1  -1508.076003191     -0.700068144      0.123827331      0.016862962    2.59      0.092024225
  2  -1508.119187136     -0.743252089     -0.043183945      0.008137311    2.45      0.073424311
  3  -1508.119230783     -0.743295736     -0.000043647      0.006989112    2.50      0.093791685
  4  -1508.121850743     -0.745915697     -0.002619961      0.005118611    2.46      0.108527689
  5  -1508.124007064     -0.748072017     -0.002156321      0.003563730    2.60      0.126596035
  6  -1508.125098005     -0.749162958     -0.001090941      0.002266939    2.58      0.142312890
  7  -1508.125394582     -0.749459536     -0.000296577      0.001232797    2.68      0.152309893
  8  -1508.125814794     -0.749879747     -0.000420212      0.000821020    2.56      0.159480618
  9  -1508.125833862     -0.749898815     -0.000019068      0.000511498    2.49      0.160818959
 10  -1508.125847035     -0.749911988     -0.000013172      0.000268074    2.52      0.162237151
 11  -1508.125921033     -0.749985986     -0.000073998      0.000123784    2.48      0.162989722
 12  -1508.125895493     -0.749960446      0.000025540      0.000096770    2.52      0.163026294
 13  -1508.125893532     -0.749958485      0.000001961      0.000062345    2.48      0.163297697
 14  -1508.125883290     -0.749948243      0.000010242      0.000037982    2.52      0.163336409
 15  -1508.125880229     -0.749945182      0.000003061      0.000021105    2.46      0.163426682
 16  -1508.125882672     -0.749947625     -0.000002443      0.000015652    2.45      0.163481557
 17  -1508.125882145     -0.749947098      0.000000527      0.000010831    2.50      0.163521942
 18  -1508.125883645     -0.749948598     -0.000001500      0.000005651    2.62      0.163533671
 19  -1508.125883795     -0.749948748     -0.000000150      0.000002283    2.54      0.163530849
 20  -1508.125883354     -0.749948307      0.000000442      0.000001135    2.49      0.163532230
 21  -1508.125883521     -0.749948474     -0.000000167      0.000000781    2.48      0.163531050
               --- The Coupled-Cluster iterations have converged ---

----------------------
COUPLED CLUSTER ENERGY
----------------------

E(0)                                       ...  -1507.375935047
E(CORR)                                    ...     -0.749948474
E(TOT)                                     ...  -1508.125883521
Singles norm <S|S>**1/2                    ...      0.163531050 ( 0.080142033, 0.083389017)  
T1 diagnostic                              ...      0.037516596                              

------------------
LARGEST AMPLITUDES
------------------
  13b-> 28b  -1b-> -1b       0.074283
  13b-> 27b  -1b-> -1b       0.073101
  14a-> 15a  -1a-> -1a       0.069019
  13b-> 26b  -1b-> -1b       0.067108
  14a-> 19a  -1a-> -1a       0.058801
   9a-> 15a  -1a-> -1a       0.056625
  13b-> 32b  -1b-> -1b       0.054706
   9a-> 19a  -1a-> -1a       0.038342
  13b-> 14b  -1b-> -1b       0.036707
  13b-> 19b  -1b-> -1b       0.036678
  13b-> 18b  -1b-> -1b       0.032454
  11b-> 23b  -1b-> -1b       0.030477
  12b-> 22b  -1b-> -1b       0.030477
  14a-> 15a  13b-> 14b       0.029145
   9a-> 28a  -1a-> -1a       0.028987
  11a-> 25a  -1a-> -1a       0.028237

----------------------
UHF TRIPLES CORRECTION (Algorithm 1)
----------------------

Multiplier for the singles contribution    ...      1.000000000

SPIN-CASE Alpha-Alpha-Alpha:
10% done
20% done
30% done
40% done
50% done
60% done
70% done
80% done
90% done


SPIN-CASE Beta-Beta-Beta:
10% done
20% done
30% done
40% done
50% done
60% done
70% done
80% done
90% done


SPIN-CASE Alpha-Alpha-Beta:
10% done
20% done
30% done
40% done
50% done
60% done
70% done
80% done
90% done


SPIN-CASE Beta-Beta-Alpha:
10% done
20% done
30% done
40% done
50% done
60% done
70% done
80% done
90% done


Triples Correction (T)                     ...     -0.027689985
    alpha-alpha-alpha ... -0.001361133 (  4.9%)
    alpha-alpha-beta  ... -0.013662208 ( 49.3%)
    alpha-beta -beta  ... -0.011808826 ( 42.6%)
    beta -beta -beta  ... -0.000857818 (  3.1%)
Scaling of triples based on CCSD energies (Peterson et al. Molecular Physics 113, 1551 (2015))
E(T*) = f*E(T) where f = E(F12-CCSD)/E(CCSD) 
f = CCSD (with F12)/ CCSD (without F12)    ...      1.000000000
Scaled triples correction (T)              ...     -0.027689985

Final correlation energy                   ...     -0.777638459
E(CCSD)                                    ...  -1508.125883521
E(CCSD(T))                                 ...  -1508.153573506



        !!!!!!!!!!!!!!!!!!!!!!!!!!!!!!!!!!!!!!!!!!!!!!!!!!!!!!!!!!!!!!!!!!!!!!!!!! 
        !  Warning: Densities are linearized densities                           !
        !!!!!!!!!!!!!!!!!!!!!!!!!!!!!!!!!!!!!!!!!!!!!!!!!!!!!!!!!!!!!!!!!!!!!!!!!! 

NORM  =      1.179217138 sqrt=     1.085917648
W(HF) =      0.848020240
------------------------------------------------------------------------------
                           ORCA POPULATION ANALYSIS
------------------------------------------------------------------------------
Input electron density              ... 43_NiH.mdcip
Input spin density                  ... 43_NiH.mdcir
BaseName (.gbw .S,...)              ... 43_NiH

                    ********************************
                    * MULLIKEN POPULATION ANALYSIS *
                    ********************************

------------------------------------------
MULLIKEN ATOMIC CHARGES AND SPIN DENSITIES
------------------------------------------
   0 Ni:    0.186432    1.047340
   1 H :   -0.186432   -0.047340
Sum of atomic charges       :    0.0000000
Sum of atomic spin densities:    1.0000000

---------------------------------------------------
MULLIKEN REDUCED ORBITAL CHARGES AND SPIN DENSITIES
---------------------------------------------------
CHARGE
  0 Nis       :     6.675619  s :     6.675619
      pz      :     4.078324  p :    12.091146
      px      :     4.006411
      py      :     4.006411
      dz2     :     1.066131  d :     9.000793
      dxz     :     1.979820
      dyz     :     1.979820
      dx2y2   :     1.987510
      dxy     :     1.987510
      f0      :     0.006027  f :     0.041171
      f+1     :     0.005491
      f-1     :     0.005491
      f+2     :     0.006234
      f-2     :     0.006234
      f+3     :     0.005847
      f-3     :     0.005847
      g0      :     0.000520  g :     0.004840
      g+1     :     0.000511
      g-1     :     0.000511
      g+2     :     0.000535
      g-2     :     0.000535
      g+3     :     0.000559
      g-3     :     0.000559
      g+4     :     0.000554
      g-4     :     0.000554
  1 H s       :     1.149400  s :     1.149400
      pz      :     0.009207  p :     0.031983
      px      :     0.011388
      py      :     0.011388
      dz2     :     0.000914  d :     0.004630
      dxz     :     0.001498
      dyz     :     0.001498
      dx2y2   :     0.000361
      dxy     :     0.000361
      f0      :     0.000130  f :     0.000419
      f+1     :     0.000106
      f-1     :     0.000106
      f+2     :     0.000034
      f-2     :     0.000034
      f+3     :     0.000005
      f-3     :     0.000005

SPIN
  0 Nis       :     0.250530  s :     0.250530
      pz      :    -0.001463  p :     0.000794
      px      :     0.001129
      py      :     0.001129
      dz2     :     0.786334  d :     0.793571
      dxz     :     0.001761
      dyz     :     0.001761
      dx2y2   :     0.001858
      dxy     :     0.001858
      f0      :     0.000752  f :     0.001969
      f+1     :     0.000773
      f-1     :     0.000773
      f+2     :    -0.000175
      f-2     :    -0.000175
      f+3     :     0.000010
      f-3     :     0.000010
      g0      :     0.000139  g :     0.000476
      g+1     :     0.000098
      g-1     :     0.000098
      g+2     :     0.000039
      g-2     :     0.000039
      g+3     :    -0.000004
      g-3     :    -0.000004
      g+4     :     0.000035
      g-4     :     0.000035
  1 H s       :    -0.047582  s :    -0.047582
      pz      :     0.001673  p :    -0.000019
      px      :    -0.000846
      py      :    -0.000846
      dz2     :     0.000453  d :     0.000189
      dxz     :    -0.000086
      dyz     :    -0.000086
      dx2y2   :    -0.000046
      dxy     :    -0.000046
      f0      :     0.000072  f :     0.000072
      f+1     :     0.000004
      f-1     :     0.000004
      f+2     :    -0.000005
      f-2     :    -0.000005
      f+3     :    -0.000000
      f-3     :    -0.000000


                     *******************************
                     * LOEWDIN POPULATION ANALYSIS *
                     *******************************

-----------------------------------------
LOEWDIN ATOMIC CHARGES AND SPIN DENSITIES
-----------------------------------------
   0 Ni:    0.196696    0.993632
   1 H :   -0.196696    0.006368

--------------------------------------------------
LOEWDIN REDUCED ORBITAL CHARGES AND SPIN DENSITIES
--------------------------------------------------
CHARGE
  0 Nis       :     6.637935  s :     6.637935
      pz      :     4.110331  p :    12.121897
      px      :     4.005783
      py      :     4.005783
      dz2     :     1.106206  d :     8.981654
      dxz     :     1.951520
      dyz     :     1.951520
      dx2y2   :     1.986205
      dxy     :     1.986205
      f0      :     0.019831  f :     0.056924
      f+1     :     0.006421
      f-1     :     0.006421
      f+2     :     0.006279
      f-2     :     0.006279
      f+3     :     0.005846
      f-3     :     0.005846
      g0      :     0.000589  g :     0.004894
      g+1     :     0.000506
      g-1     :     0.000506
      g+2     :     0.000533
      g-2     :     0.000533
      g+3     :     0.000559
      g-3     :     0.000559
      g+4     :     0.000554
      g-4     :     0.000554
  1 H s       :     1.030408  s :     1.030408
      pz      :     0.048442  p :     0.099778
      px      :     0.025668
      py      :     0.025668
      dz2     :     0.028510  d :     0.058156
      dxz     :     0.013421
      dyz     :     0.013421
      dx2y2   :     0.001402
      dxy     :     0.001402
      f0      :     0.004020  f :     0.008354
      f+1     :     0.001906
      f-1     :     0.001906
      f+2     :     0.000257
      f-2     :     0.000257
      f+3     :     0.000005
      f-3     :     0.000005

SPIN
  0 Nis       :     0.217384  s :     0.217384
      pz      :    -0.012020  p :    -0.010070
      px      :     0.000975
      py      :     0.000975
      dz2     :     0.777811  d :     0.785818
      dxz     :     0.002135
      dyz     :     0.002135
      dx2y2   :     0.001869
      dxy     :     0.001869
      f0      :    -0.001093  f :     0.000064
      f+1     :     0.000747
      f-1     :     0.000747
      f+2     :    -0.000179
      f-2     :    -0.000179
      f+3     :     0.000010
      f-3     :     0.000010
      g0      :     0.000112  g :     0.000436
      g+1     :     0.000090
      g-1     :     0.000090
      g+2     :     0.000041
      g-2     :     0.000041
      g+3     :    -0.000004
      g-3     :    -0.000004
      g+4     :     0.000035
      g-4     :     0.000035
  1 H s       :     0.001005  s :     0.001005
      pz      :     0.003328  p :     0.001422
      px      :    -0.000953
      py      :    -0.000953
      dz2     :     0.003285  d :     0.002867
      dxz     :    -0.000156
      dyz     :    -0.000156
      dx2y2   :    -0.000053
      dxy     :    -0.000053
      f0      :     0.001095  f :     0.001074
      f+1     :    -0.000005
      f-1     :    -0.000005
      f+2     :    -0.000006
      f-2     :    -0.000006
      f+3     :    -0.000000
      f-3     :    -0.000000


                      *****************************
                      * MAYER POPULATION ANALYSIS *
                      *****************************

  NA   - Mulliken gross atomic population
  ZA   - Total nuclear charge
  QA   - Mulliken gross atomic charge
  VA   - Mayer's total valence
  BVA  - Mayer's bonded valence
  FA   - Mayer's free valence

  ATOM       NA         ZA         QA         VA         BVA        FA
  0 Ni    27.8136    28.0000     0.1864     2.6854     0.9447     1.7408
  1 H      1.1864     1.0000    -0.1864     1.0768     0.9447     0.1322

  Mayer bond orders larger than 0.100000
B(  0-Ni,  1-H ) :   0.9447 



------------------------------------------------------------------------------- 
                                     TIMINGS                                   
------------------------------------------------------------------------------- 


Total execution time                   ...       67.683 sec

Fock Matrix Formation                  ...        0.831 sec (  1.2%)
Initial Guess                          ...        0.061 sec (  0.1%)
DIIS Solver                            ...        3.474 sec (  5.1%)
State Vector Update                    ...        0.152 sec (  0.2%)
Sigma-vector construction              ...       51.637 sec ( 76.3%)
  <0|H|D>                              ...        0.008 sec (  0.0% of sigma)
  <D|H|D>(0-ext Fock)                  ...        0.062 sec (  0.1% of sigma)
  <D|H|D>(0-ext)                       ...        0.235 sec (  0.5% of sigma)
  <D|H|D>(2-ext Fock)                  ...        0.024 sec (  0.0% of sigma)
  <D|H|D>(2-ext)                       ...        1.051 sec (  2.0% of sigma)
  <D|H|D>(4-ext)                       ...       25.409 sec ( 49.2% of sigma)
  <S|H|0>                              ...        2.926 sec (  5.7% of sigma)
  <S|H|S>                              ...        0.003 sec (  0.0% of sigma)
  <S|H|D>(1-ext)                       ...        0.016 sec (  0.0% of sigma)
  <D|H|S>(1-ext)                       ...        0.262 sec (  0.5% of sigma)
  Fock-dressing                        ...       11.894 sec ( 23.0% of sigma)
  (ik|jl)-dressing                     ...        0.280 sec (  0.5% of sigma)
  (ij|ab),(ia|jb)-dressing             ...        7.782 sec ( 15.1% of sigma)
  Pair energies                        ...        0.012 sec (  0.0% of sigma)
Total Time for computing (T)           ...        5.980 sec (  8.8% of ALL)
  I/O of integral and amplitudes       ...        1.106 sec ( 18.5% of (T))
  External N**7 contributions          ...        1.939 sec ( 32.4% of (T))
  Internal N**7 contributions          ...        0.722 sec ( 12.1% of (T))
  N**6 triples energy contributions    ...        2.131 sec ( 35.6% of (T))


-------------------
EXTRAPOLATED ENERGY
-------------------


-----------------------------------------------------------------
                      EP1 - MDCI extrapolation:
-----------------------------------------------------------------
NOTE: We use as reference SCF energy, for the extrapolation, the one from the MDCI module and not the one 
from the SCF calculation. In case the first step is a DFT calculation these two might be different.

NOTE: For the SCF part we extrapolate based on the scheme proposed in J. Chem. Phys. 2008, 129, 184116
using the exponents from J. Chem. Theory Comput., 7, 33-43 (2011)

NOTE: For the correlation part we extrapolate based on the scheme proposed in J. Chem. Phys. 1997, 106, 9639
using the exponents from J. Chem. Theory Comput., 7, 33-43 (2011)


Alpha(3/4)     :  7.880 (SCF Extrapolation)
Beta(3/4)      :  2.970 (correlation extrapolation)

SCF energy with basis def2-TZVPP:                     -1507.343214080
SCF energy with basis def2-QZVPP:                     -1507.375935047
Extrapolated CBS SCF energy (3/4) :                   -1507.380441990 (-0.004506943) 

MDCI energy with basis def2-TZVPP:                       -0.743924345
MDCI energy with basis def2-QZVPP:                       -0.777638459
Extrapolated CBS correlation energy (3/4) :              -0.802611858 (-0.024973399)

Estimated CBS total energy (3/4) :                    -1508.183053848



-------------------------   --------------------
FINAL SINGLE POINT ENERGY     -1508.183053848396
-------------------------   --------------------


                            ***************************************
                            *     ORCA property calculations      *
                            ***************************************

                                    ---------------------
                                    Active property flags
                                    ---------------------
   (+) Dipole Moment


------------------------------------------------------------------------------
                       ORCA ELECTRIC PROPERTIES CALCULATION
------------------------------------------------------------------------------

Dipole Moment Calculation                       ... on
Quadrupole Moment Calculation                   ... off
Polarizability Calculation                      ... off
GBWName                                         ... 43_NiH.gbw
Electron density file                           ... 43_NiH.scfp
The origin for moment calculation is the CENTER OF MASS  = ( 0.000000,  0.000000  0.526478)

-------------
DIPOLE MOMENT
-------------
                                X             Y             Z
Electronic contribution:     -0.00000      -0.00000      -3.11794
Nuclear contribution   :      0.00000       0.00000       1.44028
                        -----------------------------------------
Total Dipole Moment    :     -0.00000      -0.00000      -1.67766
                        -----------------------------------------
Magnitude (a.u.)       :      1.67766
Magnitude (Debye)      :      4.26428



--------------------
Rotational spectrum 
--------------------
 
Rotational constants in cm-1:     0.000000     7.629300     7.629300 
Rotational constants in MHz :     0.000000 228720.664008 228720.664008 

 Dipole components along the rotational axes: 
x,y,z [a.u.] :    -1.677664    -0.000000    -0.000000 
x,y,z [Debye]:    -4.264282    -0.000000    -0.000000 

 

                           *** MDCI DENSITY ***

------------------------------------------------------------------------------
                       ORCA ELECTRIC PROPERTIES CALCULATION
------------------------------------------------------------------------------

Dipole Moment Calculation                       ... on
Quadrupole Moment Calculation                   ... off
Polarizability Calculation                      ... off
GBWName                                         ... 43_NiH.gbw
Electron density file                           ... 43_NiH.mdcip
The origin for moment calculation is the CENTER OF MASS  = ( 0.000000,  0.000000  0.526478)

-------------
DIPOLE MOMENT
-------------
                                X             Y             Z
Electronic contribution:      0.00000       0.00000      -2.60828
Nuclear contribution   :      0.00000       0.00000       1.44028
                        -----------------------------------------
Total Dipole Moment    :      0.00000       0.00000      -1.16799
                        -----------------------------------------
Magnitude (a.u.)       :      1.16799
Magnitude (Debye)      :      2.96880



--------------------
Rotational spectrum 
--------------------
 
Rotational constants in cm-1:     0.000000     7.629300     7.629300 
Rotational constants in MHz :     0.000000 228720.664008 228720.664008 

 Dipole components along the rotational axes: 
x,y,z [a.u.] :    -1.167994     0.000000     0.000000 
x,y,z [Debye]:    -2.968804     0.000000     0.000000 

 

Timings for individual modules:

Sum of individual times         ...       93.382 sec (=   1.556 min)
GTO integral calculation        ...        1.763 sec (=   0.029 min)   1.9 %
SCF iterations                  ...        9.726 sec (=   0.162 min)  10.4 %
MDCI module                     ...       81.894 sec (=   1.365 min)  87.7 %
                             ****ORCA TERMINATED NORMALLY****
TOTAL RUN TIME: 0 days 0 hours 1 minutes 34 seconds 484 msec
