
                                 *****************
                                 * O   R   C   A *
                                 *****************

           --- An Ab Initio, DFT and Semiempirical electronic structure package ---

                  #######################################################
                  #                        -***-                        #
                  #          Department of theory and spectroscopy      #
                  #               Directorship: Frank Neese             #
                  #        Max Planck Institute fuer Kohlenforschung    #
                  #                Kaiser Wilhelm Platz 1               #
                  #                 D-45470 Muelheim/Ruhr               #
                  #                      Germany                        #
                  #                                                     #
                  #                  All rights reserved                #
                  #                        -***-                        #
                  #######################################################


                         Program Version 4.2.0 -  RELEASE  -


 With contributions from (in alphabetic order):
   Daniel Aravena         : Magnetic Suceptibility
   Michael Atanasov       : Ab Initio Ligand Field Theory (pilot matlab implementation)
   Alexander A. Auer      : GIAO ZORA, VPT2
   Ute Becker             : Parallelization
   Giovanni Bistoni       : ED, misc. LED, open-shell LED, HFLED
   Martin Brehm           : Molecular dynamics
   Dmytro Bykov           : SCF Hessian
   Vijay G. Chilkuri      : MRCI spin determinant printing, contributions to CSF-ICE
   Dipayan Datta          : RHF DLPNO-CCSD density
   Achintya Kumar Dutta   : EOM-CC, STEOM-CC
   Dmitry Ganyushin       : Spin-Orbit,Spin-Spin,Magnetic field MRCI
   Miquel Garcia          : C-PCM Hessian, Gaussian charge scheme
   Yang Guo               : DLPNO-NEVPT2, CIM, IAO-localization
   Andreas Hansen         : Spin unrestricted coupled pair/coupled cluster methods
   Benjamin Helmich-Paris : CASSCF linear response (MC-RPA)
   Lee Huntington         : MR-EOM, pCC
   Robert Izsak           : Overlap fitted RIJCOSX, COSX-SCS-MP3, EOM
   Christian Kollmar      : KDIIS, OOCD, Brueckner-CCSD(T), CCSD density
   Simone Kossmann        : Meta GGA functionals, TD-DFT gradient, OOMP2, MP2 Hessian
   Martin Krupicka        : AUTO-CI
   Lucas Lang             : DCDCAS
   Dagmar Lenk            : GEPOL surface, SMD
   Dimitrios Liakos       : Extrapolation schemes; Compound Job, initial MDCI parallelization
   Dimitrios Manganas     : Further ROCIS development; embedding schemes
   Dimitrios Pantazis     : SARC Basis sets
   Taras Petrenko         : DFT Hessian,TD-DFT gradient, ASA, ECA, R-Raman, ABS, FL, XAS/XES, NRVS
   Peter Pinski           : DLPNO-MP2, DLPNO-MP2 Gradient
   Christoph Reimann      : Effective Core Potentials
   Marius Retegan         : Local ZFS, SOC
   Christoph Riplinger    : Optimizer, TS searches, QM/MM, DLPNO-CCSD(T), (RO)-DLPNO pert. Triples
   Tobias Risthaus        : Range-separated hybrids, TD-DFT gradient, RPA, STAB
   Michael Roemelt        : Original ROCIS implementation
   Masaaki Saitow         : Open-shell DLPNO-CCSD energy and density
   Barbara Sandhoefer     : DKH picture change effects
   Avijit Sen             : IP-ROCIS
   Kantharuban Sivalingam : CASSCF convergence, NEVPT2, FIC-MRCI
   Bernardo de Souza      : ESD, SOC TD-DFT
   Georgi Stoychev        : AutoAux, RI-MP2 NMR
   Willem Van den Heuvel  : Paramagnetic NMR
   Boris Wezisla          : Elementary symmetry handling
   Frank Wennmohs         : Technical directorship


 We gratefully acknowledge several colleagues who have allowed us to
 interface, adapt or use parts of their codes:
   Stefan Grimme, W. Hujo, H. Kruse,             : VdW corrections, initial TS optimization,
                  C. Bannwarth                     DFT functionals, gCP, sTDA/sTD-DF
   Ed Valeev, F. Pavosevic, A. Kumar             : LibInt (2-el integral package), F12 methods
   Garnet Chan, S. Sharma, J. Yang, R. Olivares  : DMRG
   Ulf Ekstrom                                   : XCFun DFT Library
   Mihaly Kallay                                 : mrcc  (arbitrary order and MRCC methods)
   Andreas Klamt, Michael Diedenhofen            : otool_cosmo (COSMO solvation model)
   Jiri Pittner, Ondrej Demel                    : Mk-CCSD
   Frank Weinhold                                : gennbo (NPA and NBO analysis)
   Christopher J. Cramer and Donald G. Truhlar   : smd solvation model
   Lars Goerigk                                  : TD-DFT with DH, B97 family of functionals
   V. Asgeirsson, H. Jonsson                     : NEB implementation
   FAccTs GmbH                                   : IRC, NEB, NEB-TS, Multilevel, MM, QM/MM, CI optimization
   S Lehtola, MJT Oliveira, MAL Marques          : LibXC Library


 Your calculation uses the libint2 library for the computation of 2-el integrals
 For citations please refer to: http://libint.valeyev.net

 Your ORCA version has been built with support for libXC version: 4.2.3
 For citations please refer to: https://tddft.org/programs/libxc/

 This ORCA versions uses:
   CBLAS   interface :  Fast vector & matrix operations
   LAPACKE interface :  Fast linear algebra routines
   SCALAPACK package :  Parallel linear algebra routines


----- Orbital basis set information -----
Your calculation utilizes the basis: def2-TZVPP
   F. Weigend and R. Ahlrichs, Phys. Chem. Chem. Phys. 7, 3297 (2005).

================================================================================
                                        WARNINGS
                       Please study these warnings very carefully!
================================================================================


WARNING: your system is open-shell and RHF/RKS was chosen
  ===> : WILL SWITCH to UHF/UKS


WARNING: MDCI localization with Augmented Hessian Foster-Boys
  ===> : Switching off randomization!

WARNING: Post HF methods need fully converged wavefunctions
  ===> : Setting SCFConvForced true
         You can overwrite this default with %scf ConvForced false 


INFO   : the flag for use of LIBINT has been found!

================================================================================
                                       INPUT FILE
================================================================================
NAME = 44_NiF.in
|  1> #
|  2> # 44_NiF ccsd(t)/cbs
|  3> #
|  4> ! ccsd(t) extrapolate(3/4,def2) verytightscf
|  5> 
|  6> *xyz 0 2
|  7>   Ni  0.00000000000000      0.00000000000000      0.12374716283349
|  8>   F   0.00000000000000      0.00000000000000      1.87625283716651
|  9> *
| 10> 
| 11> %maxcore 5000
| 12> %pal
| 13> nprocs 24
| 14> end
| 15> 
| 16> 
| 17>                          ****END OF INPUT****
================================================================================

                   *****************************************
                   * Extrapolated Single Point Calculation *
                   *****************************************

----- Orbital basis set information -----
Your calculation utilizes the basis: def2-TZVPP
   F. Weigend and R. Ahlrichs, Phys. Chem. Chem. Phys. 7, 3297 (2005).

----- AuxJ basis set information -----
Your calculation utilizes the auxiliary basis: def2/J
   F. Weigend, Phys. Chem. Chem. Phys. 8, 1057 (2006).

----- AuxC basis set information -----
Your calculation utilizes the auxiliary basis: def2-TZVPP/C
  H-La, Hf-Rn : A. Hellweg, C. Hattig, S. Hofener and W. Klopper, Theor. Chem. Acc. 117, 587 (2007).
        Ce-Lu : J. Chmela and M. E. Harding, Mol. Phys. (2018).

----- AuxJK basis set information -----
Your calculation utilizes the auxiliary basis: def2/JK
   H-Ba, Hf-Rn: F. Weigend, J. Comput. Chem. 29, 167 (2008).

All done

                     -----------------------------------------
                     Extrapolated Energy 1 Basis=  def2-TZVPP
                     -----------------------------------------

---------------------------------
CARTESIAN COORDINATES (ANGSTROEM)
---------------------------------
  Ni     0.000000    0.000000    0.123747
  F      0.000000    0.000000    1.876253

----------------------------
CARTESIAN COORDINATES (A.U.)
----------------------------
  NO LB      ZA    FRAG     MASS         X           Y           Z
   0 Ni   28.0000    0    58.700    0.000000    0.000000    0.233848
   1 F     9.0000    0    18.998    0.000000    0.000000    3.545604

--------------------------------
INTERNAL COORDINATES (ANGSTROEM)
--------------------------------
 Ni     0   0   0     0.000000000000     0.00000000     0.00000000
 F      1   0   0     1.752505674333     0.00000000     0.00000000

---------------------------
INTERNAL COORDINATES (A.U.)
---------------------------
 Ni     0   0   0     0.000000000000     0.00000000     0.00000000
 F      1   0   0     3.311755772632     0.00000000     0.00000000

---------------------
BASIS SET INFORMATION
---------------------
There are 2 groups of distinct atoms

 Group   1 Type Ni  : 17s12p7d2f1g contracted to 6s5p4d2f1g pattern {842111/63111/4111/11/1}
 Group   2 Type F   : 11s6p2d1f contracted to 5s3p2d1f pattern {62111/411/11/1}

Atom   0Ni   basis set group =>   1
Atom   1F    basis set group =>   2
---------------------------------
AUXILIARY/J BASIS SET INFORMATION
---------------------------------
There are 2 groups of distinct atoms

 Group   1 Type Ni  : 19s5p5d3f3g contracted to 8s5p5d2f3g pattern {121111111/11111/11111/21/111}
 Group   2 Type F   : 12s5p4d2f1g contracted to 6s4p3d1f1g pattern {711111/2111/211/2/1}

Atom   0Ni   basis set group =>   1
Atom   1F    basis set group =>   2
---------------------------------
AUXILIARY/C BASIS SET INFORMATION
---------------------------------
There are 2 groups of distinct atoms

 Group   1 Type Ni  : 9s9p8d7f5g3h1i contracted to 9s9p8d7f5g3h1i pattern {111111111/111111111/11111111/1111111/11111/111/1}
 Group   2 Type F   : 8s6p5d3f1g contracted to 8s6p4d3f1g pattern {11111111/111111/2111/111/1}

Atom   0Ni   basis set group =>   1
Atom   1F    basis set group =>   2
----------------------------------
AUXILIARY/JK BASIS SET INFORMATION
----------------------------------
There are 2 groups of distinct atoms

 Group   1 Type Ni  : 19s14p12d10f7g3h1i contracted to 16s13p11d9f5g3h1i pattern {4111111111111111/2111111111111/21111111111/211111111/31111/111/1}
 Group   2 Type F   : 14s10p6d2f1g contracted to 10s8p4d2f1g pattern {5111111111/31111111/3111/11/1}

Atom   0Ni   basis set group =>   1
Atom   1F    basis set group =>   2


           ************************************************************
           *        Program running with 24 parallel MPI-processes    *
           *              working on a common directory               *
           ************************************************************
------------------------------------------------------------------------------
                           ORCA GTO INTEGRAL CALCULATION
------------------------------------------------------------------------------

                         BASIS SET STATISTICS AND STARTUP INFO

 # of primitive gaussian shells          ...   59
 # of primitive gaussian functions       ...  157
 # of contracted shells                  ...   29
 # of contracted basis functions         ...   95
 Highest angular momentum                ...    4
 Maximum contraction depth               ...    8
 Integral package used                   ... LIBINT
 Integral threshhold            Thresh   ...  1.000e-12
 Primitive cut-off              TCut     ...  1.000e-14


------------------------------ INTEGRAL EVALUATION ----------------------------


 * One electron integrals 
 Pre-screening matrix                    ... done
 Shell pair data                         ... done (   0.000 sec)



           ************************************************************
           *        Program running with 24 parallel MPI-processes    *
           *              working on a common directory               *
           ************************************************************
-------------------------------------------------------------------------------
                                 ORCA SCF
-------------------------------------------------------------------------------

------------
SCF SETTINGS
------------
Hamiltonian:
 Ab initio Hamiltonian  Method          .... Hartree-Fock(GTOs)


General Settings:
 Integral files         IntName         .... 44_NiF
 Hartree-Fock type      HFTyp           .... UHF
 Total Charge           Charge          ....    0
 Multiplicity           Mult            ....    2
 Number of Electrons    NEL             ....   37
 Basis Dimension        Dim             ....   95
 Nuclear Repulsion      ENuc            ....     76.0925675989 Eh

Convergence Acceleration:
 DIIS                   CNVDIIS         .... on
   Start iteration      DIISMaxIt       ....    12
   Startup error        DIISStart       ....  0.200000
   # of expansion vecs  DIISMaxEq       ....     5
   Bias factor          DIISBfac        ....   1.050
   Max. coefficient     DIISMaxC        ....  10.000
 Newton-Raphson         CNVNR           .... off
 SOSCF                  CNVSOSCF        .... off
 Level Shifting         CNVShift        .... on
   Level shift para.    LevelShift      ....    0.2500
   Turn off err/grad.   ShiftErr        ....    0.0010
 Zerner damping         CNVZerner       .... off
 Static damping         CNVDamp         .... on
   Fraction old density DampFac         ....    0.7000
   Max. Damping (<1)    DampMax         ....    0.9800
   Min. Damping (>=0)   DampMin         ....    0.0000
   Turn off err/grad.   DampErr         ....    0.1000
 Fernandez-Rico         CNVRico         .... off

SCF Procedure:
 Maximum # iterations   MaxIter         ....   125
 SCF integral mode      SCFMode         .... Direct
   Integral package                     .... LIBINT
 Reset frequency        DirectResetFreq ....    20
 Integral Threshold     Thresh          ....  1.000e-12 Eh
 Primitive CutOff       TCut            ....  1.000e-14 Eh

Convergence Tolerance:
 Convergence Check Mode ConvCheckMode   .... Total+1el-Energy
 Convergence forced     ConvForced      .... 1
 Energy Change          TolE            ....  1.000e-09 Eh
 1-El. energy change                    ....  1.000e-06 Eh
 DIIS Error             TolErr          ....  1.000e-08


Diagonalization of the overlap matrix:
Smallest eigenvalue                        ... 8.668e-03
Time for diagonalization                   ...    0.018 sec
Threshold for overlap eigenvalues          ... 1.000e-08
Number of eigenvalues below threshold      ... 0
Time for construction of square roots      ...    0.001 sec
Total time needed                          ...    0.019 sec

-------------------
DFT GRID GENERATION
-------------------

General Integration Accuracy     IntAcc      ...  4.340
Radial Grid Type                 RadialGrid  ... Gauss-Chebyshev
Angular Grid (max. acc.)         AngularGrid ... Lebedev-110
Angular grid pruning method      GridPruning ... 3 (G Style)
Weight generation scheme         WeightScheme... Becke
Basis function cutoff            BFCut       ...    1.0000e-12
Integration weight cutoff        WCut        ...    1.0000e-14
Grids for H and He will be reduced by one unit

# of grid points (after initial pruning)     ...   4652 (   0.0 sec)
# of grid points (after weights+screening)   ...   4627 (   0.0 sec)
nearest neighbour list constructed           ...    0.0 sec
Grid point re-assignment to atoms done       ...    0.0 sec
Grid point division into batches done        ...    0.0 sec
Reduced shell lists constructed in    0.0 sec

Total number of grid points                  ...     4627
Total number of batches                      ...       73
Average number of points per batch           ...       63
Average number of grid points per atom       ...     2314
Average number of shells per batch           ...     6.80 (23.45%)
Average number of basis functions per batch  ...    18.80 (19.79%)
Average number of large shells per batch     ...     6.40 (94.12%)
Average number of large basis fcns per batch ...    17.60 (93.62%)
Maximum spatial batch extension              ...  17.39, 26.34, 14.81 au
Average spatial batch extension              ...   0.92,  1.21,  0.81 au

Time for grid setup =    0.020 sec

------------------------------
INITIAL GUESS: MODEL POTENTIAL
------------------------------
Loading Hartree-Fock densities                     ... done
Calculating cut-offs                               ... done
Setting up the integral package                    ... done
Initializing the effective Hamiltonian             ... done
Starting the Coulomb interaction                   ... done (   0.0 sec)
Reading the grid                                   ... done
Mapping shells                                     ... done
Starting the XC term evaluation                    ... done (   0.0 sec)
Transforming the Hamiltonian                       ... done (   0.0 sec)
Diagonalizing the Hamiltonian                      ... done (   0.0 sec)
Back transforming the eigenvectors                 ... done (   0.0 sec)
Now organizing SCF variables                       ... done
                      ------------------
                      INITIAL GUESS DONE (   0.1 sec)
                      ------------------
--------------
SCF ITERATIONS
--------------
ITER       Energy         Delta-E        Max-DP      RMS-DP      [F,P]     Damp
               ***  Starting incremental Fock matrix formation  ***
  0  -1606.1902847538   0.000000000000 0.01516745  0.00058658  0.3356176 0.7000
  1  -1606.2271538797  -0.036869125961 0.01015300  0.00036366  0.2496232 0.7000
                               ***Turning on DIIS***
  2  -1606.2477522997  -0.020598419951 0.00692872  0.00022424  0.1841960 0.7000
  3  -1606.6391675183  -0.391415218608 0.00619746  0.00017061  0.1343611 0.7000
  4  -1606.4141411919   0.225026326350 0.01858288  0.00048855  0.0944556 0.0000
  5  -1606.3122030189   0.101938173064 0.00373190  0.00011376  0.0102956 0.0000
  6  -1606.2962096137   0.015993405160 0.00412805  0.00008337  0.0069125 0.0000
  7  -1606.3082736961  -0.012064082399 0.00442155  0.00007323  0.0049755 0.0000
  8  -1606.3127281266  -0.004454430530 0.00281278  0.00004340  0.0029594 0.0000
  9  -1606.2952019737   0.017526152931 0.00360258  0.00004914  0.0022869 0.0000
 10  -1606.2999594113  -0.004757437558 0.00327438  0.00004361  0.0013568 0.0000
 11  -1606.2982405484   0.001718862882 0.00210702  0.00003163  0.0006943 0.0000
 12  -1606.3010300286  -0.002789480203 0.00055659  0.00001032  0.0001737 0.0000
 13  -1606.3012998689  -0.000269840344 0.00007735  0.00000257  0.0000660 0.0000
 14  -1606.3017295064  -0.000429637467 0.00003678  0.00000120  0.0000284 0.0000
 15  -1606.3015284934   0.000201013020 0.00001807  0.00000051  0.0000114 0.0000
 16  -1606.3015862107  -0.000057717315 0.00000703  0.00000022  0.0000043 0.0000
 17  -1606.3016132946  -0.000027083949 0.00000580  0.00000017  0.0000027 0.0000
 18  -1606.3015826591   0.000030635516 0.00000501  0.00000016  0.0000013 0.0000
 19  -1606.3015807359   0.000001923171 0.00000347  0.00000011  0.0000011 0.0000
               *** Restarting incremental Fock matrix formation ***
                                   *** Resetting DIIS ***
 20  -1606.3015808763  -0.000000140343 0.00000071  0.00000001  0.0000007 0.0000
 21  -1606.3015789227   0.000001953633 0.00000135  0.00000002  0.0000005 0.0000
 22  -1606.3015798325  -0.000000909841 0.00000060  0.00000001  0.0000002 0.0000
 23  -1606.3015821770  -0.000002344545 0.00000032  0.00000000  0.0000001 0.0000
 24  -1606.3015808963   0.000001280700 0.00000007  0.00000000  0.0000000 0.0000
                            ***DIIS convergence achieved***

               *****************************************************
               *                     SUCCESS                       *
               *           SCF CONVERGED AFTER  25 CYCLES          *
               *****************************************************


----------------
TOTAL SCF ENERGY
----------------

Total Energy       :        -1606.30158091 Eh          -43709.68817 eV

Components:
Nuclear Repulsion  :           76.09256760 Eh            2070.58403 eV
Electronic Energy  :        -1682.39414851 Eh          -45780.27220 eV
One Electron Energy:        -2392.23377155 Eh          -65095.99034 eV
Two Electron Energy:          709.83962305 Eh           19315.71814 eV

Virial components:
Potential Energy   :        -3212.44234356 Eh          -87415.00026 eV
Kinetic Energy     :         1606.14076265 Eh           43705.31209 eV
Virial Ratio       :            2.00010013


---------------
SCF CONVERGENCE
---------------

  Last Energy change         ...   -1.2102e-08  Tolerance :   1.0000e-09
  Last MAX-Density change    ...    1.3773e-08  Tolerance :   1.0000e-08
  Last RMS-Density change    ...    2.7295e-10  Tolerance :   1.0000e-09
  Last DIIS Error            ...    9.7563e-09  Tolerance :   1.0000e-08

             **** THE GBW FILE WAS UPDATED (44_NiF.gbw) ****
             **** DENSITY FILE WAS UPDATED (44_NiF.scfp) ****
             **** ENERGY FILE WAS UPDATED (44_NiF.en.tmp) ****
----------------------
UHF SPIN CONTAMINATION
----------------------

Expectation value of <S**2>     :     0.753948
Ideal value S*(S+1) for S=0.5   :     0.750000
Deviation                       :     0.003948

             **** THE GBW FILE WAS UPDATED (44_NiF.gbw) ****
             **** DENSITY FILE WAS UPDATED (44_NiF.scfp) ****
----------------
ORBITAL ENERGIES
----------------
                 SPIN UP ORBITALS
  NO   OCC          E(Eh)            E(eV) 
   0   1.0000    -305.413461     -8310.7228 
   1   1.0000     -37.702968     -1025.9499 
   2   1.0000     -32.753685      -891.2731 
   3   1.0000     -32.720598      -890.3727 
   4   1.0000     -32.720598      -890.3727 
   5   1.0000     -26.123137      -710.8467 
   6   1.0000      -4.716572      -128.3444 
   7   1.0000      -3.187728       -86.7425 
   8   1.0000      -3.106631       -84.5357 
   9   1.0000      -3.106631       -84.5357 
  10   1.0000      -1.395267       -37.9671 
  11   1.0000      -0.595252       -16.1976 
  12   1.0000      -0.539256       -14.6739 
  13   1.0000      -0.539256       -14.6739 
  14   1.0000      -0.469302       -12.7704 
  15   1.0000      -0.469302       -12.7704 
  16   1.0000      -0.452853       -12.3228 
  17   1.0000      -0.448370       -12.2008 
  18   1.0000      -0.448370       -12.2008 
  19   0.0000       0.003655         0.0994 
  20   0.0000       0.150454         4.0941 
  21   0.0000       0.150454         4.0941 
  22   0.0000       0.208730         5.6798 
  23   0.0000       0.305808         8.3214 
  24   0.0000       0.319250         8.6872 
  25   0.0000       0.319250         8.6872 
  26   0.0000       0.356389         9.6978 
  27   0.0000       0.356389         9.6978 
  28   0.0000       0.398112        10.8332 
  29   0.0000       0.744880        20.2692 
  30   0.0000       0.744880        20.2692 
  31   0.0000       0.841994        22.9118 
  32   0.0000       0.868358        23.6292 
  33   0.0000       0.951913        25.9029 
  34   0.0000       0.951913        25.9029 
  35   0.0000       1.299565        35.3630 
  36   0.0000       1.299565        35.3630 
  37   0.0000       1.302969        35.4556 
  38   0.0000       1.311757        35.6947 
  39   0.0000       1.311757        35.6947 
  40   0.0000       1.490584        40.5609 
  41   0.0000       2.399927        65.3053 
  42   0.0000       2.399927        65.3053 
  43   0.0000       2.476571        67.3909 
  44   0.0000       2.476571        67.3909 
  45   0.0000       2.647619        72.0454 
  46   0.0000       3.293816        89.6293 
  47   0.0000       3.294966        89.6606 
  48   0.0000       3.294966        89.6606 
  49   0.0000       3.443375        93.6990 
  50   0.0000       3.443375        93.6990 
  51   0.0000       3.446784        93.7918 
  52   0.0000       3.446784        93.7918 
  53   0.0000       3.491274        95.0024 
  54   0.0000       3.538842        96.2968 
  55   0.0000       3.538842        96.2968 
  56   0.0000       3.716410       101.1286 
  57   0.0000       3.886313       105.7520 
  58   0.0000       3.886313       105.7520 
  59   0.0000       4.315146       117.4211 
  60   0.0000       4.675596       127.2294 
  61   0.0000       4.759230       129.5052 
  62   0.0000       4.759230       129.5052 
  63   0.0000       4.773316       129.8885 
  64   0.0000       4.773316       129.8885 
  65   0.0000       4.834376       131.5501 
  66   0.0000       7.537607       205.1087 
  67   0.0000       7.537607       205.1087 
  68   0.0000       7.546996       205.3642 
  69   0.0000       7.546996       205.3642 
  70   0.0000       7.566855       205.9046 
  71   0.0000       7.566855       205.9046 
  72   0.0000       7.626506       207.5278 
  73   0.0000       9.022652       245.5188 
  74   0.0000       9.022652       245.5188 
  75   0.0000       9.130653       248.4577 
  76   0.0000       9.130653       248.4577 
  77   0.0000       9.490594       258.2522 
  78   0.0000      12.189769       331.7005 
  79   0.0000      12.189769       331.7005 
  80   0.0000      12.199290       331.9595 
  81   0.0000      12.211763       332.2990 
  82   0.0000      12.211763       332.2990 
  83   0.0000      12.239374       333.0503 
  84   0.0000      12.239374       333.0503 
  85   0.0000      12.239859       333.0635 
  86   0.0000      12.239859       333.0635 
  87   0.0000      12.663078       344.5799 
  88   0.0000      12.663078       344.5799 
  89   0.0000      12.665563       344.6475 
  90   0.0000      12.665563       344.6475 
  91   0.0000      12.677087       344.9611 
  92   0.0000      12.677087       344.9611 
  93   0.0000      12.880452       350.4949 
  94   0.0000      58.746193      1598.5652 

                 SPIN DOWN ORBITALS
  NO   OCC          E(Eh)            E(eV) 
   0   1.0000    -305.412451     -8310.6953 
   1   1.0000     -37.667076     -1024.9732 
   2   1.0000     -32.697713      -889.7500 
   3   1.0000     -32.697713      -889.7500 
   4   1.0000     -32.694680      -889.6675 
   5   1.0000     -26.123611      -710.8596 
   6   1.0000      -4.621595      -125.7600 
   7   1.0000      -3.040530       -82.7370 
   8   1.0000      -3.040530       -82.7370 
   9   1.0000      -2.979833       -81.0854 
  10   1.0000      -1.396006       -37.9873 
  11   1.0000      -0.526342       -14.3225 
  12   1.0000      -0.526342       -14.3225 
  13   1.0000      -0.521348       -14.1866 
  14   1.0000      -0.431954       -11.7541 
  15   1.0000      -0.431954       -11.7541 
  16   1.0000      -0.417806       -11.3691 
  17   1.0000      -0.417806       -11.3691 
  18   0.0000       0.004320         0.1176 
  19   0.0000       0.155360         4.2276 
  20   0.0000       0.155360         4.2276 
  21   0.0000       0.180470         4.9108 
  22   0.0000       0.287728         7.8295 
  23   0.0000       0.322725         8.7818 
  24   0.0000       0.322725         8.7818 
  25   0.0000       0.358914         9.7665 
  26   0.0000       0.358914         9.7665 
  27   0.0000       0.399938        10.8829 
  28   0.0000       0.473578        12.8867 
  29   0.0000       0.755232        20.5509 
  30   0.0000       0.755232        20.5509 
  31   0.0000       0.859682        23.3931 
  32   0.0000       0.884787        24.0763 
  33   0.0000       0.951828        25.9005 
  34   0.0000       0.951828        25.9005 
  35   0.0000       1.305228        35.5171 
  36   0.0000       1.308273        35.5999 
  37   0.0000       1.308273        35.5999 
  38   0.0000       1.326057        36.0839 
  39   0.0000       1.326057        36.0839 
  40   0.0000       1.599818        43.5332 
  41   0.0000       2.399877        65.3040 
  42   0.0000       2.399877        65.3040 
  43   0.0000       2.482646        67.5562 
  44   0.0000       2.482646        67.5562 
  45   0.0000       2.677008        72.8451 
  46   0.0000       3.311478        90.1099 
  47   0.0000       3.311478        90.1099 
  48   0.0000       3.336832        90.7998 
  49   0.0000       3.449824        93.8745 
  50   0.0000       3.449824        93.8745 
  51   0.0000       3.464246        94.2669 
  52   0.0000       3.464246        94.2669 
  53   0.0000       3.518470        95.7424 
  54   0.0000       3.592529        97.7577 
  55   0.0000       3.592529        97.7577 
  56   0.0000       3.744870       101.9031 
  57   0.0000       3.890250       105.8591 
  58   0.0000       3.890250       105.8591 
  59   0.0000       4.333668       117.9251 
  60   0.0000       4.712760       128.2407 
  61   0.0000       4.782735       130.1448 
  62   0.0000       4.782735       130.1448 
  63   0.0000       4.789871       130.3390 
  64   0.0000       4.789871       130.3390 
  65   0.0000       4.975437       135.3885 
  66   0.0000       7.537111       205.0952 
  67   0.0000       7.537111       205.0952 
  68   0.0000       7.546800       205.3589 
  69   0.0000       7.546800       205.3589 
  70   0.0000       7.566338       205.8905 
  71   0.0000       7.566338       205.8905 
  72   0.0000       7.628214       207.5743 
  73   0.0000       9.022049       245.5024 
  74   0.0000       9.022049       245.5024 
  75   0.0000       9.130343       248.4493 
  76   0.0000       9.130343       248.4493 
  77   0.0000       9.493383       258.3281 
  78   0.0000      12.245433       333.2152 
  79   0.0000      12.245433       333.2152 
  80   0.0000      12.245572       333.2190 
  81   0.0000      12.245572       333.2190 
  82   0.0000      12.255431       333.4872 
  83   0.0000      12.255431       333.4872 
  84   0.0000      12.263304       333.7015 
  85   0.0000      12.263304       333.7015 
  86   0.0000      12.280216       334.1617 
  87   0.0000      12.679586       345.0291 
  88   0.0000      12.679586       345.0291 
  89   0.0000      12.710084       345.8590 
  90   0.0000      12.710084       345.8590 
  91   0.0000      12.772391       347.5544 
  92   0.0000      12.772391       347.5544 
  93   0.0000      13.030247       354.5710 
  94   0.0000      58.746012      1598.5602 

                    ********************************
                    * MULLIKEN POPULATION ANALYSIS *
                    ********************************

--------------------------------------------
MULLIKEN ATOMIC CHARGES AND SPIN POPULATIONS
--------------------------------------------
   0 Ni:    0.727865    0.998020
   1 F :   -0.727865    0.001980
Sum of atomic charges         :   -0.0000000
Sum of atomic spin populations:    1.0000000

-----------------------------------------------------
MULLIKEN REDUCED ORBITAL CHARGES AND SPIN POPULATIONS
-----------------------------------------------------
CHARGE
  0 Nis       :     6.107233  s :     6.107233
      pz      :     4.049636  p :    12.127988
      px      :     4.039176
      py      :     4.039176
      dz2     :     1.017345  d :     9.033554
      dxz     :     2.008222
      dyz     :     2.008222
      dx2y2   :     1.999882
      dxy     :     1.999882
      f0      :     0.001728  f :     0.003295
      f+1     :     0.000726
      f-1     :     0.000726
      f+2     :     0.000057
      f-2     :     0.000057
      f+3     :     0.000000
      f-3     :     0.000000
      g0      :     0.000031  g :     0.000064
      g+1     :     0.000010
      g-1     :     0.000010
      g+2     :     0.000006
      g-2     :     0.000006
      g+3     :     0.000000
      g-3     :     0.000000
      g+4     :     0.000000
      g-4     :     0.000000
  1 F s       :     3.968425  s :     3.968425
      pz      :     1.853523  p :     5.755214
      px      :     1.950846
      py      :     1.950846
      dz2     :     0.002009  d :     0.004072
      dxz     :     0.000981
      dyz     :     0.000981
      dx2y2   :     0.000051
      dxy     :     0.000051
      f0      :     0.000070  f :     0.000155
      f+1     :     0.000039
      f-1     :     0.000039
      f+2     :     0.000003
      f-2     :     0.000003
      f+3     :     0.000000
      f-3     :     0.000000

SPIN
  0 Nis       :     0.039013  s :     0.039013
      pz      :     0.007697  p :     0.007749
      px      :     0.000026
      py      :     0.000026
      dz2     :     0.948274  d :     0.951524
      dxz     :     0.001610
      dyz     :     0.001610
      dx2y2   :     0.000014
      dxy     :     0.000014
      f0      :    -0.000125  f :    -0.000280
      f+1     :    -0.000075
      f-1     :    -0.000075
      f+2     :    -0.000002
      f-2     :    -0.000002
      f+3     :    -0.000000
      f-3     :    -0.000000
      g0      :     0.000010  g :     0.000013
      g+1     :     0.000008
      g-1     :     0.000008
      g+2     :    -0.000006
      g-2     :    -0.000006
      g+3     :     0.000000
      g-3     :    -0.000000
      g+4     :     0.000000
      g-4     :     0.000000
  1 F s       :     0.001775  s :     0.001775
      pz      :     0.003185  p :     0.000026
      px      :    -0.001580
      py      :    -0.001580
      dz2     :     0.000138  d :     0.000148
      dxz     :     0.000011
      dyz     :     0.000011
      dx2y2   :    -0.000006
      dxy     :    -0.000006
      f0      :     0.000033  f :     0.000032
      f+1     :    -0.000000
      f-1     :    -0.000000
      f+2     :    -0.000000
      f-2     :    -0.000000
      f+3     :     0.000000
      f-3     :     0.000000


                     *******************************
                     * LOEWDIN POPULATION ANALYSIS *
                     *******************************

-------------------------------------------
LOEWDIN ATOMIC CHARGES AND SPIN POPULATIONS
-------------------------------------------
   0 Ni:    0.436114    0.996401
   1 F :   -0.436114    0.003599

----------------------------------------------------
LOEWDIN REDUCED ORBITAL CHARGES AND SPIN POPULATIONS
----------------------------------------------------
CHARGE
  0 Nis       :     6.127596  s :     6.127596
      pz      :     4.139174  p :    12.245551
      px      :     4.053188
      py      :     4.053188
      dz2     :     1.109972  d :     9.184415
      dxz     :     2.037442
      dyz     :     2.037442
      dx2y2   :     1.999779
      dxy     :     1.999779
      f0      :     0.003739  f :     0.006247
      f+1     :     0.001196
      f-1     :     0.001196
      f+2     :     0.000058
      f-2     :     0.000058
      f+3     :     0.000000
      f-3     :     0.000000
      g0      :     0.000041  g :     0.000078
      g+1     :     0.000012
      g-1     :     0.000012
      g+2     :     0.000006
      g-2     :     0.000006
      g+3     :     0.000000
      g-3     :     0.000000
      g+4     :     0.000000
      g-4     :     0.000000
  1 F s       :     3.782987  s :     3.782987
      pz      :     1.832879  p :     5.643851
      px      :     1.905486
      py      :     1.905486
      dz2     :     0.003480  d :     0.008859
      dxz     :     0.002546
      dyz     :     0.002546
      dx2y2   :     0.000143
      dxy     :     0.000143
      f0      :     0.000133  f :     0.000417
      f+1     :     0.000129
      f-1     :     0.000129
      f+2     :     0.000013
      f-2     :     0.000013
      f+3     :     0.000000
      f-3     :     0.000000

SPIN
  0 Nis       :     0.041598  s :     0.041598
      pz      :     0.011343  p :     0.010933
      px      :    -0.000205
      py      :    -0.000205
      dz2     :     0.940199  d :     0.944081
      dxz     :     0.001918
      dyz     :     0.001918
      dx2y2   :     0.000023
      dxy     :     0.000023
      f0      :    -0.000061  f :    -0.000222
      f+1     :    -0.000078
      f-1     :    -0.000078
      f+2     :    -0.000002
      f-2     :    -0.000002
      f+3     :    -0.000000
      f-3     :    -0.000000
      g0      :     0.000009  g :     0.000011
      g+1     :     0.000007
      g-1     :     0.000007
      g+2     :    -0.000006
      g-2     :    -0.000006
      g+3     :     0.000000
      g-3     :    -0.000000
      g+4     :     0.000000
      g-4     :     0.000000
  1 F s       :     0.001978  s :     0.001978
      pz      :     0.003295  p :     0.000134
      px      :    -0.001580
      py      :    -0.001580
      dz2     :     0.001540  d :     0.001396
      dxz     :    -0.000058
      dyz     :    -0.000058
      dx2y2   :    -0.000014
      dxy     :    -0.000014
      f0      :     0.000099  f :     0.000091
      f+1     :    -0.000003
      f-1     :    -0.000003
      f+2     :    -0.000001
      f-2     :    -0.000001
      f+3     :     0.000000
      f-3     :     0.000000


                      *****************************
                      * MAYER POPULATION ANALYSIS *
                      *****************************

  NA   - Mulliken gross atomic population
  ZA   - Total nuclear charge
  QA   - Mulliken gross atomic charge
  VA   - Mayer's total valence
  BVA  - Mayer's bonded valence
  FA   - Mayer's free valence

  ATOM       NA         ZA         QA         VA         BVA        FA
  0 Ni    27.2721    28.0000     0.7279     1.4610     0.4883     0.9727
  1 F      9.7279     9.0000    -0.7279     0.4888     0.4883     0.0005

  Mayer bond orders larger than 0.100000
B(  0-Ni,  1-F ) :   0.4883 

-------
TIMINGS
-------

Total SCF time: 0 days 0 hours 0 min 3 sec 

Total time                  ....       3.644 sec
Sum of individual times     ....       3.382 sec  ( 92.8%)

Fock matrix formation       ....       3.151 sec  ( 86.5%)
Diagonalization             ....       0.060 sec  (  1.7%)
Density matrix formation    ....       0.010 sec  (  0.3%)
Population analysis         ....       0.005 sec  (  0.1%)
Initial guess               ....       0.106 sec  (  2.9%)
Orbital Transformation      ....       0.000 sec  (  0.0%)
Orbital Orthonormalization  ....       0.000 sec  (  0.0%)
DIIS solution               ....       0.029 sec  (  0.8%)


           ************************************************************
           *        Program running with 24 parallel MPI-processes    *
           *              working on a common directory               *
           ************************************************************


------------------------------------------------------------------------------- 
                              ORCA-MATRIX DRIVEN CI                            
------------------------------------------------------------------------------- 

--------------------------------
AUTOMATIC CHOICE OF INCORE LEVEL
--------------------------------

Memory available                           ...   2500.00 MB
Memory needed for S+T                      ...     12.03 MB
Memory needed for J+K                      ...     24.17 MB
Memory needed for DIIS                     ...    168.43 MB
Memory needed for 3-ext                    ...     43.54 MB
Memory needed for 4-ext                    ...    128.94 MB
Memory needed for triples                  ...     16.75 MB
 -> Final InCoreLevel    ... 5
 -> check shows that triples correction can be computed


Wavefunction type
-----------------
Correlation treatment                      ...      CCSD     
Single excitations                         ... ON
Orbital optimization                       ... OFF
Calculation of Z vector                    ... OFF
Calculation of Brueckner orbitals          ... OFF
Perturbative triple excitations            ... ON
Calculation of F12 correction              ... OFF
Frozen core treatment                      ... chemical core (12 el)
Reference Wavefunction                     ... UHF
  Alpha-MOs occ    :     6 ...   18 ( 13 MO's/ 13 electrons)
  Beta-MOs occ     :     6 ...   17 ( 12 MO's/ 12 electrons)
  Alpha-MOs virt   :    19 ...   94 ( 76 MO's              )
  Beta-MOs virt    :    18 ...   94 ( 77 MO's              )
Number of AO's                             ...     95
Number of electrons                        ...     37
Number of correlated electrons             ...     25

Algorithmic settings
--------------------
Integral transformation                    ... AO direct full transformation
K(C) Formation                             ... FULL-MO TRAFO
Maximum number of iterations               ...        50
Convergence tolerance (max. residuum)      ... 1.000e-06
Level shift for amplitude update           ... 2.000e-01
Maximum number of DIIS vectors             ...         7
DIIS turned on at iteration                ...         0
Damping before turning on DIIS             ...     0.500
Damping after turning on DIIS              ...     0.000
Pair specific amplitude update             ... OFF
Natural orbital iterations                 ... OFF
Perturbative natural orbital generation    ... OFF
Printlevel                                 ... 2

Memory handling:
----------------
Maximum memory for working arrays          ...   2500 MB
Data storage in matrix containers          ... UNCOMPRESSED
Data type for integral storage             ... DOUBLE
In-Core Storage of quantities:
   Amplitudes+Sigma Vector      ... YES
   J+K operators                ... YES
   DIIS vectors                 ... YES
   3-external integrals         ... YES
   4-external integrals         ... YES


Initializing the integral package          ... done
Warning: reference  - re-canonicalizations have been set to INT 1 VIRT 1

--------------------------
UNRESTRICTED FOCK OPERATOR
--------------------------

<ss|ss>:         1953 b           33 skpd (  1.7%)    0.001 s ( 0.001 ms/b)
<ss|sp>:         5332 b           84 skpd (  1.6%)    0.002 s ( 0.000 ms/b)
<ss|sd>:         4030 b          128 skpd (  3.2%)    0.001 s ( 0.000 ms/b)
<ss|sf>:         1984 b           80 skpd (  4.0%)    0.001 s ( 0.000 ms/b)
<ss|sg>:          682 b           50 skpd (  7.3%)    0.000 s ( 0.001 ms/b)
<ss|pp>:         2232 b           30 skpd (  1.3%)    0.003 s ( 0.001 ms/b)
<ss|pd>:         2976 b           70 skpd (  2.4%)    0.001 s ( 0.000 ms/b)
<ss|pf>:         1488 b           32 skpd (  2.2%)    0.000 s ( 0.000 ms/b)
<ss|pg>:          496 b           10 skpd (  2.0%)    0.001 s ( 0.001 ms/b)
<ss|dd>:         1302 b           18 skpd (  1.4%)    0.002 s ( 0.001 ms/b)
<ss|df>:         1116 b           26 skpd (  2.3%)    0.001 s ( 0.001 ms/b)
<ss|dg>:          372 b           10 skpd (  2.7%)    0.001 s ( 0.002 ms/b)
<ss|ff>:          372 b            9 skpd (  2.4%)    0.000 s ( 0.001 ms/b)
<ss|fg>:          186 b            5 skpd (  2.7%)    0.001 s ( 0.004 ms/b)
<ss|gg>:           62 b            1 skpd (  1.6%)    0.001 s ( 0.016 ms/b)
<sp|sp>:         3741 b           34 skpd (  0.9%)    0.002 s ( 0.001 ms/b)
<sp|sd>:         5590 b          186 skpd (  3.3%)    0.002 s ( 0.000 ms/b)
<sp|sf>:         2752 b          120 skpd (  4.4%)    0.001 s ( 0.000 ms/b)
<sp|sg>:          946 b           92 skpd (  9.7%)    0.001 s ( 0.001 ms/b)
<sp|pp>:         3096 b            8 skpd (  0.3%)    0.003 s ( 0.001 ms/b)
<sp|pd>:         4128 b           44 skpd (  1.1%)    0.003 s ( 0.001 ms/b)
<sp|pf>:         2064 b           12 skpd (  0.6%)    0.001 s ( 0.001 ms/b)
<sp|pg>:          688 b            3 skpd (  0.4%)    0.001 s ( 0.002 ms/b)
<sp|dd>:         1806 b            8 skpd (  0.4%)    0.003 s ( 0.001 ms/b)
<sp|df>:         1548 b           13 skpd (  0.8%)    0.001 s ( 0.001 ms/b)
<sp|dg>:          516 b            9 skpd (  1.7%)    0.002 s ( 0.004 ms/b)
<sp|ff>:          516 b            4 skpd (  0.8%)    0.001 s ( 0.002 ms/b)
<sp|fg>:          258 b            2 skpd (  0.8%)    0.001 s ( 0.005 ms/b)
<sp|gg>:           86 b            0 skpd (  0.0%)    0.002 s ( 0.019 ms/b)
<sd|sd>:         2145 b          120 skpd (  5.6%)    0.001 s ( 0.001 ms/b)
<sd|sf>:         2080 b          131 skpd (  6.3%)    0.001 s ( 0.000 ms/b)
<sd|sg>:          715 b           85 skpd ( 11.9%)    0.001 s ( 0.002 ms/b)
<sd|pp>:         2340 b           53 skpd (  2.3%)    0.002 s ( 0.001 ms/b)
<sd|pd>:         3120 b          120 skpd (  3.8%)    0.003 s ( 0.001 ms/b)
<sd|pf>:         1560 b           52 skpd (  3.3%)    0.001 s ( 0.001 ms/b)
<sd|pg>:          520 b           18 skpd (  3.5%)    0.002 s ( 0.004 ms/b)
<sd|dd>:         1365 b           33 skpd (  2.4%)    0.003 s ( 0.003 ms/b)
<sd|df>:         1170 b           40 skpd (  3.4%)    0.002 s ( 0.002 ms/b)
<sd|dg>:          390 b           12 skpd (  3.1%)    0.003 s ( 0.007 ms/b)
<sd|ff>:          390 b           13 skpd (  3.3%)    0.001 s ( 0.003 ms/b)
<sd|fg>:          195 b            7 skpd (  3.6%)    0.002 s ( 0.009 ms/b)
<sd|gg>:           65 b            2 skpd (  3.1%)    0.002 s ( 0.039 ms/b)
<sf|sf>:          528 b           42 skpd (  8.0%)    0.000 s ( 0.001 ms/b)
<sf|sg>:          352 b           49 skpd ( 13.9%)    0.001 s ( 0.003 ms/b)
<sf|pp>:         1152 b           32 skpd (  2.8%)    0.002 s ( 0.002 ms/b)
<sf|pd>:         1536 b           81 skpd (  5.3%)    0.002 s ( 0.002 ms/b)
<sf|pf>:          768 b           31 skpd (  4.0%)    0.001 s ( 0.001 ms/b)
<sf|pg>:          256 b           10 skpd (  3.9%)    0.002 s ( 0.007 ms/b)
<sf|dd>:          672 b           18 skpd (  2.7%)    0.003 s ( 0.004 ms/b)
<sf|df>:          576 b           31 skpd (  5.4%)    0.002 s ( 0.003 ms/b)
<sf|dg>:          192 b           11 skpd (  5.7%)    0.002 s ( 0.013 ms/b)
<sf|ff>:          192 b            9 skpd (  4.7%)    0.001 s ( 0.006 ms/b)
<sf|fg>:           96 b            4 skpd (  4.2%)    0.002 s ( 0.017 ms/b)
<sf|gg>:           32 b            1 skpd (  3.1%)    0.002 s ( 0.066 ms/b)
<sg|sg>:           66 b           13 skpd ( 19.7%)    0.000 s ( 0.004 ms/b)
<sg|pp>:          396 b           27 skpd (  6.8%)    0.001 s ( 0.003 ms/b)
<sg|pd>:          528 b           59 skpd ( 11.2%)    0.001 s ( 0.003 ms/b)
<sg|pf>:          264 b           27 skpd ( 10.2%)    0.001 s ( 0.002 ms/b)
<sg|pg>:           88 b            9 skpd ( 10.2%)    0.001 s ( 0.014 ms/b)
<sg|dd>:          231 b           16 skpd (  6.9%)    0.002 s ( 0.009 ms/b)
<sg|df>:          198 b           23 skpd ( 11.6%)    0.001 s ( 0.005 ms/b)
<sg|dg>:           66 b            7 skpd ( 10.6%)    0.001 s ( 0.024 ms/b)
<sg|ff>:           66 b            7 skpd ( 10.6%)    0.001 s ( 0.009 ms/b)
<sg|fg>:           33 b            4 skpd ( 12.1%)    0.001 s ( 0.030 ms/b)
<sg|gg>:           11 b            1 skpd (  9.1%)    0.001 s ( 0.117 ms/b)
<pp|pp>:          666 b            1 skpd (  0.2%)    0.002 s ( 0.003 ms/b)
<pp|pd>:         1728 b            2 skpd (  0.1%)    0.003 s ( 0.002 ms/b)
<pp|pf>:          864 b            1 skpd (  0.1%)    0.001 s ( 0.001 ms/b)
<pp|pg>:          288 b            0 skpd (  0.0%)    0.002 s ( 0.006 ms/b)
<pp|dd>:          756 b            1 skpd (  0.1%)    0.003 s ( 0.004 ms/b)
<pp|df>:          648 b            1 skpd (  0.2%)    0.002 s ( 0.002 ms/b)
<pp|dg>:          216 b            1 skpd (  0.5%)    0.002 s ( 0.011 ms/b)
<pp|ff>:          216 b            0 skpd (  0.0%)    0.001 s ( 0.005 ms/b)
<pp|fg>:          108 b            0 skpd (  0.0%)    0.002 s ( 0.015 ms/b)
<pp|gg>:           36 b            0 skpd (  0.0%)    0.002 s ( 0.062 ms/b)
<pd|pd>:         1176 b           13 skpd (  1.1%)    0.005 s ( 0.004 ms/b)
<pd|pf>:         1152 b           11 skpd (  1.0%)    0.002 s ( 0.002 ms/b)
<pd|pg>:          384 b            5 skpd (  1.3%)    0.004 s ( 0.011 ms/b)
<pd|dd>:         1008 b           12 skpd (  1.2%)    0.006 s ( 0.006 ms/b)
<pd|df>:          864 b           13 skpd (  1.5%)    0.004 s ( 0.004 ms/b)
<pd|dg>:          288 b            4 skpd (  1.4%)    0.005 s ( 0.019 ms/b)
<pd|ff>:          288 b            3 skpd (  1.0%)    0.003 s ( 0.009 ms/b)
<pd|fg>:          144 b            2 skpd (  1.4%)    0.004 s ( 0.027 ms/b)
<pd|gg>:           48 b            1 skpd (  2.1%)    0.005 s ( 0.111 ms/b)
<pf|pf>:          300 b            0 skpd (  0.0%)    0.001 s ( 0.004 ms/b)
<pf|pg>:          192 b            0 skpd (  0.0%)    0.003 s ( 0.015 ms/b)
<pf|dd>:          504 b            1 skpd (  0.2%)    0.004 s ( 0.008 ms/b)
<pf|df>:          432 b            2 skpd (  0.5%)    0.003 s ( 0.006 ms/b)
<pf|dg>:          144 b            1 skpd (  0.7%)    0.004 s ( 0.027 ms/b)
<pf|ff>:          144 b            0 skpd (  0.0%)    0.002 s ( 0.016 ms/b)
<pf|fg>:           72 b            0 skpd (  0.0%)    0.003 s ( 0.041 ms/b)
<pf|gg>:           24 b            0 skpd (  0.0%)    0.004 s ( 0.160 ms/b)
<pg|pg>:           36 b            0 skpd (  0.0%)    0.001 s ( 0.031 ms/b)
<pg|dd>:          168 b            0 skpd (  0.0%)    0.003 s ( 0.016 ms/b)
<pg|df>:          144 b            0 skpd (  0.0%)    0.002 s ( 0.011 ms/b)
<pg|dg>:           48 b            0 skpd (  0.0%)    0.003 s ( 0.053 ms/b)
<pg|ff>:           48 b            0 skpd (  0.0%)    0.001 s ( 0.022 ms/b)
<pg|fg>:           24 b            0 skpd (  0.0%)    0.002 s ( 0.075 ms/b)
<pg|gg>:            8 b            0 skpd (  0.0%)    0.002 s ( 0.273 ms/b)
<dd|dd>:          231 b            0 skpd (  0.0%)    0.004 s ( 0.017 ms/b)
<dd|df>:          378 b            1 skpd (  0.3%)    0.003 s ( 0.007 ms/b)
<dd|dg>:          126 b            0 skpd (  0.0%)    0.004 s ( 0.031 ms/b)
<dd|ff>:          126 b            0 skpd (  0.0%)    0.002 s ( 0.016 ms/b)
<dd|fg>:           63 b            0 skpd (  0.0%)    0.003 s ( 0.046 ms/b)
<dd|gg>:           21 b            0 skpd (  0.0%)    0.004 s ( 0.189 ms/b)
<df|df>:          171 b            1 skpd (  0.6%)    0.003 s ( 0.017 ms/b)
<df|dg>:          108 b            1 skpd (  0.9%)    0.004 s ( 0.041 ms/b)
<df|ff>:          108 b            1 skpd (  0.9%)    0.003 s ( 0.027 ms/b)
<df|fg>:           54 b            1 skpd (  1.9%)    0.004 s ( 0.071 ms/b)
<df|gg>:           18 b            0 skpd (  0.0%)    0.005 s ( 0.276 ms/b)
<dg|dg>:           21 b            1 skpd (  4.8%)    0.002 s ( 0.110 ms/b)
<dg|ff>:           36 b            1 skpd (  2.8%)    0.001 s ( 0.036 ms/b)
<dg|fg>:           18 b            0 skpd (  0.0%)    0.002 s ( 0.120 ms/b)
<dg|gg>:            6 b            0 skpd (  0.0%)    0.003 s ( 0.429 ms/b)
<ff|ff>:           21 b            0 skpd (  0.0%)    0.001 s ( 0.052 ms/b)
<ff|fg>:           18 b            0 skpd (  0.0%)    0.002 s ( 0.108 ms/b)
<ff|gg>:            6 b            0 skpd (  0.0%)    0.003 s ( 0.441 ms/b)
<fg|fg>:            6 b            0 skpd (  0.0%)    0.001 s ( 0.244 ms/b)
<fg|gg>:            3 b            0 skpd (  0.0%)    0.002 s ( 0.730 ms/b)
<gg|gg>:            1 b            0 skpd (  0.0%)    0.002 s ( 1.753 ms/b)
Recanonicalizing the internal orbitals
Recanonicalizing the virtual orbitals
Time needed for Fock operator              ...            0.255 sec
Reference energy                           ...  -1606.301580876
Warning: for UHF the TrafoType has to be JK
Warning: for UHF the K(C)-option cannot be MO but must be AOX

-------------------------------
PARTIAL EXCHANGE TRANSFORMATION
-------------------------------

Transformation type                        ... two-operators
Generation of integrals (i,mue|j,nue)      ... ON
Generation of integrals (mue,kappa|nue,tau)... ON
Generation of integrals (i,mue|a,nue)      ... ON
Dimension of the basis                     ...   95
Number of internal alpha-MOs               ...   13 (   6-  18)
Number of internal beta-MOs                ...   12 (   6-  17)
Number of external alpha-MOs               ...   76 (  19-  94)
Number of external beta-MOs                ...   77 (  18-  94)
Pair cutoff                                ... 0.000e+00 Eh
Number of AO pairs in the trafo            ... 4560
Total Number of distinct AO pairs          ... 4560
Memory devoted for trafo                   ... 2500.0 MB 
Max. Number of MO pairs treated together   ... 36308      
Number Format for Storage                  ... Double (8 Byte)
Integral package used                      ... LIBINT

Starting integral evaluation:
    ... done with AO integral generation
Closing buffer AOK[aa] ( 0.00 GB; CompressionRatio= 0.99)
Closing buffer AOK[bb] ( 0.00 GB; CompressionRatio= 0.99)
Closing buffer AOK[ab] ( 0.00 GB; CompressionRatio= 0.99)
Closing buffer AOK[ba] ( 0.00 GB; CompressionRatio= 0.99)
Collecting buffer AOK 
Closing buffer IAAO1[aa] ( 0.00 GB; CompressionRatio= 1.00)
Closing buffer IAAO1[bb] ( 0.00 GB; CompressionRatio= 1.00)
Closing buffer IAAO1[ab] ( 0.00 GB; CompressionRatio= 1.00)
Closing buffer IAAO1[ba] ( 0.00 GB; CompressionRatio= 1.00)
Closing buffer IAAO2[aa] ( 0.00 GB; CompressionRatio= 1.00)
Closing buffer IAAO2[bb] ( 0.00 GB; CompressionRatio= 1.00)
Closing buffer IAAO2[ab] ( 0.00 GB; CompressionRatio= 1.00)
Closing buffer IAAO2[ba] ( 0.00 GB; CompressionRatio= 1.00)
Collecting buffer IAAO 
Closing buffer PRQS    ( 0.00 GB; CompressionRatio= 1.00)
Collecting buffer PRQS 
Number of alpha/alpha MO pairs in trafo    ...   91
Number of beta /beta  MO pairs in trafo    ...   78
Number of alpha/ beta MO pairs in trafo    ...  156
------------------------
SORTING OF (i,mue|j,nue)
------------------------

SORTING OF ALPHA/ALPHA PAIRS
IBATCH = 1 of  1
Closing buffer KAO[aa] ( 0.00 GB; CompressionRatio= 1.00)
Collecting buffer KAO 
SORTING OF BETA /BETA  PAIRS
IBATCH = 1 of  1
Closing buffer KAO[bb] ( 0.00 GB; CompressionRatio= 1.00)
Collecting buffer KAO 
SORTING OF ALPHA/BETA  PAIRS
IBATCH = 1 of  1
Closing buffer KAO[ab] ( 0.00 GB; CompressionRatio= 0.999833822633)
Collecting buffer KAO[ab] 
------------------------
SORTING OF (i,mue|a,nue)
------------------------

Number of alpha/alpha (i,a) pairs in trafo  ...  988
Number of beta /beta  (i,a) pairs in trafo  ...  924
Number of alpha/ beta (i,a) pairs in trafo  ... 1001
Number of beta /alpha (i,a) pairs in trafo  ...  912
Setting up the alpha/alpha list             ... done
Setting up the beta /beta  list             ... done
Setting up the alpha/beta  list             ... done
Setting up the beta /alpha list             ... done
    ... Now sorting (i,mue|a,nue)integrals
    ... Integrals (i,b|a,c) will be made on the fly
SORTING OF ALPHA/ALPHA PAIRS
IBATCH = 1 of  1
Closing buffer IPAQ[aa]  0.00 GB; CompressionRatio= 1.00)
SORTING OF BETA /BETA  PAIRS
IBATCH = 1 of  1
Closing buffer IPAQ[bb]( 0.00 GB; CompressionRatio= 1.00)
SORTING OF ALPHA/BETA  PAIRS (NMatSort_ab=42)
IBATCH = 1 of  1
Closing buffer IPAQ[ab]( 0.00 GB; CompressionRatio= 1.00)
SORTING OF BETA/ALPHA  PAIRS
IBATCH = 1 of  1
Closing buffer IPAQ[ba]( 0.00 GB; CompressionRatio= 1.00)
N(AO-Batches) Done                         ...      4872 
N(AO-Batches) Skipped                      ...         0 
N(IJ)-pairs Skipped                        ...         0 
TOTAL TIME for half transformation         ...     1.221 sec
AO-integral generation                     ...     0.020 sec
Half transformation                        ...     0.005 sec
K-integral sorting                         ...     0.757 sec
<ss|**>: 
------------------------------
PARTIAL COULOMB TRANSFORMATION
------------------------------

Transformation type                        ... two-operators
Dimension of the basis                     ...   95
Number of internal alpha-MOs               ...   13 (6-18)
Number of internal beta-MOs                ...   12 (6-17)
Pair cutoff                                ... 0.000e+00 Eh
Number of AO pairs included in the trafo   ... 4560
Total Number of distinct AO pairs          ... 4560
Memory devoted for trafo                   ... 2500.0 MB 
Max. Number of MO pairs treated together   ... 71859      
Max. Number of MOs treated per batch       ...  756      
Number Format for Storage                  ... Double (8 Byte)
AO-integral source                         ... DIRECT
Integral package used                      ... LIBINT

Starting integral evaluation:
       26474 b        0 skpd     0.006 s (  0.000 ms/b)
<sp|**>: <sd|**>:        36722 b        0 skpd     0.016 s (  0.000 ms/b)
       27755 b        0 skpd     0.021 s (  0.001 ms/b)
<sf|**>:        13664 b        0 skpd     0.011 s (  0.001 ms/b)
<sg|**>:         4697 b        0 skpd     0.017 s (  0.004 ms/b)
<pp|**>:        15372 b        0 skpd     0.024 s (  0.002 ms/b)
<pd|**>:        20496 b        0 skpd     0.036 s (  0.002 ms/b)
<pf|**>:        10248 b        0 skpd     0.015 s (  0.001 ms/b)
<pg|**>:         3416 b        0 skpd     0.027 s (  0.008 ms/b)
<dd|**>:         8967 b        0 skpd     0.039 s (  0.004 ms/b)
<df|**>:         7686 b        0 skpd     0.022 s (  0.003 ms/b)
<dg|**>:         2562 b        0 skpd     0.034 s (  0.013 ms/b)
<ff|**>:         2562 b        0 skpd     0.018 s (  0.007 ms/b)
<fg|**>:         1281 b        0 skpd     0.023 s (  0.018 ms/b)
<gg|**>:          427 b        0 skpd     0.032 s (  0.075 ms/b)
Closing buffer AOJ[aa] ( 0.00 GB; CompressionRatio= 0.98)
Closing buffer AOJ[bb] ( 0.00 GB; CompressionRatio= 0.00)
Collecting buffer AOJ 
    ... done with AO integral generation
Number of Alpha-MO pairs included          ...   91
Number of Beta-MO pairs included           ...   78
    ... Now sorting integrals
SORTING ALPHA/ALPHA PAIRS
IBATCH = 1 of  1
Closing buffer JAO[aa] ( 0.00 GB; CompressionRatio= 1.00)
SORTING BETA/BETA PAIRS
IBATCH = 1 of  1
Closing buffer JAO[bb] ( 0.00 GB; CompressionRatio= 1.00)
Collecting buffer JAO 
TOTAL TIME for half transformation         ...     0.368 sec
AO-integral generation                     ...     0.339 sec
Half transformation                        ...     0.009 sec
J-integral sorting                         ...     0.016 sec

-------------------------- SECOND HALF TRANSFORMATION -------------------------
Formation of (ij|kl),(ij|ka), (ij|ab)      ... ok (     0.056 sec)
Formation of (ik|jl),(ik|ja), (ia|jb)      ... ok (     0.096 sec)


-----------------------
SPIN UNRESTRICTED GUESS
-----------------------

Entering MDCI_UHF_Guess, Tailored=0
Spin-components of the MP2 energy:
EMP2(aa)=     -0.179212773
EMP2(bb)=     -0.146963906
EMP2(ab)=     -0.699628943

Initial guess performed in     0.043 sec
E(0)                                       ...  -1606.301580876
E(MP2)                                     ...     -1.025805622
Initial E(tot)                             ...  -1607.327386499
<T|T>                                      ...      0.163064552
Number of pairs included                   ... 300

------------------------------------------------
                  UHF COUPLED CLUSTER ITERATIONS
------------------------------------------------

Number of amplitudes to be optimized       ...      1334756

Iter       E(tot)           E(Corr)          Delta-E          Residual     Time      <S|S>**1/2
  0  -1607.327386499     -1.025805622      0.000000000      0.032001214    1.07      0.000000005
                           *** Turning on DIIS ***
  1  -1607.198497963     -0.896917087      0.128888535      0.016031271    1.14      0.090383008
  2  -1607.241406690     -0.939825814     -0.042908727      0.009821857    1.22      0.073226365
  3  -1607.241577387     -0.939996511     -0.000170698      0.007151296    1.24      0.091793191
  4  -1607.243485886     -0.941905010     -0.001908499      0.004653695    1.23      0.102317120
  5  -1607.244972451     -0.943391575     -0.001486565      0.003326130    1.26      0.116125360
  6  -1607.245380351     -0.943799475     -0.000407901      0.002520144    1.23      0.125142268
  7  -1607.245560228     -0.943979352     -0.000179877      0.001616536    1.28      0.132418775
  8  -1607.245706904     -0.944126028     -0.000146676      0.001176506    1.29      0.136600287
  9  -1607.245762400     -0.944181524     -0.000055496      0.000648087    1.22      0.140082597
 10  -1607.245832268     -0.944251392     -0.000069868      0.000296266    1.26      0.143463010
 11  -1607.245872420     -0.944291544     -0.000040152      0.000155921    1.25      0.144089306
 12  -1607.245841756     -0.944260879      0.000030665      0.000072078    1.22      0.144843603
 13  -1607.245861947     -0.944281071     -0.000020192      0.000041761    1.21      0.145010508
 14  -1607.245859330     -0.944278453      0.000002618      0.000020368    1.24      0.145069240
 15  -1607.245860241     -0.944279365     -0.000000912      0.000008108    1.25      0.145094508
 16  -1607.245859704     -0.944278827      0.000000538      0.000004284    1.22      0.145080712
 17  -1607.245859111     -0.944278235      0.000000592      0.000001880    1.24      0.145067157
 18  -1607.245858783     -0.944277906      0.000000328      0.000000778    1.21      0.145057640
               --- The Coupled-Cluster iterations have converged ---

----------------------
COUPLED CLUSTER ENERGY
----------------------

E(0)                                       ...  -1606.301580876
E(CORR)                                    ...     -0.944277906
E(TOT)                                     ...  -1607.245858783
Singles norm <S|S>**1/2                    ...      0.145057640 ( 0.088798947, 0.056258693)  
T1 diagnostic                              ...      0.029011528                              

------------------
LARGEST AMPLITUDES
------------------
  16a-> 19a  -1a-> -1a       0.120550
  13b-> 28b  -1b-> -1b       0.064251
  16a-> 23a  -1a-> -1a       0.061175
  11a-> 19a  -1a-> -1a       0.046593
  14b-> 19b  -1b-> -1b       0.043288
  15b-> 20b  -1b-> -1b       0.043288
  18a-> 21a  -1a-> -1a       0.037154
  17a-> 20a  -1a-> -1a       0.037154
  14a-> 24a  -1a-> -1a       0.029847
  15a-> 25a  -1a-> -1a       0.029847
  13b-> 21b  -1b-> -1b       0.025087
  11a-> 23a  -1a-> -1a       0.022886
  16b-> 23b  -1b-> -1b       0.021783
  17b-> 24b  -1b-> -1b       0.021783
  13b-> 27b  -1b-> -1b       0.021563
  16a-> 22a  -1a-> -1a       0.021159

----------------------
UHF TRIPLES CORRECTION (Algorithm 1)
----------------------

Multiplier for the singles contribution    ...      1.000000000

SPIN-CASE Alpha-Alpha-Alpha:
10% done
20% done
30% done
40% done
50% done
60% done
70% done
80% done
90% done


SPIN-CASE Beta-Beta-Beta:
10% done
20% done
30% done
40% done
50% done
60% done
70% done
80% done
90% done


SPIN-CASE Alpha-Alpha-Beta:
10% done
20% done
30% done
40% done
50% done
60% done
70% done
80% done
90% done


SPIN-CASE Beta-Beta-Alpha:
10% done
20% done
30% done
40% done
50% done
60% done
70% done
80% done
90% done


Triples Correction (T)                     ...     -0.026857473
    alpha-alpha-alpha ... -0.001084651 (  4.0%)
    alpha-alpha-beta  ... -0.012928944 ( 48.1%)
    alpha-beta -beta  ... -0.011937510 ( 44.4%)
    beta -beta -beta  ... -0.000906369 (  3.4%)
Scaling of triples based on CCSD energies (Peterson et al. Molecular Physics 113, 1551 (2015))
E(T*) = f*E(T) where f = E(F12-CCSD)/E(CCSD) 
f = CCSD (with F12)/ CCSD (without F12)    ...      1.000000000
Scaled triples correction (T)              ...     -0.026857473

Final correlation energy                   ...     -0.971135379
E(CCSD)                                    ...  -1607.245858783
E(CCSD(T))                                 ...  -1607.272716256



        !!!!!!!!!!!!!!!!!!!!!!!!!!!!!!!!!!!!!!!!!!!!!!!!!!!!!!!!!!!!!!!!!!!!!!!!!! 
        !  Warning: Densities are linearized densities                           !
        !!!!!!!!!!!!!!!!!!!!!!!!!!!!!!!!!!!!!!!!!!!!!!!!!!!!!!!!!!!!!!!!!!!!!!!!!! 

NORM  =      1.183572353 sqrt=     1.087921115
W(HF) =      0.844899763
------------------------------------------------------------------------------
                           ORCA POPULATION ANALYSIS
------------------------------------------------------------------------------
Input electron density              ... 44_NiF.mdcip
Input spin density                  ... 44_NiF.mdcir
BaseName (.gbw .S,...)              ... 44_NiF

                    ********************************
                    * MULLIKEN POPULATION ANALYSIS *
                    ********************************

------------------------------------------
MULLIKEN ATOMIC CHARGES AND SPIN DENSITIES
------------------------------------------
   0 Ni:    0.587380    0.992595
   1 F :   -0.587380    0.007405
Sum of atomic charges       :   -0.0000000
Sum of atomic spin densities:    1.0000000

---------------------------------------------------
MULLIKEN REDUCED ORBITAL CHARGES AND SPIN DENSITIES
---------------------------------------------------
CHARGE
  0 Nis       :     6.213535  s :     6.213535
      pz      :     4.048074  p :    12.182990
      px      :     4.067458
      py      :     4.067458
      dz2     :     1.009100  d :     8.979383
      dxz     :     1.995065
      dyz     :     1.995065
      dx2y2   :     1.990077
      dxy     :     1.990077
      f0      :     0.005099  f :     0.033428
      f+1     :     0.004753
      f-1     :     0.004753
      f+2     :     0.004753
      f-2     :     0.004753
      f+3     :     0.004659
      f-3     :     0.004659
      g0      :     0.000344  g :     0.003283
      g+1     :     0.000352
      g-1     :     0.000352
      g+2     :     0.000365
      g-2     :     0.000365
      g+3     :     0.000379
      g-3     :     0.000379
      g+4     :     0.000374
      g-4     :     0.000374
  1 F s       :     3.958600  s :     3.958600
      pz      :     1.757124  p :     5.594804
      px      :     1.918840
      py      :     1.918840
      dz2     :     0.007780  d :     0.031384
      dxz     :     0.006576
      dyz     :     0.006576
      dx2y2   :     0.005226
      dxy     :     0.005226
      f0      :     0.000444  f :     0.002592
      f+1     :     0.000396
      f-1     :     0.000396
      f+2     :     0.000344
      f-2     :     0.000344
      f+3     :     0.000334
      f-3     :     0.000334

SPIN
  0 Nis       :     0.115947  s :     0.115947
      pz      :     0.006014  p :     0.006015
      px      :     0.000000
      py      :     0.000000
      dz2     :     0.858296  d :     0.867590
      dxz     :     0.003422
      dyz     :     0.003422
      dx2y2   :     0.001225
      dxy     :     0.001225
      f0      :     0.001179  f :     0.002698
      f+1     :     0.000737
      f-1     :     0.000737
      f+2     :    -0.000084
      f-2     :    -0.000084
      f+3     :     0.000106
      f-3     :     0.000106
      g0      :     0.000094  g :     0.000346
      g+1     :     0.000075
      g-1     :     0.000075
      g+2     :     0.000034
      g-2     :     0.000034
      g+3     :    -0.000003
      g-3     :    -0.000003
      g+4     :     0.000020
      g-4     :     0.000020
  1 F s       :     0.002208  s :     0.002208
      pz      :     0.009355  p :     0.005129
      px      :    -0.002113
      py      :    -0.002113
      dz2     :     0.000097  d :     0.000046
      dxz     :    -0.000019
      dyz     :    -0.000019
      dx2y2   :    -0.000007
      dxy     :    -0.000007
      f0      :     0.000028  f :     0.000021
      f+1     :    -0.000002
      f-1     :    -0.000002
      f+2     :    -0.000001
      f-2     :    -0.000001
      f+3     :    -0.000000
      f-3     :    -0.000000


                     *******************************
                     * LOEWDIN POPULATION ANALYSIS *
                     *******************************

-----------------------------------------
LOEWDIN ATOMIC CHARGES AND SPIN DENSITIES
-----------------------------------------
   0 Ni:    0.328149    0.989011
   1 F :   -0.328149    0.010989

--------------------------------------------------
LOEWDIN REDUCED ORBITAL CHARGES AND SPIN DENSITIES
--------------------------------------------------
CHARGE
  0 Nis       :     6.222579  s :     6.222579
      pz      :     4.127003  p :    12.289074
      px      :     4.081036
      py      :     4.081036
      dz2     :     1.098713  d :     9.120863
      dxz     :     2.021124
      dyz     :     2.021124
      dx2y2   :     1.989951
      dxy     :     1.989951
      f0      :     0.006816  f :     0.036039
      f+1     :     0.005199
      f-1     :     0.005199
      f+2     :     0.004753
      f-2     :     0.004753
      f+3     :     0.004659
      f-3     :     0.004659
      g0      :     0.000353  g :     0.003295
      g+1     :     0.000353
      g-1     :     0.000353
      g+2     :     0.000365
      g-2     :     0.000365
      g+3     :     0.000379
      g-3     :     0.000379
      g+4     :     0.000374
      g-4     :     0.000374
  1 F s       :     3.776881  s :     3.776881
      pz      :     1.757804  p :     5.511831
      px      :     1.877013
      py      :     1.877013
      dz2     :     0.009445  d :     0.036568
      dxz     :     0.008222
      dyz     :     0.008222
      dx2y2   :     0.005340
      dxy     :     0.005340
      f0      :     0.000507  f :     0.002870
      f+1     :     0.000491
      f-1     :     0.000491
      f+2     :     0.000356
      f-2     :     0.000356
      f+3     :     0.000334
      f-3     :     0.000334

SPIN
  0 Nis       :     0.115945  s :     0.115945
      pz      :     0.007457  p :     0.006715
      px      :    -0.000371
      py      :    -0.000371
      dz2     :     0.853519  d :     0.863282
      dxz     :     0.003650
      dyz     :     0.003650
      dx2y2   :     0.001232
      dxy     :     0.001232
      f0      :     0.001209  f :     0.002725
      f+1     :     0.000735
      f-1     :     0.000735
      f+2     :    -0.000084
      f-2     :    -0.000084
      f+3     :     0.000106
      f-3     :     0.000106
      g0      :     0.000093  g :     0.000344
      g+1     :     0.000074
      g-1     :     0.000074
      g+2     :     0.000034
      g-2     :     0.000034
      g+3     :    -0.000003
      g-3     :    -0.000003
      g+4     :     0.000020
      g-4     :     0.000020
  1 F s       :     0.002252  s :     0.002252
      pz      :     0.011495  p :     0.007665
      px      :    -0.001915
      py      :    -0.001915
      dz2     :     0.001163  d :     0.000999
      dxz     :    -0.000069
      dyz     :    -0.000069
      dx2y2   :    -0.000013
      dxy     :    -0.000013
      f0      :     0.000085  f :     0.000073
      f+1     :    -0.000004
      f-1     :    -0.000004
      f+2     :    -0.000001
      f-2     :    -0.000001
      f+3     :    -0.000000
      f-3     :    -0.000000


                      *****************************
                      * MAYER POPULATION ANALYSIS *
                      *****************************

  NA   - Mulliken gross atomic population
  ZA   - Total nuclear charge
  QA   - Mulliken gross atomic charge
  VA   - Mayer's total valence
  BVA  - Mayer's bonded valence
  FA   - Mayer's free valence

  ATOM       NA         ZA         QA         VA         BVA        FA
  0 Ni    27.4126    28.0000     0.5874     2.2918     0.6756     1.6162
  1 F      9.5874     9.0000    -0.5874     1.0829     0.6756     0.4074

  Mayer bond orders larger than 0.100000
B(  0-Ni,  1-F ) :   0.6756 



------------------------------------------------------------------------------- 
                                     TIMINGS                                   
------------------------------------------------------------------------------- 


Total execution time                   ...       28.808 sec

Fock Matrix Formation                  ...        0.255 sec (  0.9%)
Initial Guess                          ...        0.043 sec (  0.1%)
DIIS Solver                            ...        2.286 sec (  7.9%)
State Vector Update                    ...        0.102 sec (  0.4%)
Sigma-vector construction              ...       20.867 sec ( 72.4%)
  <0|H|D>                              ...        0.006 sec (  0.0% of sigma)
  <D|H|D>(0-ext Fock)                  ...        0.046 sec (  0.2% of sigma)
  <D|H|D>(0-ext)                       ...        0.255 sec (  1.2% of sigma)
  <D|H|D>(2-ext Fock)                  ...        0.012 sec (  0.1% of sigma)
  <D|H|D>(2-ext)                       ...        0.690 sec (  3.3% of sigma)
  <D|H|D>(4-ext)                       ...        9.153 sec ( 43.9% of sigma)
  <S|H|0>                              ...        1.539 sec (  7.4% of sigma)
  <S|H|S>                              ...        0.003 sec (  0.0% of sigma)
  <S|H|D>(1-ext)                       ...        0.012 sec (  0.1% of sigma)
  <D|H|S>(1-ext)                       ...        0.172 sec (  0.8% of sigma)
  Fock-dressing                        ...        3.204 sec ( 15.4% of sigma)
  (ik|jl)-dressing                     ...        0.352 sec (  1.7% of sigma)
  (ij|ab),(ia|jb)-dressing             ...        4.310 sec ( 20.7% of sigma)
  Pair energies                        ...        0.011 sec (  0.1% of sigma)
Total Time for computing (T)           ...        2.958 sec ( 10.3% of ALL)
  I/O of integral and amplitudes       ...        0.548 sec ( 18.5% of (T))
  External N**7 contributions          ...        0.831 sec ( 28.1% of (T))
  Internal N**7 contributions          ...        0.453 sec ( 15.3% of (T))
  N**6 triples energy contributions    ...        1.096 sec ( 37.0% of (T))

----- Orbital basis set information -----
Your calculation utilizes the basis: def2-QZVPP
   F. Weigend and R. Ahlrichs, Phys. Chem. Chem. Phys. 7, 3297 (2005).

----- AuxJ basis set information -----
Your calculation utilizes the auxiliary basis: def2/J
   F. Weigend, Phys. Chem. Chem. Phys. 8, 1057 (2006).

----- AuxC basis set information -----
Your calculation utilizes the auxiliary basis: def2-QZVPP/C
  H-La, Hf-Rn : A. Hellweg, C. Hattig, S. Hofener and W. Klopper, Theor. Chem. Acc. 117, 587 (2007).
        Ce-Lu : J. Chmela and M. E. Harding, Mol. Phys. (2018).

----- AuxJK basis set information -----
Your calculation utilizes the auxiliary basis: def2/JK
   H-Ba, Hf-Rn: F. Weigend, J. Comput. Chem. 29, 167 (2008).

All done

                     -----------------------------------------
                     Extrapolated Energy 2 Basis=  def2-QZVPP
                     -----------------------------------------

---------------------------------
CARTESIAN COORDINATES (ANGSTROEM)
---------------------------------
  Ni     0.000000    0.000000    0.123747
  F      0.000000    0.000000    1.876253

----------------------------
CARTESIAN COORDINATES (A.U.)
----------------------------
  NO LB      ZA    FRAG     MASS         X           Y           Z
   0 Ni   28.0000    0    58.700    0.000000    0.000000    0.233848
   1 F     9.0000    0    18.998    0.000000    0.000000    3.545604

--------------------------------
INTERNAL COORDINATES (ANGSTROEM)
--------------------------------
 Ni     0   0   0     0.000000000000     0.00000000     0.00000000
 F      1   0   0     1.752505674333     0.00000000     0.00000000

---------------------------
INTERNAL COORDINATES (A.U.)
---------------------------
 Ni     0   0   0     0.000000000000     0.00000000     0.00000000
 F      1   0   0     3.311755772632     0.00000000     0.00000000

---------------------
BASIS SET INFORMATION
---------------------
There are 2 groups of distinct atoms

 Group   1 Type Ni  : 24s18p10d4f2g contracted to 11s6p5d4f2g pattern {114111111111/951111/61111/1111/11}
 Group   2 Type F   : 15s8p3d2f1g contracted to 7s4p3d2f1g pattern {8211111/5111/111/11/1}

Atom   0Ni   basis set group =>   1
Atom   1F    basis set group =>   2
---------------------------------
AUXILIARY/J BASIS SET INFORMATION
---------------------------------
There are 2 groups of distinct atoms

 Group   1 Type Ni  : 19s5p5d3f3g contracted to 8s5p5d2f3g pattern {121111111/11111/11111/21/111}
 Group   2 Type F   : 12s5p4d2f1g contracted to 6s4p3d1f1g pattern {711111/2111/211/2/1}

Atom   0Ni   basis set group =>   1
Atom   1F    basis set group =>   2
---------------------------------
AUXILIARY/C BASIS SET INFORMATION
---------------------------------
There are 2 groups of distinct atoms

 Group   1 Type Ni  : 15s13p11d9f7g5h2i contracted to 15s13p11d9f7g5h2i pattern {111111111111111/1111111111111/11111111111/111111111/1111111/11111/11}
 Group   2 Type F   : 9s8p7d5f3g1h contracted to 9s8p7d5f3g1h pattern {111111111/11111111/1111111/11111/111/1}

Atom   0Ni   basis set group =>   1
Atom   1F    basis set group =>   2
----------------------------------
AUXILIARY/JK BASIS SET INFORMATION
----------------------------------
There are 2 groups of distinct atoms

 Group   1 Type Ni  : 19s14p12d10f7g3h1i contracted to 16s13p11d9f5g3h1i pattern {4111111111111111/2111111111111/21111111111/211111111/31111/111/1}
 Group   2 Type F   : 14s10p6d2f1g contracted to 10s8p4d2f1g pattern {5111111111/31111111/3111/11/1}

Atom   0Ni   basis set group =>   1
Atom   1F    basis set group =>   2

Checking for AutoStart:
The File: 44_NiF.gbw exists
Trying to determine its content:
     ... Fine, the file contains calculation information
     ... Fine, the calculation information was read
     ... Fine, the file contains a basis set
     ... Fine, the basis set was read
     ... Fine, the file contains a geometry
     ... Fine, the geometry was read
     ... Fine, the file contains a set of orbitals
     ... Fine, the orbitals can be read
     => possible old guess file was deleted
     => GBW file was renamed to GES file
     => GES file is set as startup file
     => Guess is set to MORead
     ... now leaving AutoStart



           ************************************************************
           *        Program running with 24 parallel MPI-processes    *
           *              working on a common directory               *
           ************************************************************
------------------------------------------------------------------------------
                           ORCA GTO INTEGRAL CALCULATION
------------------------------------------------------------------------------

                         BASIS SET STATISTICS AND STARTUP INFO

 # of primitive gaussian shells          ...   87
 # of primitive gaussian functions       ...  251
 # of contracted shells                  ...   45
 # of contracted basis functions         ...  157
 Highest angular momentum                ...    4
 Maximum contraction depth               ...   11
 Integral package used                   ... LIBINT
 Integral threshhold            Thresh   ...  1.000e-12
 Primitive cut-off              TCut     ...  1.000e-14


------------------------------ INTEGRAL EVALUATION ----------------------------


 * One electron integrals 
 Pre-screening matrix                    ... done
 Shell pair data                         ... done (   0.000 sec)



           ************************************************************
           *        Program running with 24 parallel MPI-processes    *
           *              working on a common directory               *
           ************************************************************
-------------------------------------------------------------------------------
                                 ORCA SCF
-------------------------------------------------------------------------------

------------
SCF SETTINGS
------------
Hamiltonian:
 Ab initio Hamiltonian  Method          .... Hartree-Fock(GTOs)


General Settings:
 Integral files         IntName         .... 44_NiF
 Hartree-Fock type      HFTyp           .... UHF
 Total Charge           Charge          ....    0
 Multiplicity           Mult            ....    2
 Number of Electrons    NEL             ....   37
 Basis Dimension        Dim             ....  157
 Nuclear Repulsion      ENuc            ....     76.0925675989 Eh

Convergence Acceleration:
 DIIS                   CNVDIIS         .... on
[...]
 14  -1607.335064381     -0.994839664      0.000007630      0.000019373    5.65      0.144459842
 15  -1607.335061161     -0.994836444      0.000003220      0.000011571    5.68      0.144485992
 16  -1607.335060318     -0.994835601      0.000000843      0.000006271    5.67      0.144460424
 17  -1607.335059490     -0.994834773      0.000000828      0.000004444    5.67      0.144461550
 18  -1607.335059192     -0.994834475      0.000000298      0.000003328    5.64      0.144447430
 19  -1607.335059158     -0.994834441      0.000000034      0.000002310    5.76      0.144436665
 20  -1607.335058616     -0.994833899      0.000000542      0.000001703    5.63      0.144427983
 21  -1607.335058635     -0.994833919     -0.000000019      0.000001016    5.74      0.144422734
 22  -1607.335058451     -0.994833734      0.000000184      0.000000394    5.76      0.144417137
               --- The Coupled-Cluster iterations have converged ---

----------------------
COUPLED CLUSTER ENERGY
----------------------

E(0)                                       ...  -1606.340224717
E(CORR)                                    ...     -0.994833734
E(TOT)                                     ...  -1607.335058451
Singles norm <S|S>**1/2                    ...      0.144417137 ( 0.087716840, 0.056700298)  
T1 diagnostic                              ...      0.028883427                              

------------------
LARGEST AMPLITUDES
------------------
  16a-> 19a  -1a-> -1a       0.103088
  13b-> 31b  -1b-> -1b       0.057994
  16a-> 23a  -1a-> -1a       0.049169
  16a-> 22a  -1a-> -1a       0.046659
  16a-> 28a  -1a-> -1a       0.040513
  11a-> 19a  -1a-> -1a       0.037205
  13b-> 40b  -1b-> -1b       0.034986
  16a-> 31a  -1a-> -1a       0.027542
  14a-> 26a  -1a-> -1a       0.024198
  15a-> 27a  -1a-> -1a       0.024198
  16b-> 27b  -1b-> -1b       0.023693
  17b-> 26b  -1b-> -1b       0.023693
  16a-> 38a  -1a-> -1a       0.023602
  14b-> 20b  -1b-> -1b       0.023103
  15b-> 19b  -1b-> -1b       0.023103
  18a-> 20a  -1a-> -1a       0.022660

----------------------
UHF TRIPLES CORRECTION (Algorithm 1)
----------------------

Multiplier for the singles contribution    ...      1.000000000

SPIN-CASE Alpha-Alpha-Alpha:
10% done
20% done
30% done
40% done
50% done
60% done
70% done
80% done
90% done


SPIN-CASE Beta-Beta-Beta:
10% done
20% done
30% done
40% done
50% done
60% done
70% done
80% done
90% done


SPIN-CASE Alpha-Alpha-Beta:
10% done
20% done
30% done
40% done
50% done
60% done
70% done
80% done
90% done


SPIN-CASE Beta-Beta-Alpha:
10% done
20% done
30% done
40% done
50% done
60% done
70% done
80% done
90% done


Triples Correction (T)                     ...     -0.033929678
    alpha-alpha-alpha ... -0.001435669 (  4.2%)
    alpha-alpha-beta  ... -0.016353205 ( 48.2%)
    alpha-beta -beta  ... -0.015001381 ( 44.2%)
    beta -beta -beta  ... -0.001139424 (  3.4%)
Scaling of triples based on CCSD energies (Peterson et al. Molecular Physics 113, 1551 (2015))
E(T*) = f*E(T) where f = E(F12-CCSD)/E(CCSD) 
f = CCSD (with F12)/ CCSD (without F12)    ...      1.000000000
Scaled triples correction (T)              ...     -0.033929678

Final correlation energy                   ...     -1.028763412
E(CCSD)                                    ...  -1607.335058451
E(CCSD(T))                                 ...  -1607.368988129



        !!!!!!!!!!!!!!!!!!!!!!!!!!!!!!!!!!!!!!!!!!!!!!!!!!!!!!!!!!!!!!!!!!!!!!!!!! 
        !  Warning: Densities are linearized densities                           !
        !!!!!!!!!!!!!!!!!!!!!!!!!!!!!!!!!!!!!!!!!!!!!!!!!!!!!!!!!!!!!!!!!!!!!!!!!! 

NORM  =      1.188642324 sqrt=     1.090248744
W(HF) =      0.841295973
------------------------------------------------------------------------------
                           ORCA POPULATION ANALYSIS
------------------------------------------------------------------------------
Input electron density              ... 44_NiF.mdcip
Input spin density                  ... 44_NiF.mdcir
BaseName (.gbw .S,...)              ... 44_NiF

                    ********************************
                    * MULLIKEN POPULATION ANALYSIS *
                    ********************************

------------------------------------------
MULLIKEN ATOMIC CHARGES AND SPIN DENSITIES
------------------------------------------
   0 Ni:    0.611712    0.992475
   1 F :   -0.611712    0.007525
Sum of atomic charges       :   -0.0000000
Sum of atomic spin densities:    1.0000000

---------------------------------------------------
MULLIKEN REDUCED ORBITAL CHARGES AND SPIN DENSITIES
---------------------------------------------------
CHARGE
  0 Nis       :     6.205856  s :     6.205856
      pz      :     4.042311  p :    12.166727
      px      :     4.062208
      py      :     4.062208
      dz2     :     0.995189  d :     8.949283
      dxz     :     1.988809
      dyz     :     1.988809
      dx2y2   :     1.988238
      dxy     :     1.988238
      f0      :     0.007957  f :     0.061484
      f+1     :     0.015242
      f-1     :     0.015242
      f+2     :     0.005971
      f-2     :     0.005971
      f+3     :     0.005551
      f-3     :     0.005551
      g0      :     0.000575  g :     0.004938
      g+1     :     0.000538
      g-1     :     0.000538
      g+2     :     0.000534
      g-2     :     0.000534
      g+3     :     0.000559
      g-3     :     0.000559
      g+4     :     0.000550
      g-4     :     0.000550
  1 F s       :     3.963564  s :     3.963564
      pz      :     1.773078  p :     5.604895
      px      :     1.915908
      py      :     1.915908
      dz2     :     0.009303  d :     0.038377
      dxz     :     0.008551
      dyz     :     0.008551
      dx2y2   :     0.005986
      dxy     :     0.005986
      f0      :     0.000798  f :     0.004360
      f+1     :     0.000741
      f-1     :     0.000741
      f+2     :     0.000548
      f-2     :     0.000548
      f+3     :     0.000492
      f-3     :     0.000492
      g0      :     0.000064  g :     0.000516
      g+1     :     0.000061
      g-1     :     0.000061
      g+2     :     0.000056
      g-2     :     0.000056
      g+3     :     0.000054
      g-3     :     0.000054
      g+4     :     0.000055
      g-4     :     0.000055

SPIN
  0 Nis       :     0.117889  s :     0.117889
      pz      :     0.008157  p :     0.007558
      px      :    -0.000299
      py      :    -0.000299
      dz2     :     0.853740  d :     0.863805
      dxz     :     0.003673
      dyz     :     0.003673
      dx2y2   :     0.001359
      dxy     :     0.001359
      f0      :     0.001580  f :     0.002741
      f+1     :     0.000670
      f-1     :     0.000670
      f+2     :    -0.000151
      f-2     :    -0.000151
      f+3     :     0.000061
      f-3     :     0.000061
      g0      :     0.000136  g :     0.000481
      g+1     :     0.000099
      g-1     :     0.000099
      g+2     :     0.000042
      g-2     :     0.000042
      g+3     :    -0.000004
      g-3     :    -0.000004
      g+4     :     0.000035
      g-4     :     0.000035
  1 F s       :     0.000786  s :     0.000786
      pz      :     0.009993  p :     0.006492
      px      :    -0.001750
      py      :    -0.001750
      dz2     :     0.000287  d :     0.000197
      dxz     :    -0.000025
      dyz     :    -0.000025
      dx2y2   :    -0.000020
      dxy     :    -0.000020
      f0      :     0.000057  f :     0.000048
      f+1     :    -0.000001
      f-1     :    -0.000001
      f+2     :    -0.000003
      f-2     :    -0.000003
      f+3     :    -0.000000
      f-3     :    -0.000000
      g0      :     0.000003  g :     0.000003
      g+1     :     0.000000
      g-1     :     0.000000
      g+2     :    -0.000000
      g-2     :    -0.000000
      g+3     :    -0.000000
      g-3     :    -0.000000
      g+4     :    -0.000000
      g-4     :    -0.000000


                     *******************************
                     * LOEWDIN POPULATION ANALYSIS *
                     *******************************

-----------------------------------------
LOEWDIN ATOMIC CHARGES AND SPIN DENSITIES
-----------------------------------------
   0 Ni:    0.091725    0.983477
   1 F :   -0.091725    0.016523

--------------------------------------------------
LOEWDIN REDUCED ORBITAL CHARGES AND SPIN DENSITIES
--------------------------------------------------
CHARGE
  0 Nis       :     6.225061  s :     6.225061
      pz      :     4.154335  p :    12.322914
      px      :     4.084290
      py      :     4.084290
      dz2     :     1.118965  d :     9.129826
      dxz     :     2.017572
      dyz     :     2.017572
      dx2y2   :     1.987858
      dxy     :     1.987858
      f0      :     0.083660  f :     0.225065
      f+1     :     0.059114
      f-1     :     0.059114
      f+2     :     0.006037
      f-2     :     0.006037
      f+3     :     0.005551
      f-3     :     0.005551
      g0      :     0.000863  g :     0.005408
      g+1     :     0.000629
      g-1     :     0.000629
      g+2     :     0.000534
      g-2     :     0.000534
      g+3     :     0.000559
      g-3     :     0.000559
      g+4     :     0.000550
      g-4     :     0.000550
  1 F s       :     3.636306  s :     3.636306
      pz      :     1.762637  p :     5.395625
      px      :     1.816494
      py      :     1.816494
      dz2     :     0.015089  d :     0.052338
      dxz     :     0.012406
      dyz     :     0.012406
      dx2y2   :     0.006218
      dxy     :     0.006218
      f0      :     0.001696  f :     0.006875
      f+1     :     0.001472
      f-1     :     0.001472
      f+2     :     0.000626
      f-2     :     0.000626
      f+3     :     0.000491
      f-3     :     0.000491
      g0      :     0.000084  g :     0.000582
      g+1     :     0.000081
      g-1     :     0.000081
      g+2     :     0.000059
      g-2     :     0.000059
      g+3     :     0.000054
      g-3     :     0.000054
      g+4     :     0.000055
      g-4     :     0.000055

SPIN
  0 Nis       :     0.113726  s :     0.113726
      pz      :     0.007809  p :     0.006312
      px      :    -0.000749
      py      :    -0.000749
      dz2     :     0.849851  d :     0.860666
      dxz     :     0.004036
      dyz     :     0.004036
      dx2y2   :     0.001371
      dxy     :     0.001371
      f0      :     0.001573  f :     0.002303
      f+1     :     0.000458
      f-1     :     0.000458
      f+2     :    -0.000153
      f-2     :    -0.000153
      f+3     :     0.000061
      f-3     :     0.000061
      g0      :     0.000130  g :     0.000469
      g+1     :     0.000096
      g-1     :     0.000096
      g+2     :     0.000043
      g-2     :     0.000043
      g+3     :    -0.000004
      g-3     :    -0.000004
      g+4     :     0.000035
      g-4     :     0.000035
  1 F s       :     0.001552  s :     0.001552
      pz      :     0.015610  p :     0.012962
      px      :    -0.001324
      py      :    -0.001324
      dz2     :     0.001803  d :     0.001472
      dxz     :    -0.000137
      dyz     :    -0.000137
      dx2y2   :    -0.000029
      dxy     :    -0.000029
      f0      :     0.000556  f :     0.000521
      f+1     :    -0.000013
      f-1     :    -0.000013
      f+2     :    -0.000004
      f-2     :    -0.000004
      f+3     :    -0.000000
      f-3     :    -0.000000
      g0      :     0.000018  g :     0.000017
      g+1     :    -0.000000
      g-1     :    -0.000000
      g+2     :    -0.000000
      g-2     :    -0.000000
      g+3     :    -0.000000
      g-3     :    -0.000000
      g+4     :    -0.000000
      g-4     :    -0.000000


                      *****************************
                      * MAYER POPULATION ANALYSIS *
                      *****************************

  NA   - Mulliken gross atomic population
  ZA   - Total nuclear charge
  QA   - Mulliken gross atomic charge
  VA   - Mayer's total valence
  BVA  - Mayer's bonded valence
  FA   - Mayer's free valence

  ATOM       NA         ZA         QA         VA         BVA        FA
  0 Ni    27.3883    28.0000     0.6117     2.3089     0.6647     1.6442
  1 F      9.6117     9.0000    -0.6117     1.0933     0.6647     0.4286

  Mayer bond orders larger than 0.100000
B(  0-Ni,  1-F ) :   0.6647 



------------------------------------------------------------------------------- 
                                     TIMINGS                                   
------------------------------------------------------------------------------- 


Total execution time                   ...      167.281 sec

Fock Matrix Formation                  ...        1.015 sec (  0.6%)
Initial Guess                          ...        0.130 sec (  0.1%)
DIIS Solver                            ...        9.433 sec (  5.6%)
State Vector Update                    ...        0.420 sec (  0.3%)
Sigma-vector construction              ...      119.784 sec ( 71.6%)
  <0|H|D>                              ...        0.021 sec (  0.0% of sigma)
  <D|H|D>(0-ext Fock)                  ...        0.213 sec (  0.2% of sigma)
  <D|H|D>(0-ext)                       ...        1.145 sec (  1.0% of sigma)
  <D|H|D>(2-ext Fock)                  ...        0.061 sec (  0.1% of sigma)
  <D|H|D>(2-ext)                       ...        3.714 sec (  3.1% of sigma)
  <D|H|D>(4-ext)                       ...       62.594 sec ( 52.3% of sigma)
  <S|H|0>                              ...       12.116 sec ( 10.1% of sigma)
  <S|H|S>                              ...        0.007 sec (  0.0% of sigma)
  <S|H|D>(1-ext)                       ...        0.044 sec (  0.0% of sigma)
  <D|H|S>(1-ext)                       ...        0.684 sec (  0.6% of sigma)
  Fock-dressing                        ...       14.523 sec ( 12.1% of sigma)
  (ik|jl)-dressing                     ...        1.353 sec (  1.1% of sigma)
  (ij|ab),(ia|jb)-dressing             ...       19.242 sec ( 16.1% of sigma)
  Pair energies                        ...        0.038 sec (  0.0% of sigma)
Total Time for computing (T)           ...       25.939 sec ( 15.5% of ALL)
  I/O of integral and amplitudes       ...        4.253 sec ( 16.4% of (T))
  External N**7 contributions          ...        8.936 sec ( 34.4% of (T))
  Internal N**7 contributions          ...        2.975 sec ( 11.5% of (T))
  N**6 triples energy contributions    ...        9.579 sec ( 36.9% of (T))


-------------------
EXTRAPOLATED ENERGY
-------------------


-----------------------------------------------------------------
                      EP1 - MDCI extrapolation:
-----------------------------------------------------------------
NOTE: We use as reference SCF energy, for the extrapolation, the one from the MDCI module and not the one 
from the SCF calculation. In case the first step is a DFT calculation these two might be different.

NOTE: For the SCF part we extrapolate based on the scheme proposed in J. Chem. Phys. 2008, 129, 184116
using the exponents from J. Chem. Theory Comput., 7, 33-43 (2011)

NOTE: For the correlation part we extrapolate based on the scheme proposed in J. Chem. Phys. 1997, 106, 9639
using the exponents from J. Chem. Theory Comput., 7, 33-43 (2011)


Alpha(3/4)     :  7.880 (SCF Extrapolation)
Beta(3/4)      :  2.970 (correlation extrapolation)

SCF energy with basis def2-TZVPP:                     -1606.301580876
SCF energy with basis def2-QZVPP:                     -1606.340224717
Extrapolated CBS SCF energy (3/4) :                   -1606.345547469 (-0.005322752) 

MDCI energy with basis def2-TZVPP:                       -0.971135379
MDCI energy with basis def2-QZVPP:                       -1.028763412
Extrapolated CBS correlation energy (3/4) :              -1.071450812 (-0.042687400)

Estimated CBS total energy (3/4) :                    -1607.416998281



-------------------------   --------------------
FINAL SINGLE POINT ENERGY     -1607.416998281156
-------------------------   --------------------


                            ***************************************
                            *     ORCA property calculations      *
                            ***************************************

                                    ---------------------
                                    Active property flags
                                    ---------------------
   (+) Dipole Moment


------------------------------------------------------------------------------
                       ORCA ELECTRIC PROPERTIES CALCULATION
------------------------------------------------------------------------------

Dipole Moment Calculation                       ... on
Quadrupole Moment Calculation                   ... off
Polarizability Calculation                      ... off
GBWName                                         ... 44_NiF.gbw
Electron density file                           ... 44_NiF.scfp
The origin for moment calculation is the CENTER OF MASS  = ( 0.000000,  0.000000  1.043608)

-------------
DIPOLE MOMENT
-------------
                                X             Y             Z
Electronic contribution:     -0.00000       0.00000      -2.27606
Nuclear contribution   :      0.00000       0.00000      -0.15532
                        -----------------------------------------
Total Dipole Moment    :     -0.00000       0.00000      -2.43138
                        -----------------------------------------
Magnitude (a.u.)       :      2.43138
Magnitude (Debye)      :      6.18008



--------------------
Rotational spectrum 
--------------------
 
Rotational constants in cm-1:     0.000000     0.382421     0.382421 
Rotational constants in MHz :     0.000000 11464.697327 11464.697327 

 Dipole components along the rotational axes: 
x,y,z [a.u.] :    -2.431380     0.000000    -0.000000 
x,y,z [Debye]:    -6.180078     0.000000    -0.000000 

 

                           *** MDCI DENSITY ***

------------------------------------------------------------------------------
                       ORCA ELECTRIC PROPERTIES CALCULATION
------------------------------------------------------------------------------

Dipole Moment Calculation                       ... on
Quadrupole Moment Calculation                   ... off
Polarizability Calculation                      ... off
GBWName                                         ... 44_NiF.gbw
Electron density file                           ... 44_NiF.mdcip
The origin for moment calculation is the CENTER OF MASS  = ( 0.000000,  0.000000  1.043608)

-------------
DIPOLE MOMENT
-------------
                                X             Y             Z
Electronic contribution:      0.00000       0.00000      -1.86072
Nuclear contribution   :      0.00000       0.00000      -0.15532
                        -----------------------------------------
Total Dipole Moment    :      0.00000       0.00000      -2.01604
                        -----------------------------------------
Magnitude (a.u.)       :      2.01604
Magnitude (Debye)      :      5.12436



--------------------
Rotational spectrum 
--------------------
 
Rotational constants in cm-1:     0.000000     0.382421     0.382421 
Rotational constants in MHz :     0.000000 11464.697327 11464.697327 

 Dipole components along the rotational axes: 
x,y,z [a.u.] :    -2.016038     0.000000     0.000000 
x,y,z [Debye]:    -5.124361     0.000000     0.000000 

 

Timings for individual modules:

Sum of individual times         ...      211.466 sec (=   3.524 min)
GTO integral calculation        ...        1.844 sec (=   0.031 min)   0.9 %
SCF iterations                  ...       11.651 sec (=   0.194 min)   5.5 %
MDCI module                     ...      197.971 sec (=   3.300 min)  93.6 %
                             ****ORCA TERMINATED NORMALLY****
TOTAL RUN TIME: 0 days 0 hours 3 minutes 32 seconds 434 msec
