
                                 *****************
                                 * O   R   C   A *
                                 *****************

           --- An Ab Initio, DFT and Semiempirical electronic structure package ---

                  #######################################################
                  #                        -***-                        #
                  #          Department of theory and spectroscopy      #
                  #               Directorship: Frank Neese             #
                  #        Max Planck Institute fuer Kohlenforschung    #
                  #                Kaiser Wilhelm Platz 1               #
                  #                 D-45470 Muelheim/Ruhr               #
                  #                      Germany                        #
                  #                                                     #
                  #                  All rights reserved                #
                  #                        -***-                        #
                  #######################################################


                         Program Version 4.2.0 -  RELEASE  -


 With contributions from (in alphabetic order):
   Daniel Aravena         : Magnetic Suceptibility
   Michael Atanasov       : Ab Initio Ligand Field Theory (pilot matlab implementation)
   Alexander A. Auer      : GIAO ZORA, VPT2
   Ute Becker             : Parallelization
   Giovanni Bistoni       : ED, misc. LED, open-shell LED, HFLED
   Martin Brehm           : Molecular dynamics
   Dmytro Bykov           : SCF Hessian
   Vijay G. Chilkuri      : MRCI spin determinant printing, contributions to CSF-ICE
   Dipayan Datta          : RHF DLPNO-CCSD density
   Achintya Kumar Dutta   : EOM-CC, STEOM-CC
   Dmitry Ganyushin       : Spin-Orbit,Spin-Spin,Magnetic field MRCI
   Miquel Garcia          : C-PCM Hessian, Gaussian charge scheme
   Yang Guo               : DLPNO-NEVPT2, CIM, IAO-localization
   Andreas Hansen         : Spin unrestricted coupled pair/coupled cluster methods
   Benjamin Helmich-Paris : CASSCF linear response (MC-RPA)
   Lee Huntington         : MR-EOM, pCC
   Robert Izsak           : Overlap fitted RIJCOSX, COSX-SCS-MP3, EOM
   Christian Kollmar      : KDIIS, OOCD, Brueckner-CCSD(T), CCSD density
   Simone Kossmann        : Meta GGA functionals, TD-DFT gradient, OOMP2, MP2 Hessian
   Martin Krupicka        : AUTO-CI
   Lucas Lang             : DCDCAS
   Dagmar Lenk            : GEPOL surface, SMD
   Dimitrios Liakos       : Extrapolation schemes; Compound Job, initial MDCI parallelization
   Dimitrios Manganas     : Further ROCIS development; embedding schemes
   Dimitrios Pantazis     : SARC Basis sets
   Taras Petrenko         : DFT Hessian,TD-DFT gradient, ASA, ECA, R-Raman, ABS, FL, XAS/XES, NRVS
   Peter Pinski           : DLPNO-MP2, DLPNO-MP2 Gradient
   Christoph Reimann      : Effective Core Potentials
   Marius Retegan         : Local ZFS, SOC
   Christoph Riplinger    : Optimizer, TS searches, QM/MM, DLPNO-CCSD(T), (RO)-DLPNO pert. Triples
   Tobias Risthaus        : Range-separated hybrids, TD-DFT gradient, RPA, STAB
   Michael Roemelt        : Original ROCIS implementation
   Masaaki Saitow         : Open-shell DLPNO-CCSD energy and density
   Barbara Sandhoefer     : DKH picture change effects
   Avijit Sen             : IP-ROCIS
   Kantharuban Sivalingam : CASSCF convergence, NEVPT2, FIC-MRCI
   Bernardo de Souza      : ESD, SOC TD-DFT
   Georgi Stoychev        : AutoAux, RI-MP2 NMR
   Willem Van den Heuvel  : Paramagnetic NMR
   Boris Wezisla          : Elementary symmetry handling
   Frank Wennmohs         : Technical directorship


 We gratefully acknowledge several colleagues who have allowed us to
 interface, adapt or use parts of their codes:
   Stefan Grimme, W. Hujo, H. Kruse,             : VdW corrections, initial TS optimization,
                  C. Bannwarth                     DFT functionals, gCP, sTDA/sTD-DF
   Ed Valeev, F. Pavosevic, A. Kumar             : LibInt (2-el integral package), F12 methods
   Garnet Chan, S. Sharma, J. Yang, R. Olivares  : DMRG
   Ulf Ekstrom                                   : XCFun DFT Library
   Mihaly Kallay                                 : mrcc  (arbitrary order and MRCC methods)
   Andreas Klamt, Michael Diedenhofen            : otool_cosmo (COSMO solvation model)
   Jiri Pittner, Ondrej Demel                    : Mk-CCSD
   Frank Weinhold                                : gennbo (NPA and NBO analysis)
   Christopher J. Cramer and Donald G. Truhlar   : smd solvation model
   Lars Goerigk                                  : TD-DFT with DH, B97 family of functionals
   V. Asgeirsson, H. Jonsson                     : NEB implementation
   FAccTs GmbH                                   : IRC, NEB, NEB-TS, Multilevel, MM, QM/MM, CI optimization
   S Lehtola, MJT Oliveira, MAL Marques          : LibXC Library


 Your calculation uses the libint2 library for the computation of 2-el integrals
 For citations please refer to: http://libint.valeyev.net

 Your ORCA version has been built with support for libXC version: 4.2.3
 For citations please refer to: https://tddft.org/programs/libxc/

 This ORCA versions uses:
   CBLAS   interface :  Fast vector & matrix operations
   LAPACKE interface :  Fast linear algebra routines
   SCALAPACK package :  Parallel linear algebra routines


----- Orbital basis set information -----
Your calculation utilizes the basis: def2-TZVPP
   F. Weigend and R. Ahlrichs, Phys. Chem. Chem. Phys. 7, 3297 (2005).

================================================================================
                                        WARNINGS
                       Please study these warnings very carefully!
================================================================================


WARNING: your system is open-shell and RHF/RKS was chosen
  ===> : WILL SWITCH to UHF/UKS


WARNING: MDCI localization with Augmented Hessian Foster-Boys
  ===> : Switching off randomization!

WARNING: Post HF methods need fully converged wavefunctions
  ===> : Setting SCFConvForced true
         You can overwrite this default with %scf ConvForced false 


INFO   : the flag for use of LIBINT has been found!

================================================================================
                                       INPUT FILE
================================================================================
NAME = 48_NiS.in
|  1> #
|  2> # 48_NiS ccsd(t)/cbs
|  3> #
|  4> ! ccsd(t) extrapolate(3/4,def2) verytightscf slowconv
|  5> 
|  6> *xyz 0 3
|  7>   Ni  0.00000000000000      0.00000000000000      0.01491413562016
|  8>   S   0.00000000000000      0.00000000000000      1.98508586437984
|  9> *
| 10> 
| 11> %maxcore 5000
| 12> 
| 13> %scf
| 14> MaxIter 1500
| 15> DIISMaxEq 15
| 16> directresetfreq 1
| 17> end
| 18> 
| 19> %pal
| 20> nprocs 24
| 21> end
| 22> 
| 23> 
| 24>                          ****END OF INPUT****
================================================================================

                   *****************************************
                   * Extrapolated Single Point Calculation *
                   *****************************************

----- Orbital basis set information -----
Your calculation utilizes the basis: def2-TZVPP
   F. Weigend and R. Ahlrichs, Phys. Chem. Chem. Phys. 7, 3297 (2005).

----- AuxJ basis set information -----
Your calculation utilizes the auxiliary basis: def2/J
   F. Weigend, Phys. Chem. Chem. Phys. 8, 1057 (2006).

----- AuxC basis set information -----
Your calculation utilizes the auxiliary basis: def2-TZVPP/C
  H-La, Hf-Rn : A. Hellweg, C. Hattig, S. Hofener and W. Klopper, Theor. Chem. Acc. 117, 587 (2007).
        Ce-Lu : J. Chmela and M. E. Harding, Mol. Phys. (2018).

----- AuxJK basis set information -----
Your calculation utilizes the auxiliary basis: def2/JK
   H-Ba, Hf-Rn: F. Weigend, J. Comput. Chem. 29, 167 (2008).

All done

                     -----------------------------------------
                     Extrapolated Energy 1 Basis=  def2-TZVPP
                     -----------------------------------------

---------------------------------
CARTESIAN COORDINATES (ANGSTROEM)
---------------------------------
  Ni     0.000000    0.000000    0.014914
  S      0.000000    0.000000    1.985086

----------------------------
CARTESIAN COORDINATES (A.U.)
----------------------------
  NO LB      ZA    FRAG     MASS         X           Y           Z
   0 Ni   28.0000    0    58.700    0.000000    0.000000    0.028184
   1 S    16.0000    0    32.060    0.000000    0.000000    3.751269

--------------------------------
INTERNAL COORDINATES (ANGSTROEM)
--------------------------------
 Ni     0   0   0     0.000000000000     0.00000000     0.00000000
 S      1   0   0     1.970171728760     0.00000000     0.00000000

---------------------------
INTERNAL COORDINATES (A.U.)
---------------------------
 Ni     0   0   0     0.000000000000     0.00000000     0.00000000
 S      1   0   0     3.723085004150     0.00000000     0.00000000

---------------------
BASIS SET INFORMATION
---------------------
There are 2 groups of distinct atoms

 Group   1 Type Ni  : 17s12p7d2f1g contracted to 6s5p4d2f1g pattern {842111/63111/4111/11/1}
 Group   2 Type S   : 14s9p3d1f contracted to 5s5p3d1f pattern {73211/51111/111/1}

Atom   0Ni   basis set group =>   1
Atom   1S    basis set group =>   2
---------------------------------
AUXILIARY/J BASIS SET INFORMATION
---------------------------------
There are 2 groups of distinct atoms

 Group   1 Type Ni  : 19s5p5d3f3g contracted to 8s5p5d2f3g pattern {121111111/11111/11111/21/111}
 Group   2 Type S   : 14s5p5d2f1g contracted to 8s4p3d1f1g pattern {71111111/2111/311/2/1}

Atom   0Ni   basis set group =>   1
Atom   1S    basis set group =>   2
---------------------------------
AUXILIARY/C BASIS SET INFORMATION
---------------------------------
There are 2 groups of distinct atoms

 Group   1 Type Ni  : 9s9p8d7f5g3h1i contracted to 9s9p8d7f5g3h1i pattern {111111111/111111111/11111111/1111111/11111/111/1}
 Group   2 Type S   : 11s8p7d5f2g contracted to 11s8p7d5f2g pattern {11111111111/11111111/1111111/11111/11}

Atom   0Ni   basis set group =>   1
Atom   1S    basis set group =>   2
----------------------------------
AUXILIARY/JK BASIS SET INFORMATION
----------------------------------
There are 2 groups of distinct atoms

 Group   1 Type Ni  : 19s14p12d10f7g3h1i contracted to 16s13p11d9f5g3h1i pattern {4111111111111111/2111111111111/21111111111/211111111/31111/111/1}
 Group   2 Type S   : 16s12p10d4f1g contracted to 13s11p9d4f1g pattern {4111111111111/21111111111/211111111/1111/1}

Atom   0Ni   basis set group =>   1
Atom   1S    basis set group =>   2


           ************************************************************
           *        Program running with 24 parallel MPI-processes    *
           *              working on a common directory               *
           ************************************************************
------------------------------------------------------------------------------
                           ORCA GTO INTEGRAL CALCULATION
------------------------------------------------------------------------------

                         BASIS SET STATISTICS AND STARTUP INFO

 # of primitive gaussian shells          ...   66
 # of primitive gaussian functions       ...  174
 # of contracted shells                  ...   32
 # of contracted basis functions         ...  106
 Highest angular momentum                ...    4
 Maximum contraction depth               ...    8
 Integral package used                   ... LIBINT
 Integral threshhold            Thresh   ...  1.000e-12
 Primitive cut-off              TCut     ...  1.000e-14


------------------------------ INTEGRAL EVALUATION ----------------------------


 * One electron integrals 
 Pre-screening matrix                    ... done
 Shell pair data                         ... done (   0.000 sec)



           ************************************************************
           *        Program running with 24 parallel MPI-processes    *
           *              working on a common directory               *
           ************************************************************
-------------------------------------------------------------------------------
                                 ORCA SCF
-------------------------------------------------------------------------------

------------
SCF SETTINGS
------------
Hamiltonian:
 Ab initio Hamiltonian  Method          .... Hartree-Fock(GTOs)


General Settings:
 Integral files         IntName         .... 48_NiS
 Hartree-Fock type      HFTyp           .... UHF
 Total Charge           Charge          ....    0
 Multiplicity           Mult            ....    3
 Number of Electrons    NEL             ....   44
 Basis Dimension        Dim             ....  106
 Nuclear Repulsion      ENuc            ....    120.3303173311 Eh

Convergence Acceleration:
 DIIS                   CNVDIIS         .... on
   Start iteration      DIISMaxIt       ....     0
   Startup error        DIISStart       ....  0.200000
   # of expansion vecs  DIISMaxEq       ....    15
   Bias factor          DIISBfac        ....   1.050
   Max. coefficient     DIISMaxC        ....  10.000
 Newton-Raphson         CNVNR           .... off
 SOSCF                  CNVSOSCF        .... off
 Level Shifting         CNVShift        .... on
   Level shift para.    LevelShift      ....    0.2500
   Turn off err/grad.   ShiftErr        ....    0.0000
 Zerner damping         CNVZerner       .... off
 Static damping         CNVDamp         .... on
   Fraction old density DampFac         ....    0.8500
   Max. Damping (<1)    DampMax         ....    0.9800
   Min. Damping (>=0)   DampMin         ....    0.0000
   Turn off err/grad.   DampErr         ....    0.0300
 Fernandez-Rico         CNVRico         .... off

SCF Procedure:
 Maximum # iterations   MaxIter         ....  1500
 SCF integral mode      SCFMode         .... Direct
   Integral package                     .... LIBINT
 Reset frequency        DirectResetFreq ....     1
 Integral Threshold     Thresh          ....  1.000e-12 Eh
 Primitive CutOff       TCut            ....  1.000e-14 Eh

Convergence Tolerance:
 Convergence Check Mode ConvCheckMode   .... Total+1el-Energy
 Convergence forced     ConvForced      .... 1
 Energy Change          TolE            ....  1.000e-09 Eh
 1-El. energy change                    ....  1.000e-06 Eh
 DIIS Error             TolErr          ....  1.000e-08


Diagonalization of the overlap matrix:
Smallest eigenvalue                        ... 4.375e-03
Time for diagonalization                   ...    0.019 sec
Threshold for overlap eigenvalues          ... 1.000e-08
Number of eigenvalues below threshold      ... 0
Time for construction of square roots      ...    0.007 sec
Total time needed                          ...    0.027 sec

-------------------
DFT GRID GENERATION
-------------------

General Integration Accuracy     IntAcc      ...  4.340
Radial Grid Type                 RadialGrid  ... Gauss-Chebyshev
Angular Grid (max. acc.)         AngularGrid ... Lebedev-110
Angular grid pruning method      GridPruning ... 3 (G Style)
Weight generation scheme         WeightScheme... Becke
Basis function cutoff            BFCut       ...    1.0000e-12
Integration weight cutoff        WCut        ...    1.0000e-14
Grids for H and He will be reduced by one unit

# of grid points (after initial pruning)     ...   4718 (   0.0 sec)
# of grid points (after weights+screening)   ...   4692 (   0.0 sec)
nearest neighbour list constructed           ...    0.0 sec
Grid point re-assignment to atoms done       ...    0.0 sec
Grid point division into batches done        ...    0.0 sec
Reduced shell lists constructed in    0.0 sec

Total number of grid points                  ...     4692
Total number of batches                      ...       74
Average number of points per batch           ...       63
Average number of grid points per atom       ...     2346
Average number of shells per batch           ...     9.60 (30.00%)
Average number of basis functions per batch  ...    30.40 (28.68%)
Average number of large shells per batch     ...     7.20 (75.00%)
Average number of large basis fcns per batch ...    21.60 (71.05%)
Maximum spatial batch extension              ...  17.39, 26.34, 14.81 au
Average spatial batch extension              ...   0.86,  1.19,  0.80 au

Time for grid setup =    0.022 sec

------------------------------
INITIAL GUESS: MODEL POTENTIAL
------------------------------
Loading Hartree-Fock densities                     ... done
Calculating cut-offs                               ... done
Setting up the integral package                    ... done
Initializing the effective Hamiltonian             ... done
Starting the Coulomb interaction                   ... done (   0.0 sec)
Reading the grid                                   ... done
Mapping shells                                     ... done
Starting the XC term evaluation                    ... done (   0.0 sec)
Transforming the Hamiltonian                       ... done (   0.0 sec)
Diagonalizing the Hamiltonian                      ... done (   0.0 sec)
Back transforming the eigenvectors                 ... done (   0.0 sec)
Now organizing SCF variables                       ... done
                      ------------------
                      INITIAL GUESS DONE (   0.1 sec)
                      ------------------
--------------
SCF ITERATIONS
--------------
ITER       Energy         Delta-E        Max-DP      RMS-DP      [F,P]     Damp
  0  -1904.1086123316   0.000000000000 0.01558925  0.00042108  0.2458597 0.8500
  1  -1904.1390141902  -0.030401858553 0.01559676  0.00039682  0.1542709 0.8500
                               ***Turning on DIIS***
  2  -1904.1578776243  -0.018863434159 0.01313388  0.00031949  0.0997364 0.8500
  3  -1905.0109770392  -0.853099414910 0.01033531  0.00025487  0.0848898 0.8500
  4  -1905.1433717729  -0.132394733687 0.00890072  0.00022859  0.0723124 0.8500
  5  -1905.0737720536   0.069599719345 0.00818920  0.00021834  0.0615856 0.8500
  6  -1904.9812318607   0.092540192907 0.00868341  0.00021044  0.0524027 0.8500
  7  -1904.9140015375   0.067230323190 0.00877390  0.00020109  0.0445596 0.8500
  8  -1904.8565986163   0.057402921125 0.00858540  0.00019062  0.0394539 0.8500
  9  -1904.8046617694   0.051936846966 0.00825827  0.00018006  0.0371931 0.8500
 10  -1904.7622630507   0.042398718713 0.00789279  0.00017060  0.0351330 0.8500
 11  -1904.7368571136   0.025405937101 0.00756743  0.00016355  0.0332695 0.8500
 12  -1904.7379528531  -0.001095739524 0.00735031  0.00016050  0.0315778 0.8500
 13  -1904.7761304681  -0.038177614978 0.00729680  0.00016340  0.0300270 0.8500
 14  -1904.8557919432  -0.079661475129 0.04940896  0.00115686  0.0285765 0.0000
 15  -1904.6194795836   0.236312359601 0.02626512  0.00061252  0.0176963 0.0000
 16  -1904.3780445570   0.241435026639 0.00916627  0.00021445  0.0146929 0.0000
 17  -1904.5151098642  -0.137065307273 0.02721305  0.00047195  0.0129297 0.0000
 18  -1904.5867593721  -0.071649507898 0.01464772  0.00025805  0.0116878 0.0000
 19  -1904.4634624157   0.123296956455 0.01320720  0.00022136  0.0041041 0.0000
 20  -1904.4199781323   0.043484283346 0.00889849  0.00014733  0.0030477 0.0000
 21  -1904.3859404531   0.034037679211 0.00527320  0.00010062  0.0017514 0.0000
 22  -1904.3668562516   0.019084201517 0.00441319  0.00007008  0.0014633 0.0000
 23  -1904.3560056383   0.010850613259 0.00264178  0.00005018  0.0007658 0.0000
 24  -1904.3469528136   0.009052824758 0.00281967  0.00004559  0.0005044 0.0000
 25  -1904.3445387717   0.002414041855 0.00279004  0.00004639  0.0002720 0.0000
 26  -1904.3427386189   0.001800152807 0.00321440  0.00005065  0.0001898 0.0000
 27  -1904.3433722718  -0.000633652838 0.00404830  0.00006155  0.0001484 0.0000
 28  -1904.3438595126  -0.000487240845 0.00394447  0.00005969  0.0001446 0.0000
 29  -1904.3441051823  -0.000245669665 0.00375805  0.00005695  0.0001498 0.0000
 30  -1904.3412847094   0.002820472904 0.00069834  0.00001520  0.0001638 0.0000
 31  -1904.3389530155   0.002331693869 0.00085184  0.00001096  0.0001396 0.0000
 32  -1904.3384898650   0.000463150485 0.00055560  0.00000742  0.0001940 0.0000
 33  -1904.3381656915   0.000324173562 0.00082264  0.00001161  0.0002049 0.0000
 34  -1904.3381767133  -0.000011021872 0.00073236  0.00001077  0.0002193 0.0000
 35  -1904.3383541813  -0.000177467998 0.00060100  0.00000916  0.0002180 0.0000
 36  -1904.3377841195   0.000570061859 0.00119245  0.00001717  0.0002125 0.0000
 37  -1904.3371066067   0.000677512732 0.00148667  0.00002152  0.0002333 0.0000
 38  -1904.3363145403   0.000792066456 0.00186927  0.00002743  0.0002524 0.0000
 39  -1904.3353873013   0.000927238969 0.00232708  0.00003425  0.0002810 0.0000
 40  -1904.3330536147   0.002333686614 0.00407256  0.00006011  0.0003282 0.0000
 41  -1904.3325294261   0.000524188593 0.00353601  0.00005474  0.0004347 0.0000
 42  -1904.3368679424  -0.004338516259 0.00167084  0.00002216  0.0004681 0.0000
 43  -1904.3442753324  -0.007407390072 0.00798121  0.00011264  0.0002495 0.0000
 44  -1904.3477842016  -0.003508869209 0.00786976  0.00011524  0.0001736 0.0000
 45  -1904.3444499281   0.003334273493 0.00309634  0.00005231  0.0002614 0.0000
 46  -1904.3382953599   0.006154568273 0.00110524  0.00001529  0.0002152 0.0000
 47  -1904.3367179839   0.001577375949 0.00024811  0.00000383  0.0002197 0.0000
 48  -1904.3362612569   0.000456727063 0.00040651  0.00000523  0.0002423 0.0000
 49  -1904.3359746255   0.000286631332 0.00048672  0.00000678  0.0002586 0.0000
 50  -1904.3357858479   0.000188777592 0.00058018  0.00000837  0.0002646 0.0000
 51  -1904.3355960144   0.000189833527 0.00073777  0.00001072  0.0002671 0.0000
 52  -1904.3352277655   0.000368248897 0.00108789  0.00001572  0.0002705 0.0000
 53  -1904.3349368537   0.000290911779 0.00136090  0.00001986  0.0002803 0.0000
 54  -1904.3351305293  -0.000193675546 0.00123837  0.00001853  0.0002879 0.0000
 55  -1904.3359386363  -0.000808106985 0.00079431  0.00001248  0.0002804 0.0000
 56  -1904.3370532967  -0.001114660385 0.00013346  0.00000280  0.0002588 0.0000
 57  -1904.3370334665   0.000019830143 0.00053553  0.00000792  0.0002282 0.0000
 58  -1904.3354619052   0.001571561361 0.00206086  0.00002960  0.0002366 0.0000
 59  -1904.3387278427  -0.003265937535 0.00221146  0.00002974  0.0002870 0.0000
 60  -1904.3398379680  -0.001110125326 0.00188286  0.00002718  0.0001415 0.0000
 61  -1904.3373272878   0.002510680206 0.00075391  0.00000959  0.0001584 0.0000
 62  -1904.3355008610   0.001826426786 0.00161925  0.00002202  0.0001971 0.0000
 63  -1904.3361765683  -0.000675707312 0.00046375  0.00000787  0.0002643 0.0000
 64  -1904.3381666749  -0.001990106599 0.00096216  0.00001265  0.0002318 0.0000
 65  -1904.3392880213  -0.001121346334 0.00121575  0.00001706  0.0001555 0.0000
 66  -1904.3397824389  -0.000494417623 0.00125361  0.00001825  0.0001523 0.0000
 67  -1904.3403475257  -0.000565086815 0.00148517  0.00002170  0.0001597 0.0000
 68  -1904.3402193847   0.000128141002 0.00127045  0.00001915  0.0001678 0.0000
 69  -1904.3374893425   0.002730042198 0.00096471  0.00001233  0.0001704 0.0000
 70  -1904.3366712591   0.000818083421 0.00065466  0.00000906  0.0002046 0.0000
 71  -1904.3366941564  -0.000022897292 0.00044763  0.00000667  0.0002130 0.0000
 72  -1904.3369886857  -0.000294529333 0.00023246  0.00000380  0.0002083 0.0000
 73  -1904.3372763952  -0.000287709530 0.00009775  0.00000183  0.0001981 0.0000
 74  -1904.3376655369  -0.000389141706 0.00021237  0.00000287  0.0001896 0.0000
 75  -1904.3394510076  -0.001785470618 0.00172587  0.00002406  0.0001766 0.0000
 76  -1904.3406494556  -0.001198448064 0.00192588  0.00002784  0.0001641 0.0000
 77  -1904.3347845527   0.005864902970 0.00386362  0.00005202  0.0001801 0.0000
 78  -1904.3343302496   0.000454303065 0.00213178  0.00003153  0.0003490 0.0000
 79  -1904.3357437228  -0.001413473226 0.00106759  0.00001748  0.0003288 0.0000
 80  -1904.3377776352  -0.002033912378 0.00019529  0.00000366  0.0002853 0.0000
 81  -1904.3396924379  -0.001914802706 0.00123076  0.00001670  0.0002176 0.0000
 82  -1904.3406001522  -0.000907714338 0.00149081  0.00002139  0.0001531 0.0000
 83  -1904.3408736921  -0.000273539841 0.00161725  0.00002390  0.0001572 0.0000
 84  -1904.3400870551   0.000786636939 0.00096301  0.00001548  0.0001678 0.0000
 85  -1904.3392217702   0.000865284949 0.00035603  0.00000682  0.0001681 0.0000
 86  -1904.3385193972   0.000702372993 0.00009806  0.00000174  0.0001628 0.0000
 87  -1904.3379717148   0.000547682382 0.00031884  0.00000428  0.0001860 0.0000
 88  -1904.3378727356   0.000098979220 0.00009067  0.00000147  0.0002040 0.0000
 89  -1904.3382598533  -0.000387117678 0.00047670  0.00000649  0.0001992 0.0000
 90  -1904.3389224226  -0.000662569356 0.00113799  0.00001598  0.0001739 0.0000
 91  -1904.3379342000   0.000988222673 0.00030333  0.00000562  0.0001696 0.0000
 92  -1904.3367045206   0.001229679368 0.00030050  0.00000377  0.0001721 0.0000
 93  -1904.3365296519   0.000174868660 0.00008349  0.00000112  0.0002074 0.0000
 94  -1904.3365722939  -0.000042641953 0.00007150  0.00000104  0.0002057 0.0000
 95  -1904.3363865236   0.000185770322 0.00024849  0.00000349  0.0002053 0.0000
 96  -1904.3360388811   0.000347642464 0.00046381  0.00000658  0.0002112 0.0000
 97  -1904.3361479439  -0.000109062766 0.00021315  0.00000341  0.0002184 0.0000
 98  -1904.3369825791  -0.000834635188 0.00046118  0.00000616  0.0002083 0.0000
 99  -1904.3384670541  -0.001484475071 0.00131838  0.00001846  0.0001758 0.0000
100  -1904.3392243057  -0.000757251566 0.00131290  0.00001950  0.0001772 0.0000
101  -1904.3391098930   0.000114412705 0.00090256  0.00001409  0.0001865 0.0000
102  -1904.3369318124   0.002178080569 0.00114774  0.00001502  0.0001886 0.0000
103  -1904.3356345348   0.001297277630 0.00156655  0.00002211  0.0002349 0.0000
104  -1904.3358200699  -0.000185535117 0.00117632  0.00001787  0.0002808 0.0000
105  -1904.3378905957  -0.002070525809 0.00035711  0.00000470  0.0002793 0.0000
106  -1904.3397708508  -0.001880255098 0.00128580  0.00001783  0.0002051 0.0000
107  -1904.3390115343   0.000759316548 0.00012677  0.00000298  0.0001715 0.0000
108  -1904.3385796899   0.000431844372 0.00007583  0.00000170  0.0001812 0.0000
109  -1904.3385417015   0.000037988430 0.00005647  0.00000109  0.0001898 0.0000
110  -1904.3385500871  -0.000008385668 0.00003662  0.00000067  0.0001931 0.0000
111  -1904.3385626333  -0.000012546142 0.00003290  0.00000054  0.0001953 0.0000
112  -1904.3386198220  -0.000057188755 0.00009328  0.00000133  0.0001963 0.0000
113  -1904.3388764158  -0.000256593826 0.00037661  0.00000527  0.0001940 0.0000
114  -1904.3395168108  -0.000640394956 0.00101406  0.00001428  0.0001805 0.0000
115  -1904.3401317528  -0.000614941951 0.00145492  0.00002089  0.0001804 0.0000
116  -1904.3393265611   0.000805191703 0.00090431  0.00001418  0.0001935 0.0000
117  -1904.3379339706   0.001392590410 0.00031873  0.00000624  0.0001970 0.0000
118  -1904.3359201254   0.002013845267 0.00081468  0.00001062  0.0001932 0.0000
119  -1904.3356418746   0.000278250796 0.00025634  0.00000381  0.0002393 0.0000
120  -1904.3359006981  -0.000258823518 0.00009787  0.00000173  0.0002251 0.0000
121  -1904.3360315118  -0.000130813676 0.00004984  0.00000094  0.0002129 0.0000
122  -1904.3368637244  -0.000832212668 0.00063851  0.00000870  0.0002079 0.0000
123  -1904.3368801912  -0.000016466789 0.00022271  0.00000358  0.0001871 0.0000
124  -1904.3367484012   0.000131790054 0.00012439  0.00000213  0.0001871 0.0000
125  -1904.3365827373   0.000165663850 0.00004626  0.00000094  0.0001940 0.0000
126  -1904.3363935367   0.000189200619 0.00002858  0.00000037  0.0002005 0.0000
127  -1904.3362100541   0.000183482636 0.00008687  0.00000118  0.0002065 0.0000
128  -1904.3360902273   0.000119826725 0.00009778  0.00000141  0.0002114 0.0000
129  -1904.3362965226  -0.000206295214 0.00010159  0.00000131  0.0002134 0.0000
130  -1904.3373667402  -0.001070217637 0.00080651  0.00001106  0.0002049 0.0000
131  -1904.3390154299  -0.001648689693 0.00133435  0.00001900  0.0001923 0.0000
132  -1904.3400647996  -0.001049369716 0.00171553  0.00002487  0.0002073 0.0000
133  -1904.3398409914   0.000223808220 0.00110006  0.00001697  0.0002226 0.0000
134  -1904.3369855546   0.002855436752 0.00156645  0.00002027  0.0002234 0.0000
135  -1904.3360567573   0.000928797355 0.00176733  0.00002484  0.0002804 0.0000
136  -1904.3377005880  -0.001643830761 0.00048868  0.00000868  0.0003299 0.0000
137  -1904.3384965638  -0.000795975807 0.00033437  0.00000576  0.0002746 0.0000
138  -1904.3389101581  -0.000413594262 0.00008935  0.00000174  0.0002557 0.0000
139  -1904.3388684315   0.000041726616 0.00012462  0.00000203  0.0002346 0.0000
140  -1904.3387918998   0.000076531691 0.00009838  0.00000158  0.0002337 0.0000
141  -1904.3387258026   0.000066097218 0.00008604  0.00000135  0.0002315 0.0000
142  -1904.3386683840   0.000057418546 0.00007127  0.00000112  0.0002303 0.0000
143  -1904.3386264655   0.000041918535 0.00004468  0.00000074  0.0002295 0.0000
144  -1904.3386073868   0.000019078723 0.00001672  0.00000025  0.0002281 0.0000
145  -1904.3387043883  -0.000097001477 0.00026209  0.00000359  0.0002248 0.0000
146  -1904.3393128129  -0.000608424593 0.00107051  0.00001488  0.0002112 0.0000
147  -1904.3397602230  -0.000447410175 0.00140828  0.00002012  0.0001999 0.0000
148  -1904.3392130296   0.000547193414 0.00084650  0.00001303  0.0002133 0.0000
149  -1904.3377148217   0.001498207920 0.00021304  0.00000293  0.0002141 0.0000
150  -1904.3377926706  -0.000077848896 0.00021459  0.00000330  0.0002201 0.0000
151  -1904.3331779363   0.004614734331 0.00314753  0.00004295  0.0002090 0.0000
152  -1904.3341840707  -0.001006134404 0.00033968  0.00000760  0.0004044 0.0000
153  -1904.3347500731  -0.000566002450 0.00051203  0.00000821  0.0002871 0.0000
154  -1904.3346895722   0.000060500954 0.00076581  0.00001133  0.0002772 0.0000
155  -1904.3348902407  -0.000200668569 0.00062580  0.00000953  0.0002893 0.0000
156  -1904.3351902173  -0.000299976532 0.00050084  0.00000777  0.0002850 0.0000
157  -1904.3355026006  -0.000312383326 0.00039458  0.00000620  0.0002786 0.0000
158  -1904.3358451806  -0.000342580022 0.00027825  0.00000448  0.0002721 0.0000
159  -1904.3362427759  -0.000397595309 0.00014779  0.00000258  0.0002643 0.0000
160  -1904.3367200279  -0.000477252020 0.00003485  0.00000067  0.0002547 0.0000
161  -1904.3372990828  -0.000579054847 0.00017741  0.00000239  0.0002426 0.0000
162  -1904.3380715160  -0.000772433218 0.00058328  0.00000821  0.0002261 0.0000
163  -1904.3373402274   0.000731288595 0.00008551  0.00000125  0.0001925 0.0000
164  -1904.3360086266   0.001331600794 0.00068660  0.00000908  0.0002141 0.0000
165  -1904.3358133604   0.000195266234 0.00042592  0.00000618  0.0002531 0.0000
166  -1904.3355582514   0.000255109017 0.00076744  0.00001127  0.0002504 0.0000
167  -1904.3342177190   0.001340532373 0.00123592  0.00001781  0.0002863 0.0000
168  -1904.3402053531  -0.005987634146 0.00396912  0.00005373  0.0003185 0.0000
169  -1904.3416820003  -0.001476647156 0.00234567  0.00003435  0.0002364 0.0000
170  -1904.3404963729   0.001185627372 0.00129534  0.00002036  0.0002411 0.0000
171  -1904.3368083737   0.003687999224 0.00125497  0.00001580  0.0002266 0.0000
172  -1904.3361524642   0.000655909456 0.00059319  0.00000812  0.0002656 0.0000
173  -1904.3363186836  -0.000166219362 0.00033747  0.00000506  0.0002648 0.0000
174  -1904.3366111426  -0.000292459051 0.00013876  0.00000240  0.0002554 0.0000
175  -1904.3369129731  -0.000301830423 0.00002167  0.00000053  0.0002435 0.0000
176  -1904.3372013007  -0.000288327612 0.00015124  0.00000202  0.0002321 0.0000
177  -1904.3375200510  -0.000318750330 0.00029150  0.00000407  0.0002219 0.0000
178  -1904.3379728439  -0.000452792915 0.00051862  0.00000731  0.0002117 0.0000
179  -1904.3380355112  -0.000062667259 0.00041060  0.00000607  0.0001970 0.0000
180  -1904.3377509991   0.000284512054 0.00018918  0.00000312  0.0001999 0.0000
181  -1904.3374776461   0.000273352996 0.00006623  0.00000132  0.0002128 0.0000
182  -1904.3373795626   0.000098083561 0.00006501  0.00000107  0.0002229 0.0000
183  -1904.3366944026   0.000685159939 0.00053642  0.00000724  0.0002261 0.0000
184  -1904.3385306685  -0.001836265889 0.00134128  0.00001774  0.0002589 0.0000
185  -1904.3397884553  -0.001257786787 0.00161392  0.00002281  0.0002045 0.0000
186  -1904.3408145841  -0.001026128778 0.00206179  0.00002955  0.0002232 0.0000
187  -1904.3400259225   0.000788661627 0.00110917  0.00001745  0.0002396 0.0000
188  -1904.3356602437   0.004365678738 0.00190245  0.00002448  0.0002373 0.0000
189  -1904.3320121797   0.003648064001 0.00317269  0.00004370  0.0003152 0.0000
190  -1904.3312336326   0.000778547157 0.00250043  0.00003672  0.0004303 0.0000
191  -1904.3329144565  -0.001680823981 0.00085749  0.00001532  0.0004329 0.0000
192  -1904.3351223891  -0.002207932582 0.00036373  0.00000494  0.0003493 0.0000
193  -1904.3361770333  -0.001054644175 0.00043268  0.00000559  0.0002593 0.0000
194  -1904.3363052398  -0.000128206449 0.00011186  0.00000163  0.0002305 0.0000
195  -1904.3365675230  -0.000262283235 0.00019088  0.00000270  0.0002396 0.0000
196  -1904.3366437535  -0.000076230496 0.00009067  0.00000141  0.0002340 0.0000
197  -1904.3366838776  -0.000040124113 0.00005571  0.00000090  0.0002378 0.0000
198  -1904.3367850219  -0.000101144323 0.00007186  0.00000106  0.0002401 0.0000
199  -1904.3367839917   0.000001030240 0.00001110  0.00000016  0.0002393 0.0000
200  -1904.3374971790  -0.000713187325 0.00046940  0.00000645  0.0002444 0.0000
201  -1904.3386819106  -0.001184731589 0.00107380  0.00001503  0.0002133 0.0000
202  -1904.3379147839   0.000767126676 0.00014359  0.00000313  0.0002130 0.0000
203  -1904.3273497206   0.010565063282 0.00768674  0.00010529  0.0002075 0.0000
204  -1904.3391357131  -0.011785992418 0.00497693  0.00006497  0.0007330 0.0000
205  -1904.3426437576  -0.003508044506 0.00299550  0.00004250  0.0002135 0.0000
206  -1904.3400184943   0.002625263241 0.00052305  0.00001104  0.0002520 0.0000
207  -1904.3393989712   0.000619523101 0.00106111  0.00001592  0.0002229 0.0000
208  -1904.3367681014   0.002630869773 0.00096464  0.00001220  0.0002228 0.0000
209  -1904.3366298437   0.000138257787 0.00011826  0.00000179  0.0002706 0.0000
210  -1904.3369809408  -0.000351097176 0.00016831  0.00000221  0.0002497 0.0000
211  -1904.3372046314  -0.000223690607 0.00029803  0.00000411  0.0002324 0.0000
212  -1904.3372697220  -0.000065090564 0.00032986  0.00000471  0.0002216 0.0000
213  -1904.3372293274   0.000040394577 0.00031792  0.00000465  0.0002174 0.0000
214  -1904.3359695327   0.001259794707 0.00052804  0.00000693  0.0002173 0.0000
215  -1904.3363428760  -0.000373343265 0.00020896  0.00000271  0.0002666 0.0000
216  -1904.3367607200  -0.000417844030 0.00030644  0.00000423  0.0002345 0.0000
217  -1904.3370564211  -0.000295701096 0.00040338  0.00000572  0.0002229 0.0000
218  -1904.3365594329   0.000496988231 0.00004352  0.00000083  0.0002143 0.0000
219  -1904.3349530880   0.001606344893 0.00097883  0.00001319  0.0002383 0.0000
220  -1904.3356380192  -0.000684931245 0.00008308  0.00000150  0.0002944 0.0000
221  -1904.3368310843  -0.001193065064 0.00057050  0.00000759  0.0002486 0.0000
222  -1904.3381276846  -0.001296600317 0.00097853  0.00001382  0.0002052 0.0000
223  -1904.3406849452  -0.002557260555 0.00229061  0.00003201  0.0002192 0.0000
224  -1904.3403173832   0.000367561968 0.00146907  0.00002191  0.0002431 0.0000
225  -1904.3390054591   0.001311924139 0.00079778  0.00001289  0.0002460 0.0000
226  -1904.3301782571   0.008827201959 0.00555758  0.00007417  0.0002401 0.0000
227  -1904.3288990339   0.001279223232 0.00377934  0.00005507  0.0005651 0.0000
228  -1904.3321211065  -0.003222072649 0.00144797  0.00002497  0.0005699 0.0000
229  -1904.3358717590  -0.003750652520 0.00023809  0.00000549  0.0004558 0.0000
230  -1904.3378679519  -0.001996192852 0.00056899  0.00000719  0.0003290 0.0000
231  -1904.3385899990  -0.000722047113 0.00061096  0.00000839  0.0002727 0.0000
232  -1904.3387344616  -0.000144462608 0.00058663  0.00000847  0.0002476 0.0000
233  -1904.3386740592   0.000060402368 0.00056481  0.00000835  0.0002357 0.0000
234  -1904.3382934132   0.000380646095 0.00036283  0.00000569  0.0002283 0.0000
235  -1904.3379148812   0.000378531916 0.00028563  0.00000448  0.0002359 0.0000
236  -1904.3379086104   0.000006270803 0.00050551  0.00000731  0.0002414 0.0000
237  -1904.3383837974  -0.000475186950 0.00098879  0.00001398  0.0002270 0.0000
238  -1904.3394132828  -0.001029485410 0.00170637  0.00002401  0.0002182 0.0000
239  -1904.3376499007   0.001763382094 0.00013965  0.00000306  0.0002334 0.0000
240  -1904.3376802449  -0.000030344183 0.00050888  0.00000749  0.0002272 0.0000
241  -1904.3382357935  -0.000555548665 0.00081910  0.00001169  0.0002199 0.0000
242  -1904.3380292105   0.000206583043 0.00044379  0.00000691  0.0002251 0.0000
243  -1904.3348829440   0.003146266520 0.00190627  0.00002531  0.0002227 0.0000
244  -1904.3355408348  -0.000657890769 0.00053069  0.00000831  0.0003522 0.0000
245  -1904.3361943352  -0.000653500472 0.00036245  0.00000578  0.0002968 0.0000
246  -1904.3363409450  -0.000146609741 0.00033607  0.00000519  0.0002765 0.0000
247  -1904.3364914219  -0.000150476956 0.00022096  0.00000355  0.0002698 0.0000
248  -1904.3368678743  -0.000376452382 0.00004173  0.00000079  0.0002610 0.0000
249  -1904.3374176604  -0.000549786104 0.00022649  0.00000299  0.0002456 0.0000
250  -1904.3374925553  -0.000074894870 0.00007603  0.00000121  0.0002272 0.0000
251  -1904.3374201719   0.000072383392 0.00002104  0.00000043  0.0002316 0.0000
252  -1904.3377235124  -0.000303340546 0.00026062  0.00000364  0.0002359 0.0000
253  -1904.3385794027  -0.000855890279 0.00081936  0.00001138  0.0002217 0.0000
254  -1904.3402791898  -0.001699787097 0.00193569  0.00002696  0.0002188 0.0000
255  -1904.3367946204   0.003484569373 0.00110137  0.00001378  0.0002408 0.0000
256  -1904.3363831856   0.000411434828 0.00022578  0.00000307  0.0002680 0.0000
257  -1904.3367237521  -0.000340566525 0.00001280  0.00000037  0.0002522 0.0000
258  -1904.3395701093  -0.002846357169 0.00211729  0.00002830  0.0002384 0.0000
259  -1904.3406177434  -0.001047634115 0.00194635  0.00002760  0.0002342 0.0000
260  -1904.3395409600   0.001076783376 0.00094415  0.00001481  0.0002496 0.0000
261  -1904.3319412247   0.007599735378 0.00427864  0.00005641  0.0002447 0.0000
262  -1904.3300349570   0.001906267671 0.00312342  0.00004464  0.0004877 0.0000
263  -1904.3313592124  -0.001324255400 0.00169949  0.00002669  0.0005014 0.0000
264  -1904.3336842988  -0.002325086456 0.00041059  0.00000847  0.0004382 0.0000
265  -1904.3359614910  -0.002277192151 0.00064464  0.00000807  0.0003468 0.0000
266  -1904.3371505820  -0.001189091048 0.00079352  0.00001077  0.0002602 0.0000
267  -1904.3372167510  -0.000066168929 0.00045220  0.00000672  0.0002235 0.0000
268  -1904.3373516602  -0.000134909217 0.00048045  0.00000709  0.0002311 0.0000
269  -1904.3380608878  -0.000709227558 0.00085651  0.00001217  0.0002269 0.0000
270  -1904.3394926925  -0.001431804722 0.00166857  0.00002335  0.0002210 0.0000
271  -1904.3369226068   0.002570085717 0.00063147  0.00000789  0.0002358 0.0000
272  -1904.3364315270   0.000491079797 0.00010173  0.00000132  0.0002663 0.0000
273  -1904.3367244788  -0.000292951863 0.00014070  0.00000187  0.0002612 0.0000
274  -1904.3377401302  -0.001015651349 0.00075950  0.00001029  0.0002477 0.0000
275  -1904.3380353340  -0.000295203848 0.00065339  0.00000935  0.0002205 0.0000
276  -1904.3392871781  -0.001251844081 0.00157810  0.00002190  0.0002243 0.0000
277  -1904.3390897766   0.000197401453 0.00099424  0.00001482  0.0002398 0.0000
278  -1904.3363400121   0.002749764557 0.00093998  0.00001185  0.0002403 0.0000
279  -1904.3362657926   0.000074219532 0.00018210  0.00000254  0.0002875 0.0000
280  -1904.3360270380   0.000238754538 0.00046766  0.00000642  0.0002648 0.0000
281  -1904.3354452093   0.000581828684 0.00079124  0.00001107  0.0002778 0.0000
282  -1904.3358696088  -0.000424399448 0.00029193  0.00000484  0.0003012 0.0000
283  -1904.3366348656  -0.000765256770 0.00011660  0.00000153  0.0002777 0.0000
284  -1904.3373042110  -0.000669345432 0.00038427  0.00000508  0.0002481 0.0000
285  -1904.3382168437  -0.000912632725 0.00085745  0.00001176  0.0002245 0.0000
286  -1904.3402740905  -0.002057246799 0.00209755  0.00002882  0.0002259 0.0000
287  -1904.3393585406   0.000915549892 0.00084743  0.00001350  0.0002506 0.0000
288  -1904.3373699592   0.001988581441 0.00022333  0.00000326  0.0002453 0.0000
289  -1904.3364788689   0.000891090277 0.00031127  0.00000391  0.0002403 0.0000
290  -1904.3365724568  -0.000093587932 0.00001153  0.00000028  0.0002652 0.0000
291  -1904.3369228507  -0.000350393889 0.00020210  0.00000267  0.0002556 0.0000
292  -1904.3374176903  -0.000494839624 0.00044043  0.00000601  0.0002428 0.0000
293  -1904.3328702211   0.004547469253 0.00292326  0.00003903  0.0002255 0.0000
294  -1904.3336645339  -0.000794312799 0.00091827  0.00001453  0.0004338 0.0000
295  -1904.3355723004  -0.001907766512 0.00015286  0.00000304  0.0003544 0.0000
296  -1904.3364500208  -0.000877720417 0.00011804  0.00000158  0.0002825 0.0000
297  -1904.3365947143  -0.000144693510 0.00001833  0.00000035  0.0002584 0.0000
298  -1904.3369456112  -0.000350896857 0.00024516  0.00000326  0.0002574 0.0000
299  -1904.3375264720  -0.000580860848 0.00054151  0.00000744  0.0002414 0.0000
300  -1904.3380622747  -0.000535802637 0.00074375  0.00001044  0.0002217 0.0000
301  -1904.3386440202  -0.000581745545 0.00098799  0.00001399  0.0002286 0.0000
302  -1904.3397129387  -0.001068918476 0.00150075  0.00002117  0.0002366 0.0000
303  -1904.3393681528   0.000344785901 0.00106047  0.00001578  0.0002499 0.0000
304  -1904.3384444668   0.000923685977 0.00051556  0.00000851  0.0002504 0.0000
305  -1904.3335394139   0.004905052901 0.00263304  0.00003457  0.0002440 0.0000
306  -1904.3332701904   0.000269223544 0.00128688  0.00001879  0.0004108 0.0000
307  -1904.3344561731  -0.001185982755 0.00052308  0.00000889  0.0003733 0.0000
308  -1904.3354708498  -0.001014676639 0.00016879  0.00000339  0.0003228 0.0000
309  -1904.3361858834  -0.000715033623 0.00008302  0.00000120  0.0002870 0.0000
310  -1904.3362605439  -0.000074660549 0.00006894  0.00000109  0.0002625 0.0000
311  -1904.3361804600   0.000080083888 0.00012482  0.00000179  0.0002646 0.0000
312  -1904.3364585522  -0.000278092145 0.00007719  0.00000096  0.0002682 0.0000
313  -1904.3367180083  -0.000259456069 0.00014974  0.00000202  0.0002558 0.0000
314  -1904.3370895298  -0.000371521494 0.00032254  0.00000445  0.0002484 0.0000
315  -1904.3376504046  -0.000560874864 0.00058109  0.00000809  0.0002348 0.0000
316  -1904.3380914798  -0.000441075150 0.00070091  0.00000996  0.0002290 0.0000
317  -1904.3384304165  -0.000338936775 0.00079870  0.00001147  0.0002340 0.0000
318  -1904.3391785615  -0.000748144986 0.00120968  0.00001707  0.0002386 0.0000
319  -1904.3381198383   0.001058723260 0.00026662  0.00000528  0.0002481 0.0000
320  -1904.3371559181   0.000963920148 0.00006916  0.00000140  0.0002393 0.0000
321  -1904.3319205776   0.005235340562 0.00338767  0.00004543  0.0002441 0.0000
322  -1904.3331562525  -0.001235674907 0.00104935  0.00001679  0.0004762 0.0000
323  -1904.3353198766  -0.002163624147 0.00024156  0.00000470  0.0003774 0.0000
324  -1904.3366504032  -0.001330526596 0.00021350  0.00000268  0.0003035 0.0000
325  -1904.3372011702  -0.000550767010 0.00028295  0.00000368  0.0002625 0.0000
326  -1904.3372219942  -0.000020823941 0.00020787  0.00000293  0.0002453 0.0000
327  -1904.3371273049   0.000094689246 0.00018372  0.00000268  0.0002442 0.0000
328  -1904.3372247368  -0.000097431839 0.00029897  0.00000424  0.0002445 0.0000
329  -1904.3373021872  -0.000077450449 0.00033312  0.00000479  0.0002363 0.0000
330  -1904.3374185650  -0.000116377788 0.00039986  0.00000575  0.0002319 0.0000
331  -1904.3376239542  -0.000205389218 0.00049748  0.00000713  0.0002292 0.0000
332  -1904.3377402998  -0.000116345628 0.00049669  0.00000723  0.0002321 0.0000
333  -1904.3377496619  -0.000009362102 0.00044789  0.00000663  0.0002340 0.0000
334  -1904.3378200000  -0.000070338011 0.00044343  0.00000655  0.0002347 0.0000
335  -1904.3373859069   0.000434093052 0.00011896  0.00000235  0.0002357 0.0000
336  -1904.3374805531  -0.000094646183 0.00031720  0.00000457  0.0002368 0.0000
337  -1904.3400261780  -0.002545624889 0.00183077  0.00002487  0.0002329 0.0000
338  -1904.3412949791  -0.001268801167 0.00221782  0.00003116  0.0002584 0.0000
339  -1904.3402300962   0.001064882905 0.00112129  0.00001730  0.0002821 0.0000
340  -1904.3378141063   0.002415989897 0.00040916  0.00000524  0.0002722 0.0000
341  -1904.3330402990   0.004773807344 0.00270935  0.00003589  0.0002549 0.0000
342  -1904.3281442231   0.004896075929 0.00466836  0.00006448  0.0004364 0.0000
343  -1904.3287854634  -0.000641240366 0.00302546  0.00004520  0.0006268 0.0000
344  -1904.3328873496  -0.004101886158 0.00067282  0.00001406  0.0005872 0.0000
345  -1904.3371434849  -0.004256135340 0.00104989  0.00001307  0.0004315 0.0000
346  -1904.3393610921  -0.002217607156 0.00141255  0.00001904  0.0002761 0.0000
347  -1904.3395588715  -0.000197779394 0.00108808  0.00001566  0.0002350 0.0000
348  -1904.3393198924   0.000238979043 0.00100506  0.00001473  0.0002424 0.0000
349  -1904.3390021653   0.000317727129 0.00091483  0.00001353  0.0002460 0.0000
350  -1904.3386487046   0.000353460720 0.00081005  0.00001204  0.0002476 0.0000
351  -1904.3382266849   0.000422019689 0.00065683  0.00000989  0.0002479 0.0000
352  -1904.3380285027   0.000198182150 0.00067953  0.00000999  0.0002469 0.0000
353  -1904.3378706268   0.000157875989 0.00061226  0.00000900  0.0002477 0.0000
354  -1904.3380166228  -0.000145996057 0.00079315  0.00001134  0.0002476 0.0000
355  -1904.3324874931   0.005529129701 0.00280821  0.00003710  0.0002510 0.0000
356  -1904.3380438951  -0.005556402010 0.00233998  0.00003033  0.0004611 0.0000
357  -1904.3386687854  -0.000624890305 0.00084785  0.00001246  0.0002519 0.0000
358  -1904.3378007364   0.000868049064 0.00041827  0.00000681  0.0002534 0.0000
359  -1904.3337959061   0.004004830296 0.00192434  0.00002514  0.0002490 0.0000
360  -1904.3338681567  -0.000072250651 0.00070194  0.00001041  0.0003919 0.0000
361  -1904.3342680688  -0.000399912056 0.00054281  0.00000817  0.0003407 0.0000
362  -1904.3347120115  -0.000443942685 0.00029452  0.00000478  0.0003206 0.0000
363  -1904.3358613441  -0.001149332627 0.00025073  0.00000311  0.0003002 0.0000
364  -1904.3372135401  -0.001352196042 0.00068224  0.00000918  0.0002576 0.0000
365  -1904.3379092803  -0.000695740210 0.00066378  0.00000945  0.0002401 0.0000
366  -1904.3380047257  -0.000095445385 0.00050552  0.00000760  0.0002447 0.0000
367  -1904.3377816329   0.000223092850 0.00033564  0.00000535  0.0002445 0.0000
368  -1904.3375653764   0.000216256494 0.00026524  0.00000425  0.0002417 0.0000
369  -1904.3373550309   0.000210345461 0.00018998  0.00000315  0.0002392 0.0000
370  -1904.3371867486   0.000168282277 0.00014761  0.00000248  0.0002378 0.0000
371  -1904.3366781802   0.000508568454 0.00009323  0.00000112  0.0002416 0.0000
372  -1904.3377075811  -0.001029400883 0.00078319  0.00001047  0.0002577 0.0000
373  -1904.3416496890  -0.003942107969 0.00295066  0.00004009  0.0002427 0.0000
374  -1904.3397121262   0.001937562875 0.00066777  0.00001139  0.0002957 0.0000
375  -1904.3360346093   0.003677516850 0.00111184  0.00001390  0.0002658 0.0000
376  -1904.3347238759   0.001310733439 0.00100216  0.00001357  0.0003203 0.0000
377  -1904.3342760348   0.000447841049 0.00108600  0.00001532  0.0003466 0.0000
378  -1904.3346790342  -0.000402999359 0.00075788  0.00001135  0.0003640 0.0000
379  -1904.3358726995  -0.001193665358 0.00016122  0.00000312  0.0003477 0.0000
380  -1904.3374415627  -0.001568863170 0.00059721  0.00000762  0.0002997 0.0000
381  -1904.3384149022  -0.000973339466 0.00083346  0.00001134  0.0002370 0.0000
382  -1904.3385532757  -0.000138373484 0.00070807  0.00001014  0.0002446 0.0000
383  -1904.3383299114   0.000223364239 0.00056104  0.00000830  0.0002486 0.0000
384  -1904.3380940421   0.000235869298 0.00048161  0.00000717  0.0002488 0.0000
385  -1904.3378946758   0.000199366337 0.00042665  0.00000633  0.0002481 0.0000
386  -1904.3377373316   0.000157344178 0.00039937  0.00000587  0.0002472 0.0000
387  -1904.3344717485   0.003265583089 0.00160131  0.00002087  0.0002467 0.0000
388  -1904.3362110775  -0.001739328977 0.00050015  0.00000625  0.0003789 0.0000
389  -1904.3395172904  -0.003306212921 0.00201479  0.00002668  0.0002605 0.0000
390  -1904.3399046547  -0.000387364274 0.00127003  0.00001827  0.0002678 0.0000
391  -1904.3391312721   0.000773382567 0.00083806  0.00001261  0.0002732 0.0000
392  -1904.3342533177   0.004877954424 0.00193867  0.00002476  0.0002700 0.0000
393  -1904.3331879462   0.001065371503 0.00119972  0.00001670  0.0003909 0.0000
394  -1904.3335998363  -0.000411890126 0.00072937  0.00001096  0.0003837 0.0000
395  -1904.3344003891  -0.000800552726 0.00029518  0.00000519  0.0003547 0.0000
396  -1904.3356644509  -0.001264061878 0.00027408  0.00000334  0.0003184 0.0000
397  -1904.3371965068  -0.001532055865 0.00082046  0.00001085  0.0002684 0.0000
398  -1904.3379566239  -0.000760117143 0.00080696  0.00001124  0.0002495 0.0000
399  -1904.3380793001  -0.000122676156 0.00065429  0.00000949  0.0002567 0.0000
400  -1904.3380213249   0.000057975188 0.00056428  0.00000830  0.0002583 0.0000
401  -1904.3378482298   0.000173095127 0.00044890  0.00000671  0.0002582 0.0000
402  -1904.3375474108   0.000300819013 0.00029002  0.00000451  0.0002567 0.0000
403  -1904.3368286059   0.000718804891 0.00006742  0.00000102  0.0002537 0.0000
404  -1904.3366569037   0.000171702208 0.00001848  0.00000031  0.0002737 0.0000
405  -1904.3378810659  -0.001224162222 0.00077822  0.00001028  0.0002767 0.0000
406  -1904.3367211001   0.001159965766 0.00038409  0.00000470  0.0002560 0.0000
407  -1904.3364964201   0.000224680064 0.00014957  0.00000193  0.0002907 0.0000
408  -1904.3369378043  -0.000441384206 0.00016048  0.00000203  0.0002868 0.0000
409  -1904.3369965838  -0.000058779536 0.00001999  0.00000037  0.0002659 0.0000
410  -1904.3365516879   0.000444895902 0.00033355  0.00000436  0.0002697 0.0000
411  -1904.3362127874   0.000338900477 0.00050918  0.00000696  0.0002936 0.0000
412  -1904.3371292705  -0.000916483121 0.00012410  0.00000158  0.0003115 0.0000
413  -1904.3387973716  -0.001668101062 0.00095837  0.00001260  0.0002717 0.0000
414  -1904.3395677903  -0.000770418688 0.00112100  0.00001547  0.0002591 0.0000
415  -1904.3409812495  -0.001413459216 0.00200921  0.00002756  0.0002720 0.0000
416  -1904.3406141157   0.000367133832 0.00139697  0.00002036  0.0002919 0.0000
417  -1904.3397889263   0.000825189378 0.00103008  0.00001549  0.0002940 0.0000
418  -1904.3339242326   0.005864693702 0.00223326  0.00002834  0.0002909 0.0000
419  -1904.3303568854   0.003567347183 0.00260886  0.00003534  0.0004270 0.0000
420  -1904.3304116088  -0.000054723351 0.00168686  0.00002467  0.0005173 0.0000
421  -1904.3326459047  -0.002234295963 0.00039887  0.00000810  0.0004797 0.0000
422  -1904.3342687509  -0.001622846186 0.00013538  0.00000240  0.0003761 0.0000
423  -1904.3350108947  -0.000742143781 0.00005874  0.00000098  0.0003222 0.0000
424  -1904.3353052532  -0.000294358506 0.00003018  0.00000041  0.0003022 0.0000
425  -1904.3354630851  -0.000157831938 0.00001664  0.00000021  0.0002973 0.0000
426  -1904.3355281967  -0.000065111553 0.00001639  0.00000024  0.0002958 0.0000
427  -1904.3356481354  -0.000119938716 0.00000719  0.00000010  0.0002978 0.0000
428  -1904.3363297943  -0.000681658903 0.00031666  0.00000418  0.0002965 0.0000
429  -1904.3381899737  -0.001860179389 0.00112862  0.00001514  0.0002715 0.0000
430  -1904.3389942952  -0.000804321505 0.00106329  0.00001493  0.0002670 0.0000
431  -1904.3388775999   0.000116695259 0.00084699  0.00001234  0.0002744 0.0000
432  -1904.3376763284   0.001201271551 0.00020031  0.00000404  0.0002751 0.0000
433  -1904.3301548590   0.007521469414 0.00401790  0.00005281  0.0002652 0.0000
434  -1904.3393906606  -0.009235801569 0.00343651  0.00004380  0.0005957 0.0000
435  -1904.3398005009  -0.000409840341 0.00094228  0.00001410  0.0002788 0.0000
436  -1904.3406272930  -0.000826792093 0.00184394  0.00002551  0.0002786 0.0000
437  -1904.3391142777   0.001513015295 0.00055726  0.00000963  0.0002947 0.0000
438  -1904.3340932564   0.005021021261 0.00191093  0.00002432  0.0002822 0.0000
439  -1904.3337329567   0.000360299743 0.00084171  0.00001200  0.0004123 0.0000
440  -1904.3347197697  -0.000986812964 0.00032576  0.00000549  0.0003784 0.0000
441  -1904.3357128922  -0.000993122503 0.00005892  0.00000125  0.0003379 0.0000
442  -1904.3363802415  -0.000667349386 0.00021418  0.00000267  0.0003009 0.0000
443  -1904.3366962450  -0.000316003476 0.00025818  0.00000346  0.0002778 0.0000
444  -1904.3369298935  -0.000233648445 0.00033041  0.00000457  0.0002679 0.0000
445  -1904.3376291253  -0.000699231864 0.00067249  0.00000920  0.0002591 0.0000
446  -1904.3381902571  -0.000561131794 0.00080027  0.00001118  0.0002667 0.0000
447  -1904.3380383054   0.000151951745 0.00057813  0.00000850  0.0002729 0.0000
448  -1904.3373578176   0.000680487758 0.00024093  0.00000410  0.0002725 0.0000
449  -1904.3334901865   0.003867631081 0.00177498  0.00002308  0.0002668 0.0000
450  -1904.3361927066  -0.002702520045 0.00076563  0.00000946  0.0004214 0.0000
451  -1904.3387613607  -0.002568654105 0.00128770  0.00001710  0.0002591 0.0000
452  -1904.3405331378  -0.001771777153 0.00182111  0.00002504  0.0002765 0.0000
453  -1904.3401720348   0.000361103002 0.00119226  0.00001743  0.0002984 0.0000
454  -1904.3390750846   0.001096950264 0.00064339  0.00001023  0.0002965 0.0000
455  -1904.3300807254   0.008994359146 0.00418165  0.00005429  0.0002884 0.0000
456  -1904.3276779325   0.002402792896 0.00335820  0.00004689  0.0006090 0.0000
457  -1904.3306325578  -0.002954625296 0.00135656  0.00002207  0.0006449 0.0000
458  -1904.3350640124  -0.004431454566 0.00038415  0.00000560  0.0005130 0.0000
459  -1904.3381460396  -0.003082027198 0.00110180  0.00001407  0.0003447 0.0000
460  -1904.3390604338  -0.000914394170 0.00099296  0.00001362  0.0002578 0.0000
461  -1904.3393429013  -0.000282467510 0.00104376  0.00001470  0.0002702 0.0000
462  -1904.3392951581   0.000047743159 0.00098500  0.00001415  0.0002779 0.0000
463  -1904.3387778169   0.000517341248 0.00073243  0.00001090  0.0002814 0.0000
464  -1904.3381541142   0.000623702648 0.00052612  0.00000803  0.0002795 0.0000
465  -1904.3373823975   0.000771716743 0.00024722  0.00000421  0.0002757 0.0000
466  -1904.3373474219   0.000034975607 0.00043748  0.00000625  0.0002695 0.0000
467  -1904.3379024657  -0.000555043883 0.00073685  0.00001019  0.0002703 0.0000
468  -1904.3388839480  -0.000981482239 0.00115515  0.00001589  0.0002762 0.0000
469  -1904.3381369915   0.000746956476 0.00049724  0.00000781  0.0002872 0.0000
470  -1904.3338993429   0.004237648637 0.00159858  0.00002047  0.0002813 0.0000
471  -1904.3339371816  -0.000037838718 0.00050920  0.00000758  0.0004148 0.0000
472  -1904.3347899688  -0.000852787198 0.00020323  0.00000351  0.0003664 0.0000
473  -1904.3350473451  -0.000257376339 0.00023539  0.00000349  0.0003342 0.0000
474  -1904.3347269764   0.000320368772 0.00039702  0.00000550  0.0003249 0.0000
475  -1904.3352893096  -0.000562333226 0.00004383  0.00000086  0.0003325 0.0000
476  -1904.3367438414  -0.001454531812 0.00064863  0.00000845  0.0002990 0.0000
477  -1904.3384242496  -0.001680408235 0.00114204  0.00001544  0.0002691 0.0000
478  -1904.3393003261  -0.000876076502 0.00115543  0.00001622  0.0002841 0.0000
479  -1904.3392009230   0.000099403111 0.00088820  0.00001302  0.0002919 0.0000
480  -1904.3407408052  -0.001539882142 0.00182780  0.00002516  0.0002915 0.0000
481  -1904.3397297857   0.001011019461 0.00084523  0.00001315  0.0003087 0.0000
482  -1904.3364837698   0.003246015891 0.00063169  0.00000763  0.0002999 0.0000
483  -1904.3354333974   0.001050372373 0.00047021  0.00000609  0.0003216 0.0000
484  -1904.3356624782  -0.000229080773 0.00020499  0.00000301  0.0003401 0.0000
485  -1904.3356594500   0.000003028173 0.00029220  0.00000413  0.0003259 0.0000
486  -1904.3356911417  -0.000031691676 0.00027379  0.00000398  0.0003321 0.0000
487  -1904.3357186735  -0.000027531829 0.00030195  0.00000434  0.0003329 0.0000
488  -1904.3358733385  -0.000154664995 0.00024738  0.00000365  0.0003352 0.0000
489  -1904.3362283158  -0.000354977221 0.00011071  0.00000186  0.0003308 0.0000
490  -1904.3366414976  -0.000413181795 0.00002469  0.00000044  0.0003181 0.0000
491  -1904.3373094715  -0.000667973896 0.00031860  0.00000413  0.0003036 0.0000
492  -1904.3384818795  -0.001172408078 0.00085705  0.00001145  0.0002754 0.0000
493  -1904.3397328325  -0.001250952947 0.00131435  0.00001792  0.0002784 0.0000
494  -1904.3399774431  -0.000244610662 0.00118461  0.00001677  0.0002937 0.0000
495  -1904.3400704671  -0.000093024006 0.00126179  0.00001801  0.0002997 0.0000
496  -1904.3414048895  -0.001334422314 0.00189049  0.00002626  0.0003067 0.0000
497  -1904.3406072008   0.000797688703 0.00116311  0.00001749  0.0003223 0.0000
498  -1904.3386949905   0.001912210271 0.00043393  0.00000782  0.0003175 0.0000
499  -1904.3245190208   0.014175969678 0.00640402  0.00008358  0.0003024 0.0000
500  -1904.3262561345  -0.001737113695 0.00206501  0.00003180  0.0008644 0.0000
501  -1904.3304942221  -0.004238087619 0.00063751  0.00001265  0.0006236 0.0000
502  -1904.3333223153  -0.002828093200 0.00019939  0.00000354  0.0004658 0.0000
503  -1904.3344626705  -0.001140355207 0.00007074  0.00000135  0.0003687 0.0000
504  -1904.3346082902  -0.000145619628 0.00011776  0.00000188  0.0003406 0.0000
505  -1904.3349349960  -0.000326705865 0.00002533  0.00000042  0.0003459 0.0000
506  -1904.3356124472  -0.000677451132 0.00023522  0.00000303  0.0003346 0.0000
507  -1904.3365886792  -0.000976232038 0.00053705  0.00000720  0.0003099 0.0000
508  -1904.3379548004  -0.001366121228 0.00096145  0.00001309  0.0002797 0.0000
509  -1904.3389418493  -0.000987048873 0.00109175  0.00001525  0.0002907 0.0000
510  -1904.3382917750   0.000650074242 0.00049062  0.00000779  0.0002982 0.0000
511  -1904.3381808796   0.000110895437 0.00061782  0.00000904  0.0002910 0.0000
512  -1904.3382633998  -0.000082520232 0.00066294  0.00000956  0.0002906 0.0000
513  -1904.3370823972   0.001181002682 0.00011581  0.00000206  0.0002910 0.0000
514  -1904.3385418740  -0.001459476837 0.00115407  0.00001555  0.0002813 0.0000
515  -1904.3430807257  -0.004538851667 0.00311163  0.00004181  0.0002961 0.0000
516  -1904.3395142895   0.003566436214 0.00037461  0.00000685  0.0003651 0.0000
517  -1904.3357940661   0.003720223344 0.00077918  0.00000945  0.0003061 0.0000
518  -1904.3345240928   0.001269973342 0.00067172  0.00000885  0.0003495 0.0000
519  -1904.3340166328   0.000507459957 0.00073737  0.00001019  0.0003720 0.0000
520  -1904.3339989011   0.000017731738 0.00065047  0.00000933  0.0003881 0.0000
521  -1904.3343694539  -0.000370552874 0.00047374  0.00000709  0.0003859 0.0000
522  -1904.3350243199  -0.000654865980 0.00022265  0.00000375  0.0003704 0.0000
523  -1904.3359808466  -0.000956526679 0.00013387  0.00000162  0.0003447 0.0000
524  -1904.3374250904  -0.001444243795 0.00068004  0.00000888  0.0003065 0.0000
525  -1904.3387538524  -0.001328762026 0.00104518  0.00001418  0.0002812 0.0000
526  -1904.3385641108   0.000189741645 0.00066261  0.00000971  0.0002948 0.0000
527  -1904.3383025247   0.000261586101 0.00060804  0.00000891  0.0002944 0.0000
528  -1904.3381865762   0.000115948480 0.00059121  0.00000859  0.0002937 0.0000
529  -1904.3385504509  -0.000363874715 0.00078411  0.00001110  0.0002933 0.0000
530  -1904.3397463082  -0.001195857278 0.00130363  0.00001801  0.0002975 0.0000
531  -1904.3422321604  -0.002485852232 0.00226906  0.00003109  0.0003096 0.0000
532  -1904.3397440234   0.002488137055 0.00048053  0.00000933  0.0003432 0.0000
533  -1904.3387456092   0.000998414156 0.00061870  0.00000946  0.0003105 0.0000
534  -1904.3308899548   0.007855654456 0.00316355  0.00004083  0.0003036 0.0000
535  -1904.3296688057   0.001221149077 0.00199963  0.00002811  0.0005857 0.0000
536  -1904.3314127162  -0.001743910505 0.00107185  0.00001659  0.0005575 0.0000
537  -1904.3337044736  -0.002291757404 0.00032995  0.00000625  0.0004775 0.0000
538  -1904.3356977172  -0.001993243656 0.00023848  0.00000292  0.0003892 0.0000
539  -1904.3371674917  -0.001469774434 0.00057483  0.00000739  0.0003172 0.0000
540  -1904.3384625102  -0.001295018512 0.00092939  0.00001253  0.0002783 0.0000
541  -1904.3393894259  -0.000926915698 0.00111964  0.00001551  0.0002921 0.0000
542  -1904.3389041321   0.000485293750 0.00069391  0.00001036  0.0003024 0.0000
543  -1904.3383719187   0.000532213443 0.00056208  0.00000845  0.0002995 0.0000
544  -1904.3379590669   0.000412851817 0.00045214  0.00000683  0.0002962 0.0000
545  -1904.3378988800   0.000060186866 0.00050269  0.00000730  0.0002927 0.0000
546  -1904.3381518867  -0.000253006704 0.00062901  0.00000891  0.0002922 0.0000
547  -1904.3390472806  -0.000895393893 0.00100554  0.00001389  0.0002946 0.0000
548  -1904.3414817843  -0.002434503727 0.00197356  0.00002694  0.0003032 0.0000
549  -1904.3402504363   0.001231348078 0.00085982  0.00001349  0.0003270 0.0000
550  -1904.3415792915  -0.001328855254 0.00183098  0.00002528  0.0003155 0.0000
551  -1904.3402352399   0.001344051633 0.00080837  0.00001289  0.0003300 0.0000
552  -1904.3379168005   0.002318439381 0.00020583  0.00000351  0.0003177 0.0000
553  -1904.3135398821   0.024376918439 0.01100318  0.00014495  0.0002983 0.0000
554  -1904.3222596780  -0.008719795895 0.00165094  0.00003233  0.0014132 0.0000
555  -1904.3329598161  -0.010700138178 0.00093880  0.00001220  0.0007537 0.0000
556  -1904.3389388809  -0.005979064799 0.00188239  0.00002398  0.0003813 0.0000
557  -1904.3416029060  -0.002664025090 0.00203432  0.00002767  0.0002930 0.0000
558  -1904.3415299410   0.000072965006 0.00150182  0.00002169  0.0003205 0.0000
559  -1904.3406054172   0.000924523835 0.00111226  0.00001664  0.0003236 0.0000
560  -1904.3398339696   0.000771447604 0.00092140  0.00001383  0.0003182 0.0000
561  -1904.3393752284   0.000458741197 0.00084363  0.00001251  0.0003123 0.0000
562  -1904.3391218435   0.000253384920 0.00080686  0.00001183  0.0003083 0.0000
563  -1904.3387864322   0.000335411242 0.00069416  0.00001026  0.0003060 0.0000
564  -1904.3380273609   0.000759071299 0.00040547  0.00000640  0.0003029 0.0000
565  -1904.3378398912   0.000187469730 0.00047656  0.00000699  0.0002960 0.0000
566  -1904.3367689232   0.001070967963 0.00007041  0.00000127  0.0002946 0.0000
567  -1904.3362687644   0.000500158787 0.00002539  0.00000047  0.0003035 0.0000
568  -1904.3384282490  -0.002159484523 0.00106265  0.00001406  0.0003158 0.0000
569  -1904.3440804869  -0.005652237979 0.00322411  0.00004305  0.0002993 0.0000
570  -1904.3400114010   0.004069085941 0.00038959  0.00000703  0.0003787 0.0000
571  -1904.3281538799   0.011857521107 0.00430670  0.00005553  0.0003154 0.0000
572  -1904.3295753111  -0.001421431203 0.00124449  0.00001925  0.0007126 0.0000
573  -1904.3339930597  -0.004417748619 0.00021454  0.00000405  0.0005177 0.0000
574  -1904.3379159279  -0.003922868152 0.00119575  0.00001527  0.0003456 0.0000
575  -1904.3392032132  -0.001287285351 0.00099900  0.00001383  0.0002910 0.0000
576  -1904.3381930380   0.001010175208 0.00029023  0.00000523  0.0003029 0.0000
577  -1904.3374107966   0.000782241382 0.00015074  0.00000281  0.0002939 0.0000
578  -1904.3372351746   0.000175622001 0.00017627  0.00000288  0.0002866 0.0000
579  -1904.3371344864   0.000100688249 0.00014284  0.00000236  0.0002835 0.0000
580  -1904.3368188873   0.000315599041 0.00004851  0.00000080  0.0002810 0.0000
581  -1904.3365949558   0.000223931576 0.00003085  0.00000047  0.0002926 0.0000
582  -1904.3362633099   0.000331645815 0.00014742  0.00000180  0.0002988 0.0000
583  -1904.3359096970   0.000353612946 0.00024113  0.00000312  0.0003115 0.0000
584  -1904.3359112977  -0.000001600748 0.00017475  0.00000235  0.0003234 0.0000
585  -1904.3371329544  -0.001221656704 0.00036135  0.00000464  0.0003184 0.0000
586  -1904.3415480113  -0.004415056866 0.00225469  0.00002963  0.0002738 0.0000
587  -1904.3432342286  -0.001686217242 0.00209339  0.00002937  0.0003160 0.0000
588  -1904.3435451060  -0.000310877439 0.00198444  0.00002832  0.0003449 0.0000
589  -1904.3441815555  -0.000636449504 0.00223387  0.00003176  0.0003463 0.0000
590  -1904.3429490086   0.001232546937 0.00146303  0.00002216  0.0003621 0.0000
591  -1904.3493941624  -0.006445153851 0.00464789  0.00006311  0.0003294 0.0000
592  -1904.3331917455   0.016202416939 0.00394385  0.00004891  0.0004848 0.0000
593  -1904.3353423136  -0.002150568171 0.00048755  0.00000645  0.0005899 0.0000
594  -1904.3427411807  -0.007398867017 0.00278021  0.00003661  0.0002875 0.0000
595  -1904.3443589341  -0.001617753442 0.00216931  0.00003062  0.0003272 0.0000
596  -1904.3595507825  -0.015191848387 0.00858336  0.00011508  0.0003511 0.0000
597  -1904.3345069959   0.025043786557 0.00523480  0.00006455  0.0007050 0.0000
598  -1904.3258952126   0.008611783294 0.00357639  0.00004779  0.0006920 0.0000
599  -1904.3269202721  -0.001025059459 0.00227430  0.00003303  0.0007768 0.0000
600  -1904.3294876413  -0.002567369229 0.00143115  0.00002209  0.0006786 0.0000
601  -1904.3314090400  -0.001921398651 0.00105100  0.00001639  0.0005716 0.0000
602  -1904.3312648895   0.000144150493 0.00143230  0.00002071  0.0005034 0.0000
603  -1904.3338230664  -0.002558176941 0.00033010  0.00000591  0.0005292 0.0000
604  -1904.3363473724  -0.002524305982 0.00031503  0.00000379  0.0004013 0.0000
605  -1904.3386850735  -0.002337701109 0.00089156  0.00001173  0.0003084 0.0000
606  -1904.3402552555  -0.001570181992 0.00114249  0.00001580  0.0002814 0.0000
607  -1904.3392845193   0.000970736259 0.00045872  0.00000746  0.0002961 0.0000
608  -1904.3374868712   0.001797648099 0.00008607  0.00000163  0.0002875 0.0000
609  -1904.3369243563   0.000562514871 0.00003690  0.00000057  0.0002868 0.0000
610  -1904.3377684881  -0.000844131784 0.00044754  0.00000611  0.0002959 0.0000
611  -1904.3374934366   0.000275051440 0.00014982  0.00000256  0.0002739 0.0000
612  -1904.3347159821   0.002777454507 0.00101418  0.00001307  0.0002700 0.0000
613  -1904.3347674241  -0.000051441968 0.00033588  0.00000526  0.0004014 0.0000
614  -1904.3369046238  -0.002137199666 0.00046477  0.00000567  0.0003606 0.0000
615  -1904.3443119832  -0.007407359482 0.00297075  0.00003955  0.0002636 0.0000
616  -1904.3420229181   0.002289065158 0.00077100  0.00001318  0.0003499 0.0000
617  -1904.3437937246  -0.001770806473 0.00215208  0.00002988  0.0003012 0.0000
618  -1904.3437552318   0.000038492776 0.00159774  0.00002364  0.0003418 0.0000
619  -1904.3457651589  -0.002009927175 0.00247766  0.00003502  0.0003336 0.0000
620  -1904.3440520436   0.001713115343 0.00131719  0.00002088  0.0003788 0.0000
621  -1904.3564140308  -0.012361987208 0.00659379  0.00008973  0.0003325 0.0000
622  -1904.3341954223   0.022218608485 0.00477915  0.00005939  0.0006135 0.0000
623  -1904.3364059252  -0.002210502892 0.00080948  0.00001076  0.0006350 0.0000
624  -1904.3571960900  -0.020790164779 0.00779202  0.00010416  0.0002449 0.0000
625  -1904.3577361778  -0.000540087751 0.00406799  0.00006155  0.0006697 0.0000
626  -1904.3533723337   0.004363844077 0.00283176  0.00004512  0.0005726 0.0000
627  -1904.3608680333  -0.007495699668 0.00618181  0.00008866  0.0004821 0.0000
628  -1904.3483081417   0.012559891597 0.00081496  0.00001484  0.0006889 0.0000
629  -1904.3711560807  -0.022847938950 0.01064551  0.00014802  0.0003372 0.0000
630  -1904.3517821601   0.019373920614 0.00110153  0.00002059  0.0012650 0.0000
631  -1904.3476691142   0.004113045833 0.00140518  0.00002615  0.0003515 0.0000
632  -1904.3831193160  -0.035450201764 0.01243784  0.00018065  0.0003118 0.0000
633  -1904.3744226117   0.008696704293 0.00377707  0.00006972  0.0019110 0.0000
634  -1904.3575237068   0.016898904949 0.00129930  0.00002183  0.0009549 0.0000
635  -1904.3423420374   0.015181669390 0.00246460  0.00002888  0.0003141 0.0000
636  -1904.3298337681   0.012508269293 0.00446431  0.00005795  0.0001703 0.0000
637  -1904.3320027259  -0.002168957816 0.00148871  0.00002404  0.0004742 0.0000
638  -1904.3327489976  -0.000746271740 0.00172221  0.00002725  0.0002343 0.0000
639  -1904.3342669665  -0.001517968844 0.00115626  0.00001949  0.0002674 0.0000
640  -1904.3362843317  -0.002017365247 0.00066399  0.00001253  0.0001929 0.0000
641  -1904.3371715434  -0.000887211683 0.00063408  0.00001138  0.0001230 0.0000
642  -1904.3353566644   0.001814879062 0.00125589  0.00002004  0.0001144 0.0000
643  -1904.3366115646  -0.001254900243 0.00055358  0.00001053  0.0002279 0.0000
644  -1904.3377312812  -0.001119716649 0.00044961  0.00000812  0.0001460 0.0000
645  -1904.3377466381  -0.000015356837 0.00058711  0.00000957  0.0001090 0.0000
646  -1904.3384963815  -0.000749743418 0.00033155  0.00000588  0.0001231 0.0000
647  -1904.3394703518  -0.000973970258 0.00015713  0.00000292  0.0000854 0.0000
648  -1904.3399735023  -0.000503150500 0.00012323  0.00000220  0.0000464 0.0000
649  -1904.3401309526  -0.000157450355 0.00012868  0.00000211  0.0000325 0.0000
650  -1904.3402841626  -0.000153209939 0.00009576  0.00000162  0.0000300 0.0000
651  -1904.3404495043  -0.000165341751 0.00006222  0.00000110  0.0000252 0.0000
652  -1904.3406616954  -0.000212191125 0.00002335  0.00000039  0.0000192 0.0000
653  -1904.3409022041  -0.000240508625 0.00003119  0.00000044  0.0000098 0.0000
654  -1904.3411852525  -0.000283048415 0.00008527  0.00000125  0.0000036 0.0000
655  -1904.3411805217   0.000004730723 0.00004525  0.00000074  0.0000118 0.0000
656  -1904.3411608559   0.000019665840 0.00004688  0.00000074  0.0000085 0.0000
657  -1904.3412150723  -0.000054216439 0.00006689  0.00000101  0.0000080 0.0000
658  -1904.3411942755   0.000020796836 0.00004859  0.00000078  0.0000112 0.0000
659  -1904.3410921465   0.000102128975 0.00001991  0.00000038  0.0000096 0.0000
660  -1904.3410155368   0.000076609721 0.00001104  0.00000021  0.0000050 0.0000
661  -1904.3410183518  -0.000002815016 0.00001897  0.00000031  0.0000031 0.0000
662  -1904.3410162101   0.000002141766 0.00001505  0.00000027  0.0000037 0.0000
663  -1904.3409479157   0.000068294325 0.00000656  0.00000009  0.0000036 0.0000
664  -1904.3408823102   0.000065605567 0.00001563  0.00000021  0.0000009 0.0000
665  -1904.3408960751  -0.000013764962 0.00000256  0.00000005  0.0000020 0.0000
666  -1904.3409274060  -0.000031330886 0.00000449  0.00000007  0.0000007 0.0000
667  -1904.3409244391   0.000002966879 0.00000039  0.00000001  0.0000006 0.0000
668  -1904.3409077149   0.000016724265 0.00000430  0.00000006  0.0000002 0.0000
669  -1904.3409127845  -0.000005069607 0.00000042  0.00000001  0.0000006 0.0000
670  -1904.3409174740  -0.000004689478 0.00000015  0.00000000  0.0000002 0.0000
671  -1904.3409201034  -0.000002629459 0.00000045  0.00000001  0.0000001 0.0000
672  -1904.3409214609  -0.000001357473 0.00000057  0.00000001  0.0000000 0.0000
673  -1904.3409209464   0.000000514481 0.00000015  0.00000000  0.0000001 0.0000
674  -1904.3409208491   0.000000097270 0.00000019  0.00000000  0.0000000 0.0000
675  -1904.3409210541  -0.000000204934 0.00000024  0.00000000  0.0000000 0.0000
676  -1904.3409203302   0.000000723843 0.00000003  0.00000000  0.0000000 0.0000
677  -1904.3409205931  -0.000000262860 0.00000017  0.00000000  0.0000000 0.0000
678  -1904.3409206516  -0.000000058543 0.00000013  0.00000000  0.0000000 0.0000
679  -1904.3409207079  -0.000000056261 0.00000015  0.00000000  0.0000000 0.0000
680  -1904.3409217558  -0.000001047916 0.00000045  0.00000001  0.0000000 0.0000
681  -1904.3409214210   0.000000334801 0.00000021  0.00000000  0.0000001 0.0000
682  -1904.3409209836   0.000000437390 0.00000013  0.00000000  0.0000000 0.0000
683  -1904.3409213529  -0.000000369244 0.00000027  0.00000000  0.0000000 0.0000
684  -1904.3409212477   0.000000105135 0.00000019  0.00000000  0.0000000 0.0000
685  -1904.3409212203   0.000000027439 0.00000020  0.00000000  0.0000000 0.0000
686  -1904.3409210786   0.000000141736 0.00000016  0.00000000  0.0000000 0.0000
687  -1904.3409213522  -0.000000273656 0.00000025  0.00000000  0.0000000 0.0000
688  -1904.3409209139   0.000000438300 0.00000007  0.00000000  0.0000000 0.0000
                            ***DIIS convergence achieved***

               *****************************************************
               *                     SUCCESS                       *
               *           SCF CONVERGED AFTER 689 CYCLES          *
               *****************************************************


----------------
TOTAL SCF ENERGY
----------------

Total Energy       :        -1904.34092038 Eh          -51819.75091 eV

Components:
Nuclear Repulsion  :          120.33031733 Eh            3274.35440 eV
Electronic Energy  :        -2024.67123772 Eh          -55094.10531 eV
One Electron Energy:        -2883.56508352 Eh          -78465.79505 eV
Two Electron Energy:          858.89384581 Eh           23371.68974 eV

Virial components:
Potential Energy   :        -3808.80173511 Eh         -103642.76431 eV
Kinetic Energy     :         1904.46081472 Eh           51823.01340 eV
Virial Ratio       :            1.99993705


---------------
SCF CONVERGENCE
---------------

  Last Energy change         ...    5.2971e-07  Tolerance :   1.0000e-09
  Last MAX-Density change    ...    3.0563e-08  Tolerance :   1.0000e-08
  Last RMS-Density change    ...    4.4535e-10  Tolerance :   1.0000e-09
  Last DIIS Error            ...    1.8526e-08  Tolerance :   1.0000e-08

             **** THE GBW FILE WAS UPDATED (48_NiS.gbw) ****
             **** DENSITY FILE WAS UPDATED (48_NiS.scfp) ****
             **** ENERGY FILE WAS UPDATED (48_NiS.en.tmp) ****
----------------------
UHF SPIN CONTAMINATION
----------------------

Expectation value of <S**2>     :     2.280847
Ideal value S*(S+1) for S=1.0   :     2.000000
Deviation                       :     0.280847

             **** THE GBW FILE WAS UPDATED (48_NiS.gbw) ****
             **** DENSITY FILE WAS UPDATED (48_NiS.scfp) ****
----------------
ORBITAL ENERGIES
----------------
                 SPIN UP ORBITALS
  NO   OCC          E(Eh)            E(eV) 
   0   1.0000    -305.663114     -8317.5162 
   1   1.0000     -91.892497     -2500.5220 
   2   1.0000     -37.998176     -1033.9829 
   3   1.0000     -33.045600      -899.2165 
   4   1.0000     -33.008975      -898.2199 
   5   1.0000     -33.008975      -898.2199 
   6   1.0000      -8.898913      -242.1517 
   7   1.0000      -6.579602      -179.0401 
   8   1.0000      -6.579602      -179.0401 
   9   1.0000      -6.571824      -178.8284 
  10   1.0000      -5.027327      -136.8005 
  11   1.0000      -3.492778       -95.0433 
  12   1.0000      -3.410294       -92.7988 
  13   1.0000      -3.410294       -92.7988 
  14   1.0000      -0.865382       -23.5482 
  15   1.0000      -0.833176       -22.6719 
  16   1.0000      -0.833176       -22.6719 
  17   1.0000      -0.743829       -20.2406 
  18   1.0000      -0.741362       -20.1735 
  19   1.0000      -0.741362       -20.1735 
  20   1.0000      -0.338178        -9.2023 
  21   1.0000      -0.329866        -8.9761 
  22   1.0000      -0.329866        -8.9761 
  23   0.0000      -0.039724        -1.0810 
  24   0.0000       0.096179         2.6172 
  25   0.0000       0.096179         2.6172 
  26   0.0000       0.170706         4.6452 
  27   0.0000       0.241225         6.5641 
  28   0.0000       0.281405         7.6574 
  29   0.0000       0.281405         7.6574 
  30   0.0000       0.333051         9.0628 
  31   0.0000       0.333051         9.0628 
  32   0.0000       0.337923         9.1953 
  33   0.0000       0.470220        12.7953 
  34   0.0000       0.470220        12.7953 
  35   0.0000       0.512897        13.9566 
  36   0.0000       0.619415        16.8551 
  37   0.0000       0.619415        16.8551 
  38   0.0000       0.650710        17.7067 
  39   0.0000       0.668359        18.1870 
  40   0.0000       0.668359        18.1870 
  41   0.0000       0.759256        20.6604 
  42   0.0000       0.759256        20.6604 
  43   0.0000       0.885743        24.1023 
  44   0.0000       1.126193        30.6453 
  45   0.0000       1.193434        32.4750 
  46   0.0000       1.193434        32.4750 
  47   0.0000       1.241516        33.7834 
  48   0.0000       1.241516        33.7834 
  49   0.0000       1.493896        40.6510 
  50   0.0000       1.829358        49.7794 
  51   0.0000       1.829358        49.7794 
  52   0.0000       1.851220        50.3743 
  53   0.0000       1.907839        51.9150 
  54   0.0000       1.907839        51.9150 
  55   0.0000       2.003100        54.5071 
  56   0.0000       2.003100        54.5071 
  57   0.0000       2.006395        54.5968 
  58   0.0000       2.006395        54.5968 
  59   0.0000       2.100845        57.1669 
  60   0.0000       2.141288        58.2674 
  61   0.0000       2.141288        58.2674 
  62   0.0000       2.194990        59.7287 
  63   0.0000       2.194990        59.7287 
  64   0.0000       2.571510        69.9743 
  65   0.0000       3.120364        84.9094 
  66   0.0000       3.120364        84.9094 
  67   0.0000       3.198792        87.0436 
  68   0.0000       3.251260        88.4713 
  69   0.0000       3.251260        88.4713 
  70   0.0000       3.272998        89.0628 
  71   0.0000       3.272998        89.0628 
  72   0.0000       3.505050        95.3773 
  73   0.0000       3.505050        95.3773 
  74   0.0000       3.644785        99.1796 
  75   0.0000       3.972895       108.1080 
  76   0.0000       4.544069       123.6504 
  77   0.0000       4.544069       123.6504 
  78   0.0000       4.544722       123.6682 
  79   0.0000       4.544722       123.6682 
  80   0.0000       4.698945       127.8648 
  81   0.0000       7.293128       198.4561 
  82   0.0000       7.293128       198.4561 
  83   0.0000       7.360661       200.2938 
  84   0.0000       7.360661       200.2938 
  85   0.0000       7.392681       201.1651 
  86   0.0000       9.599439       261.2140 
  87   0.0000       9.599439       261.2140 
  88   0.0000       9.943563       270.5781 
  89   0.0000      11.926364       324.5329 
  90   0.0000      11.926364       324.5329 
  91   0.0000      11.938250       324.8563 
  92   0.0000      11.938250       324.8563 
  93   0.0000      11.939624       324.8937 
  94   0.0000      11.939624       324.8937 
  95   0.0000      11.947638       325.1118 
  96   0.0000      12.010287       326.8165 
  97   0.0000      12.010287       326.8165 
  98   0.0000      12.322395       335.3094 
  99   0.0000      12.322395       335.3094 
 100   0.0000      12.401947       337.4741 
 101   0.0000      12.401947       337.4741 
 102   0.0000      12.404216       337.5359 
 103   0.0000      12.404216       337.5359 
 104   0.0000      12.612784       343.2113 
 105   0.0000      19.177855       521.8560 

                 SPIN DOWN ORBITALS
  NO   OCC          E(Eh)            E(eV) 
   0   1.0000    -305.660309     -8317.4399 
   1   1.0000     -91.895481     -2500.6032 
   2   1.0000     -37.922353     -1031.9197 
   3   1.0000     -32.949211      -896.5936 
   4   1.0000     -32.949211      -896.5936 
[...]
 16  -1905.300410336     -0.913696370      0.000043954      0.000045205    6.75      0.514698893
 17  -1905.300392044     -0.913678079      0.000018291      0.000028335    6.75      0.514457735
 18  -1905.300374637     -0.913660672      0.000017407      0.000015602    6.68      0.514313075
 19  -1905.300371305     -0.913657339      0.000003332      0.000007309    6.69      0.514310269
 20  -1905.300374030     -0.913660065     -0.000002725      0.000007109    6.70      0.514331332
 21  -1905.300378972     -0.913665006     -0.000004942      0.000003986    6.62      0.514377765
 22  -1905.300384267     -0.913670301     -0.000005295      0.000002790    6.68      0.514425014
 23  -1905.300388787     -0.913674822     -0.000004521      0.000001712    6.62      0.514458157
 24  -1905.300389327     -0.913675362     -0.000000540      0.000000931    6.72      0.514465741
               --- The Coupled-Cluster iterations have converged ---

----------------------
COUPLED CLUSTER ENERGY
----------------------

E(0)                                       ...  -1904.386713965
E(CORR)                                    ...     -0.913675362
E(TOT)                                     ...  -1905.300389327
Singles norm <S|S>**1/2                    ...      0.514465741 ( 0.140062195, 0.374403546)  
T1 diagnostic                              ...      0.105014880                              

------------------
LARGEST AMPLITUDES
------------------
  20b-> 26b  -1b-> -1b       0.337236
  19b-> 27b  -1b-> -1b       0.337236
  19b-> 28b  -1b-> -1b       0.270187
  20b-> 29b  -1b-> -1b       0.270187
  20b-> 28b  -1b-> -1b       0.202330
  19b-> 29b  -1b-> -1b       0.202330
  20a-> 23a  -1a-> -1a       0.193033
  20b-> 34b  -1b-> -1b       0.172249
  19b-> 35b  -1b-> -1b       0.172249
  18b-> 21b  -1b-> -1b       0.141782
  20b-> 23b  -1b-> -1b       0.137514
  19b-> 22b  -1b-> -1b       0.137514
  19b-> 37b  -1b-> -1b       0.116849
  20b-> 38b  -1b-> -1b       0.116849
  20b-> 29b  19b-> 28b       0.074523
  20b-> 28b  19b-> 29b       0.074523

----------------------
UHF TRIPLES CORRECTION (Algorithm 1)
----------------------

Multiplier for the singles contribution    ...      1.000000000

SPIN-CASE Alpha-Alpha-Alpha:
10% done
20% done
30% done
40% done
50% done
60% done
70% done
80% done
90% done


SPIN-CASE Beta-Beta-Beta:
10% done
20% done
30% done
40% done
50% done
60% done
70% done
80% done
90% done


SPIN-CASE Alpha-Alpha-Beta:
10% done
20% done
30% done
40% done
50% done
60% done
70% done
80% done
90% done


SPIN-CASE Beta-Beta-Alpha:
10% done
20% done
30% done
40% done
50% done
60% done
70% done
80% done
90% done


Triples Correction (T)                     ...     -0.056112923
    alpha-alpha-alpha ... -0.001244722 (  2.2%)
    alpha-alpha-beta  ... -0.022870023 ( 40.8%)
    alpha-beta -beta  ... -0.028356144 ( 50.5%)
    beta -beta -beta  ... -0.003642034 (  6.5%)
Scaling of triples based on CCSD energies (Peterson et al. Molecular Physics 113, 1551 (2015))
E(T*) = f*E(T) where f = E(F12-CCSD)/E(CCSD) 
f = CCSD (with F12)/ CCSD (without F12)    ...      1.000000000
Scaled triples correction (T)              ...     -0.056112923

Final correlation energy                   ...     -0.969788284
E(CCSD)                                    ...  -1905.300389327
E(CCSD(T))                                 ...  -1905.356502250



        !!!!!!!!!!!!!!!!!!!!!!!!!!!!!!!!!!!!!!!!!!!!!!!!!!!!!!!!!!!!!!!!!!!!!!!!!! 
        !  Warning: Densities are linearized densities                           !
        !!!!!!!!!!!!!!!!!!!!!!!!!!!!!!!!!!!!!!!!!!!!!!!!!!!!!!!!!!!!!!!!!!!!!!!!!! 

NORM  =      2.055736820 sqrt=     1.433784091
W(HF) =      0.486443591
------------------------------------------------------------------------------
                           ORCA POPULATION ANALYSIS
------------------------------------------------------------------------------
Input electron density              ... 48_NiS.mdcip
Input spin density                  ... 48_NiS.mdcir
BaseName (.gbw .S,...)              ... 48_NiS

                    ********************************
                    * MULLIKEN POPULATION ANALYSIS *
                    ********************************

------------------------------------------
MULLIKEN ATOMIC CHARGES AND SPIN DENSITIES
------------------------------------------
   0 Ni:   -0.031477    0.688023
   1 S :    0.031477    1.311977
Sum of atomic charges       :   -0.0000000
Sum of atomic spin densities:    2.0000000

---------------------------------------------------
MULLIKEN REDUCED ORBITAL CHARGES AND SPIN DENSITIES
---------------------------------------------------
CHARGE
  0 Nis       :     6.643669  s :     6.643669
      pz      :     4.051931  p :    12.192900
      px      :     4.070484
      py      :     4.070484
      dz2     :     1.839259  d :     9.143142
      dxz     :     1.670105
      dyz     :     1.670105
      dx2y2   :     1.981837
      dxy     :     1.981837
      f0      :     0.008424  f :     0.046486
      f+1     :     0.006423
      f-1     :     0.006423
      f+2     :     0.006435
      f-2     :     0.006435
      f+3     :     0.006173
      f-3     :     0.006173
      g0      :     0.000638  g :     0.005281
      g+1     :     0.000631
      g-1     :     0.000631
      g+2     :     0.000568
      g-2     :     0.000568
      g+3     :     0.000560
      g-3     :     0.000560
      g+4     :     0.000563
      g-4     :     0.000563
  1 S s       :     5.872003  s :     5.872003
      pz      :     3.491482  p :     9.898819
      px      :     3.203669
      py      :     3.203669
      dz2     :     0.032229  d :     0.162547
      dxz     :     0.042739
      dyz     :     0.042739
      dx2y2   :     0.022419
      dxy     :     0.022419
      f0      :     0.003797  f :     0.030525
      f+1     :     0.008089
      f-1     :     0.008089
      f+2     :     0.003476
      f-2     :     0.003476
      f+3     :     0.001799
      f-3     :     0.001799
      g0      :     0.000930  g :     0.004629
      g+1     :     0.000990
      g-1     :     0.000990
      g+2     :     0.000459
      g-2     :     0.000459
      g+3     :     0.000221
      g-3     :     0.000221
      g+4     :     0.000180
      g-4     :     0.000180

SPIN
  0 Nis       :    -0.012592  s :    -0.012592
      pz      :    -0.008597  p :     0.098899
      px      :     0.053748
      py      :     0.053748
      dz2     :    -0.003600  d :     0.592328
      dxz     :     0.293879
      dyz     :     0.293879
      dx2y2   :     0.004084
      dxy     :     0.004084
      f0      :     0.000388  f :     0.008868
      f+1     :     0.003709
      f-1     :     0.003709
      f+2     :     0.000545
      f-2     :     0.000545
      f+3     :    -0.000014
      f-3     :    -0.000014
      g0      :     0.000049  g :     0.000521
      g+1     :     0.000048
      g-1     :     0.000048
      g+2     :     0.000095
      g-2     :     0.000095
      g+3     :     0.000086
      g-3     :     0.000086
      g+4     :     0.000006
      g-4     :     0.000006
  1 S s       :     0.022321  s :     0.022321
      pz      :     0.014576  p :     1.287399
      px      :     0.636412
      py      :     0.636412
      dz2     :     0.000501  d :     0.002667
      dxz     :    -0.003382
      dyz     :    -0.003382
      dx2y2   :     0.004465
      dxy     :     0.004465
      f0      :     0.000417  f :    -0.000183
      f+1     :    -0.000791
      f-1     :    -0.000791
      f+2     :     0.000058
      f-2     :     0.000058
      f+3     :     0.000433
      f-3     :     0.000433
      g0      :    -0.000009  g :    -0.000227
      g+1     :    -0.000082
      g-1     :    -0.000082
      g+2     :    -0.000029
      g-2     :    -0.000029
      g+3     :    -0.000001
      g-3     :    -0.000001
      g+4     :     0.000003
      g-4     :     0.000003


                     *******************************
                     * LOEWDIN POPULATION ANALYSIS *
                     *******************************

-----------------------------------------
LOEWDIN ATOMIC CHARGES AND SPIN DENSITIES
-----------------------------------------
   0 Ni:   -0.693694    0.858536
   1 S :    0.693694    1.141464

--------------------------------------------------
LOEWDIN REDUCED ORBITAL CHARGES AND SPIN DENSITIES
--------------------------------------------------
CHARGE
  0 Nis       :     6.634076  s :     6.634076
      pz      :     4.246111  p :    12.458902
      px      :     4.106396
      py      :     4.106396
      dz2     :     2.009692  d :     9.417094
      dxz     :     1.725667
      dyz     :     1.725667
      dx2y2   :     1.978034
      dxy     :     1.978034
      f0      :     0.060896  f :     0.178116
      f+1     :     0.045531
      f-1     :     0.045531
      f+2     :     0.006902
      f-2     :     0.006902
      f+3     :     0.006177
      f-3     :     0.006177
      g0      :     0.000791  g :     0.005505
      g+1     :     0.000668
      g-1     :     0.000668
      g+2     :     0.000567
      g-2     :     0.000567
      g+3     :     0.000560
      g-3     :     0.000560
      g+4     :     0.000563
      g-4     :     0.000563
  1 S s       :     5.394347  s :     5.394347
      pz      :     3.489703  p :     9.605472
      px      :     3.057885
      py      :     3.057885
      dz2     :     0.066592  d :     0.207807
      dxz     :     0.047463
      dyz     :     0.047463
      dx2y2   :     0.023145
      dxy     :     0.023145
      f0      :     0.035200  f :     0.083411
      f+1     :     0.016616
      f-1     :     0.016616
      f+2     :     0.005695
      f-2     :     0.005695
      f+3     :     0.001794
      f-3     :     0.001794
      g0      :     0.006956  g :     0.015268
      g+1     :     0.002904
      g-1     :     0.002904
      g+2     :     0.000851
      g-2     :     0.000851
      g+3     :     0.000221
      g-3     :     0.000221
      g+4     :     0.000180
      g-4     :     0.000180

SPIN
  0 Nis       :    -0.004792  s :    -0.004792
      pz      :    -0.013938  p :     0.161136
      px      :     0.087537
      py      :     0.087537
      dz2     :    -0.001971  d :     0.646870
      dxz     :     0.319879
      dyz     :     0.319879
      dx2y2   :     0.004541
      dxy     :     0.004541
      f0      :     0.000728  f :     0.054754
      f+1     :     0.026399
      f-1     :     0.026399
      f+2     :     0.000627
      f-2     :     0.000627
      f+3     :    -0.000013
      f-3     :    -0.000013
      g0      :     0.000044  g :     0.000568
      g+1     :     0.000077
      g-1     :     0.000077
      g+2     :     0.000092
      g-2     :     0.000092
      g+3     :     0.000086
      g-3     :     0.000086
      g+4     :     0.000006
      g-4     :     0.000006
  1 S s       :     0.010078  s :     0.010078
      pz      :     0.026332  p :     1.118689
      px      :     0.546178
      py      :     0.546178
      dz2     :    -0.002266  d :     0.008913
      dxz     :     0.001454
      dyz     :     0.001454
      dx2y2   :     0.004136
      dxy     :     0.004136
      f0      :    -0.000505  f :     0.003374
      f+1     :     0.001637
      f-1     :     0.001637
      f+2     :    -0.000129
      f-2     :    -0.000129
      f+3     :     0.000432
      f-3     :     0.000432
      g0      :    -0.000254  g :     0.000410
      g+1     :     0.000381
      g-1     :     0.000381
      g+2     :    -0.000051
      g-2     :    -0.000051
      g+3     :    -0.000001
      g-3     :    -0.000001
      g+4     :     0.000003
      g-4     :     0.000003


                      *****************************
                      * MAYER POPULATION ANALYSIS *
                      *****************************

  NA   - Mulliken gross atomic population
  ZA   - Total nuclear charge
  QA   - Mulliken gross atomic charge
  VA   - Mayer's total valence
  BVA  - Mayer's bonded valence
  FA   - Mayer's free valence

  ATOM       NA         ZA         QA         VA         BVA        FA
  0 Ni    28.0315    28.0000    -0.0315     2.9212     2.1958     0.7254
  1 S     15.9685    16.0000     0.0315     3.3950     2.1958     1.1992

  Mayer bond orders larger than 0.100000
B(  0-Ni,  1-S ) :   2.1958 



------------------------------------------------------------------------------- 
                                     TIMINGS                                   
------------------------------------------------------------------------------- 


Total execution time                   ...      211.967 sec

Fock Matrix Formation                  ...        1.288 sec (  0.6%)
Initial Guess                          ...        0.157 sec (  0.1%)
DIIS Solver                            ...       11.363 sec (  5.4%)
State Vector Update                    ...        0.456 sec (  0.2%)
Sigma-vector construction              ...      155.878 sec ( 73.5%)
  <0|H|D>                              ...        0.024 sec (  0.0% of sigma)
  <D|H|D>(0-ext Fock)                  ...        0.237 sec (  0.2% of sigma)
  <D|H|D>(0-ext)                       ...        1.284 sec (  0.8% of sigma)
  <D|H|D>(2-ext Fock)                  ...        0.075 sec (  0.0% of sigma)
  <D|H|D>(2-ext)                       ...        4.323 sec (  2.8% of sigma)
  <D|H|D>(4-ext)                       ...       82.592 sec ( 53.0% of sigma)
  <S|H|0>                              ...       13.181 sec (  8.5% of sigma)
  <S|H|S>                              ...        0.008 sec (  0.0% of sigma)
  <S|H|D>(1-ext)                       ...        0.051 sec (  0.0% of sigma)
  <D|H|S>(1-ext)                       ...        0.752 sec (  0.5% of sigma)
  Fock-dressing                        ...       23.823 sec ( 15.3% of sigma)
  (ik|jl)-dressing                     ...        1.484 sec (  1.0% of sigma)
  (ij|ab),(ia|jb)-dressing             ...       23.066 sec ( 14.8% of sigma)
  Pair energies                        ...        0.035 sec (  0.0% of sigma)
Total Time for computing (T)           ...       29.569 sec ( 13.9% of ALL)
  I/O of integral and amplitudes       ...        5.381 sec ( 18.2% of (T))
  External N**7 contributions          ...       10.970 sec ( 37.1% of (T))
  Internal N**7 contributions          ...        3.410 sec ( 11.5% of (T))
  N**6 triples energy contributions    ...        8.848 sec ( 29.9% of (T))


-------------------
EXTRAPOLATED ENERGY
-------------------


-----------------------------------------------------------------
                      EP1 - MDCI extrapolation:
-----------------------------------------------------------------
NOTE: We use as reference SCF energy, for the extrapolation, the one from the MDCI module and not the one 
from the SCF calculation. In case the first step is a DFT calculation these two might be different.

NOTE: For the SCF part we extrapolate based on the scheme proposed in J. Chem. Phys. 2008, 129, 184116
using the exponents from J. Chem. Theory Comput., 7, 33-43 (2011)

NOTE: For the correlation part we extrapolate based on the scheme proposed in J. Chem. Phys. 1997, 106, 9639
using the exponents from J. Chem. Theory Comput., 7, 33-43 (2011)


Alpha(3/4)     :  7.880 (SCF Extrapolation)
Beta(3/4)      :  2.970 (correlation extrapolation)

SCF energy with basis def2-TZVPP:                     -1904.340920252
SCF energy with basis def2-QZVPP:                     -1904.386713965
Extrapolated CBS SCF energy (3/4) :                   -1904.393021532 (-0.006307566) 

MDCI energy with basis def2-TZVPP:                       -0.923490690
MDCI energy with basis def2-QZVPP:                       -0.969788284
Extrapolated CBS correlation energy (3/4) :              -1.004082773 (-0.034294489)

Estimated CBS total energy (3/4) :                    -1905.397104305



-------------------------   --------------------
FINAL SINGLE POINT ENERGY     -1905.397104304770
-------------------------   --------------------


                            ***************************************
                            *     ORCA property calculations      *
                            ***************************************

                                    ---------------------
                                    Active property flags
                                    ---------------------
   (+) Dipole Moment


------------------------------------------------------------------------------
                       ORCA ELECTRIC PROPERTIES CALCULATION
------------------------------------------------------------------------------

Dipole Moment Calculation                       ... on
Quadrupole Moment Calculation                   ... off
Polarizability Calculation                      ... off
GBWName                                         ... 48_NiS.gbw
Electron density file                           ... 48_NiS.scfp
The origin for moment calculation is the CENTER OF MASS  = ( 0.000000,  0.000000  1.343324)

-------------
DIPOLE MOMENT
-------------
                                X             Y             Z
Electronic contribution:     -0.00000       0.00000      -4.25156
Nuclear contribution   :      0.00000       0.00000       1.70320
                        -----------------------------------------
Total Dipole Moment    :     -0.00000       0.00000      -2.54836
                        -----------------------------------------
Magnitude (a.u.)       :      2.54836
Magnitude (Debye)      :      6.47742



--------------------
Rotational spectrum 
--------------------
 
Rotational constants in cm-1:     0.000000     0.209451     0.209451 
Rotational constants in MHz :     0.000000  6279.170942  6279.170942 

 Dipole components along the rotational axes: 
x,y,z [a.u.] :    -2.548362     0.000000    -0.000000 
x,y,z [Debye]:    -6.477420     0.000000    -0.000000 

 

                           *** MDCI DENSITY ***

------------------------------------------------------------------------------
                       ORCA ELECTRIC PROPERTIES CALCULATION
------------------------------------------------------------------------------

Dipole Moment Calculation                       ... on
Quadrupole Moment Calculation                   ... off
Polarizability Calculation                      ... off
GBWName                                         ... 48_NiS.gbw
Electron density file                           ... 48_NiS.mdcip
The origin for moment calculation is the CENTER OF MASS  = ( 0.000000,  0.000000  1.343324)

-------------
DIPOLE MOMENT
-------------
                                X             Y             Z
Electronic contribution:     -0.00000       0.00000      -2.00384
Nuclear contribution   :      0.00000       0.00000       1.70320
                        -----------------------------------------
Total Dipole Moment    :     -0.00000       0.00000      -0.30064
                        -----------------------------------------
Magnitude (a.u.)       :      0.30064
Magnitude (Debye)      :      0.76417



--------------------
Rotational spectrum 
--------------------
 
Rotational constants in cm-1:     0.000000     0.209451     0.209451 
Rotational constants in MHz :     0.000000  6279.170942  6279.170942 

 Dipole components along the rotational axes: 
x,y,z [a.u.] :    -0.300640     0.000000    -0.000000 
x,y,z [Debye]:    -0.764166     0.000000    -0.000000 

 

Timings for individual modules:

Sum of individual times         ...      408.771 sec (=   6.813 min)
GTO integral calculation        ...        1.917 sec (=   0.032 min)   0.5 %
SCF iterations                  ...      145.165 sec (=   2.419 min)  35.5 %
MDCI module                     ...      261.690 sec (=   4.361 min)  64.0 %
                             ****ORCA TERMINATED NORMALLY****
TOTAL RUN TIME: 0 days 0 hours 6 minutes 50 seconds 16 msec
