
                                 *****************
                                 * O   R   C   A *
                                 *****************

           --- An Ab Initio, DFT and Semiempirical electronic structure package ---

                  #######################################################
                  #                        -***-                        #
                  #          Department of theory and spectroscopy      #
                  #               Directorship: Frank Neese             #
                  #        Max Planck Institute fuer Kohlenforschung    #
                  #                Kaiser Wilhelm Platz 1               #
                  #                 D-45470 Muelheim/Ruhr               #
                  #                      Germany                        #
                  #                                                     #
                  #                  All rights reserved                #
                  #                        -***-                        #
                  #######################################################


                         Program Version 4.2.0 -  RELEASE  -


 With contributions from (in alphabetic order):
   Daniel Aravena         : Magnetic Suceptibility
   Michael Atanasov       : Ab Initio Ligand Field Theory (pilot matlab implementation)
   Alexander A. Auer      : GIAO ZORA, VPT2
   Ute Becker             : Parallelization
   Giovanni Bistoni       : ED, misc. LED, open-shell LED, HFLED
   Martin Brehm           : Molecular dynamics
   Dmytro Bykov           : SCF Hessian
   Vijay G. Chilkuri      : MRCI spin determinant printing, contributions to CSF-ICE
   Dipayan Datta          : RHF DLPNO-CCSD density
   Achintya Kumar Dutta   : EOM-CC, STEOM-CC
   Dmitry Ganyushin       : Spin-Orbit,Spin-Spin,Magnetic field MRCI
   Miquel Garcia          : C-PCM Hessian, Gaussian charge scheme
   Yang Guo               : DLPNO-NEVPT2, CIM, IAO-localization
   Andreas Hansen         : Spin unrestricted coupled pair/coupled cluster methods
   Benjamin Helmich-Paris : CASSCF linear response (MC-RPA)
   Lee Huntington         : MR-EOM, pCC
   Robert Izsak           : Overlap fitted RIJCOSX, COSX-SCS-MP3, EOM
   Christian Kollmar      : KDIIS, OOCD, Brueckner-CCSD(T), CCSD density
   Simone Kossmann        : Meta GGA functionals, TD-DFT gradient, OOMP2, MP2 Hessian
   Martin Krupicka        : AUTO-CI
   Lucas Lang             : DCDCAS
   Dagmar Lenk            : GEPOL surface, SMD
   Dimitrios Liakos       : Extrapolation schemes; Compound Job, initial MDCI parallelization
   Dimitrios Manganas     : Further ROCIS development; embedding schemes
   Dimitrios Pantazis     : SARC Basis sets
   Taras Petrenko         : DFT Hessian,TD-DFT gradient, ASA, ECA, R-Raman, ABS, FL, XAS/XES, NRVS
   Peter Pinski           : DLPNO-MP2, DLPNO-MP2 Gradient
   Christoph Reimann      : Effective Core Potentials
   Marius Retegan         : Local ZFS, SOC
   Christoph Riplinger    : Optimizer, TS searches, QM/MM, DLPNO-CCSD(T), (RO)-DLPNO pert. Triples
   Tobias Risthaus        : Range-separated hybrids, TD-DFT gradient, RPA, STAB
   Michael Roemelt        : Original ROCIS implementation
   Masaaki Saitow         : Open-shell DLPNO-CCSD energy and density
   Barbara Sandhoefer     : DKH picture change effects
   Avijit Sen             : IP-ROCIS
   Kantharuban Sivalingam : CASSCF convergence, NEVPT2, FIC-MRCI
   Bernardo de Souza      : ESD, SOC TD-DFT
   Georgi Stoychev        : AutoAux, RI-MP2 NMR
   Willem Van den Heuvel  : Paramagnetic NMR
   Boris Wezisla          : Elementary symmetry handling
   Frank Wennmohs         : Technical directorship


 We gratefully acknowledge several colleagues who have allowed us to
 interface, adapt or use parts of their codes:
   Stefan Grimme, W. Hujo, H. Kruse,             : VdW corrections, initial TS optimization,
                  C. Bannwarth                     DFT functionals, gCP, sTDA/sTD-DF
   Ed Valeev, F. Pavosevic, A. Kumar             : LibInt (2-el integral package), F12 methods
   Garnet Chan, S. Sharma, J. Yang, R. Olivares  : DMRG
   Ulf Ekstrom                                   : XCFun DFT Library
   Mihaly Kallay                                 : mrcc  (arbitrary order and MRCC methods)
   Andreas Klamt, Michael Diedenhofen            : otool_cosmo (COSMO solvation model)
   Jiri Pittner, Ondrej Demel                    : Mk-CCSD
   Frank Weinhold                                : gennbo (NPA and NBO analysis)
   Christopher J. Cramer and Donald G. Truhlar   : smd solvation model
   Lars Goerigk                                  : TD-DFT with DH, B97 family of functionals
   V. Asgeirsson, H. Jonsson                     : NEB implementation
   FAccTs GmbH                                   : IRC, NEB, NEB-TS, Multilevel, MM, QM/MM, CI optimization
   S Lehtola, MJT Oliveira, MAL Marques          : LibXC Library


 Your calculation uses the libint2 library for the computation of 2-el integrals
 For citations please refer to: http://libint.valeyev.net

 Your ORCA version has been built with support for libXC version: 4.2.3
 For citations please refer to: https://tddft.org/programs/libxc/

 This ORCA versions uses:
   CBLAS   interface :  Fast vector & matrix operations
   LAPACKE interface :  Fast linear algebra routines
   SCALAPACK package :  Parallel linear algebra routines


----- Orbital basis set information -----
Your calculation utilizes the basis: def2-TZVPP
   F. Weigend and R. Ahlrichs, Phys. Chem. Chem. Phys. 7, 3297 (2005).

================================================================================
                                        WARNINGS
                       Please study these warnings very carefully!
================================================================================


WARNING: MDCI localization with Augmented Hessian Foster-Boys
  ===> : Switching off randomization!

WARNING: Post HF methods need fully converged wavefunctions
  ===> : Setting SCFConvForced true
         You can overwrite this default with %scf ConvForced false 


INFO   : the flag for use of LIBINT has been found!

================================================================================
                                       INPUT FILE
================================================================================
NAME = 49_CuH.in
|  1> #
|  2> # 49_CuH ccsd(t)/cbs
|  3> #
|  4> ! ccsd(t) extrapolate(3/4,def2) verytightscf
|  5> 
|  6> *xyz 0 1
|  7>   Cu  0.00000000000000      0.00000000000000      0.26188782360473
|  8>   H   0.00000000000000      0.00000000000000      1.73811217639527
|  9> *
| 10> 
| 11> %maxcore 5000
| 12> %pal
| 13> nprocs 24
| 14> end
| 15> 
| 16> 
| 17>                          ****END OF INPUT****
================================================================================

                   *****************************************
                   * Extrapolated Single Point Calculation *
                   *****************************************

----- Orbital basis set information -----
Your calculation utilizes the basis: def2-TZVPP
   F. Weigend and R. Ahlrichs, Phys. Chem. Chem. Phys. 7, 3297 (2005).

----- AuxJ basis set information -----
Your calculation utilizes the auxiliary basis: def2/J
   F. Weigend, Phys. Chem. Chem. Phys. 8, 1057 (2006).

----- AuxC basis set information -----
Your calculation utilizes the auxiliary basis: def2-TZVPP/C
  H-La, Hf-Rn : A. Hellweg, C. Hattig, S. Hofener and W. Klopper, Theor. Chem. Acc. 117, 587 (2007).
        Ce-Lu : J. Chmela and M. E. Harding, Mol. Phys. (2018).

----- AuxJK basis set information -----
Your calculation utilizes the auxiliary basis: def2/JK
   H-Ba, Hf-Rn: F. Weigend, J. Comput. Chem. 29, 167 (2008).

All done

                     -----------------------------------------
                     Extrapolated Energy 1 Basis=  def2-TZVPP
                     -----------------------------------------

---------------------------------
CARTESIAN COORDINATES (ANGSTROEM)
---------------------------------
  Cu     0.000000    0.000000    0.261888
  H      0.000000    0.000000    1.738112

----------------------------
CARTESIAN COORDINATES (A.U.)
----------------------------
  NO LB      ZA    FRAG     MASS         X           Y           Z
   0 Cu   29.0000    0    63.550    0.000000    0.000000    0.494896
   1 H     1.0000    0     1.008    0.000000    0.000000    3.284556

--------------------------------
INTERNAL COORDINATES (ANGSTROEM)
--------------------------------
 Cu     0   0   0     0.000000000000     0.00000000     0.00000000
 H      1   0   0     1.476224352791     0.00000000     0.00000000

---------------------------
INTERNAL COORDINATES (A.U.)
---------------------------
 Cu     0   0   0     0.000000000000     0.00000000     0.00000000
 H      1   0   0     2.789659738999     0.00000000     0.00000000

---------------------
BASIS SET INFORMATION
---------------------
There are 2 groups of distinct atoms

 Group   1 Type Cu  : 17s12p7d2f1g contracted to 6s5p4d2f1g pattern {842111/63111/4111/11/1}
 Group   2 Type H   : 5s2p1d contracted to 3s2p1d pattern {311/11/1}

Atom   0Cu   basis set group =>   1
Atom   1H    basis set group =>   2
---------------------------------
AUXILIARY/J BASIS SET INFORMATION
---------------------------------
There are 2 groups of distinct atoms

 Group   1 Type Cu  : 19s5p5d3f3g contracted to 8s5p4d3f3g pattern {121111111/11111/2111/111/111}
 Group   2 Type H   : 5s2p1d contracted to 3s1p1d pattern {311/2/1}

Atom   0Cu   basis set group =>   1
Atom   1H    basis set group =>   2
---------------------------------
AUXILIARY/C BASIS SET INFORMATION
---------------------------------
There are 2 groups of distinct atoms

 Group   1 Type Cu  : 9s9p8d7f5g3h1i contracted to 9s9p8d7f5g3h1i pattern {111111111/111111111/11111111/1111111/11111/111/1}
 Group   2 Type H   : 4s3p2d1f contracted to 4s3p2d1f pattern {1111/111/11/1}

Atom   0Cu   basis set group =>   1
Atom   1H    basis set group =>   2
----------------------------------
AUXILIARY/JK BASIS SET INFORMATION
----------------------------------
There are 2 groups of distinct atoms

 Group   1 Type Cu  : 19s14p12d10f7g3h1i contracted to 16s13p11d9f5g3h1i pattern {4111111111111111/2111111111111/21111111111/211111111/31111/111/1}
 Group   2 Type H   : 4s2p2d contracted to 2s2p2d pattern {31/11/11}

Atom   0Cu   basis set group =>   1
Atom   1H    basis set group =>   2


           ************************************************************
           *        Program running with 24 parallel MPI-processes    *
           *              working on a common directory               *
           ************************************************************
------------------------------------------------------------------------------
                           ORCA GTO INTEGRAL CALCULATION
------------------------------------------------------------------------------

                         BASIS SET STATISTICS AND STARTUP INFO

 # of primitive gaussian shells          ...   47
 # of primitive gaussian functions       ...  127
 # of contracted shells                  ...   24
 # of contracted basis functions         ...   78
 Highest angular momentum                ...    4
 Maximum contraction depth               ...    8
 Integral package used                   ... LIBINT
 Integral threshhold            Thresh   ...  1.000e-12
 Primitive cut-off              TCut     ...  1.000e-14


------------------------------ INTEGRAL EVALUATION ----------------------------


 * One electron integrals 
 Pre-screening matrix                    ... done
 Shell pair data                         ... done (   0.000 sec)



           ************************************************************
           *        Program running with 24 parallel MPI-processes    *
           *              working on a common directory               *
           ************************************************************
-------------------------------------------------------------------------------
                                 ORCA SCF
-------------------------------------------------------------------------------

------------
SCF SETTINGS
------------
Hamiltonian:
 Ab initio Hamiltonian  Method          .... Hartree-Fock(GTOs)


General Settings:
 Integral files         IntName         .... 49_CuH
 Hartree-Fock type      HFTyp           .... RHF
 Total Charge           Charge          ....    0
 Multiplicity           Mult            ....    1
 Number of Electrons    NEL             ....   30
 Basis Dimension        Dim             ....   78
 Nuclear Repulsion      ENuc            ....     10.3955330446 Eh

Convergence Acceleration:
 DIIS                   CNVDIIS         .... on
   Start iteration      DIISMaxIt       ....    12
   Startup error        DIISStart       ....  0.200000
   # of expansion vecs  DIISMaxEq       ....     5
   Bias factor          DIISBfac        ....   1.050
   Max. coefficient     DIISMaxC        ....  10.000
 Newton-Raphson         CNVNR           .... off
 SOSCF                  CNVSOSCF        .... off
 Level Shifting         CNVShift        .... on
   Level shift para.    LevelShift      ....    0.2500
   Turn off err/grad.   ShiftErr        ....    0.0010
 Zerner damping         CNVZerner       .... off
 Static damping         CNVDamp         .... on
   Fraction old density DampFac         ....    0.7000
   Max. Damping (<1)    DampMax         ....    0.9800
   Min. Damping (>=0)   DampMin         ....    0.0000
   Turn off err/grad.   DampErr         ....    0.1000
 Fernandez-Rico         CNVRico         .... off

SCF Procedure:
 Maximum # iterations   MaxIter         ....   125
 SCF integral mode      SCFMode         .... Direct
   Integral package                     .... LIBINT
 Reset frequency        DirectResetFreq ....    20
 Integral Threshold     Thresh          ....  1.000e-12 Eh
 Primitive CutOff       TCut            ....  1.000e-14 Eh

Convergence Tolerance:
 Convergence Check Mode ConvCheckMode   .... Total+1el-Energy
 Convergence forced     ConvForced      .... 1
 Energy Change          TolE            ....  1.000e-09 Eh
 1-El. energy change                    ....  1.000e-06 Eh
 DIIS Error             TolErr          ....  1.000e-08


Diagonalization of the overlap matrix:
Smallest eigenvalue                        ... 1.053e-02
Time for diagonalization                   ...    0.003 sec
Threshold for overlap eigenvalues          ... 1.000e-08
Number of eigenvalues below threshold      ... 0
Time for construction of square roots      ...    0.001 sec
Total time needed                          ...    0.004 sec

-------------------
DFT GRID GENERATION
-------------------

General Integration Accuracy     IntAcc      ...  4.340
Radial Grid Type                 RadialGrid  ... Gauss-Chebyshev
Angular Grid (max. acc.)         AngularGrid ... Lebedev-110
Angular grid pruning method      GridPruning ... 3 (G Style)
Weight generation scheme         WeightScheme... Becke
Basis function cutoff            BFCut       ...    1.0000e-12
Integration weight cutoff        WCut        ...    1.0000e-14
Grids for H and He will be reduced by one unit

# of grid points (after initial pruning)     ...   3706 (   0.0 sec)
# of grid points (after weights+screening)   ...   3681 (   0.0 sec)
nearest neighbour list constructed           ...    0.0 sec
Grid point re-assignment to atoms done       ...    0.0 sec
Grid point division into batches done        ...    0.0 sec
Reduced shell lists constructed in    0.0 sec

Total number of grid points                  ...     3681
Total number of batches                      ...       58
Average number of points per batch           ...       63
Average number of grid points per atom       ...     1840
Average number of shells per batch           ...     7.25 (30.21%)
Average number of basis functions per batch  ...    19.25 (24.68%)
Average number of large shells per batch     ...     6.75 (93.10%)
Average number of large basis fcns per batch ...    17.25 (89.61%)
Maximum spatial batch extension              ...  34.10, 26.34, 18.34 au
Average spatial batch extension              ...   1.21,  1.23,  0.81 au

Time for grid setup =    0.019 sec

------------------------------
INITIAL GUESS: MODEL POTENTIAL
------------------------------
Loading Hartree-Fock densities                     ... done
Calculating cut-offs                               ... done
Setting up the integral package                    ... done
Initializing the effective Hamiltonian             ... done
Starting the Coulomb interaction                   ... done (   0.0 sec)
Reading the grid                                   ... done
Mapping shells                                     ... done
Starting the XC term evaluation                    ... done (   0.0 sec)
Transforming the Hamiltonian                       ... done (   0.0 sec)
Diagonalizing the Hamiltonian                      ... done (   0.0 sec)
Back transforming the eigenvectors                 ... done (   0.0 sec)
Now organizing SCF variables                       ... done
                      ------------------
                      INITIAL GUESS DONE (   0.1 sec)
                      ------------------
--------------
SCF ITERATIONS
--------------
ITER       Energy         Delta-E        Max-DP      RMS-DP      [F,P]     Damp
               ***  Starting incremental Fock matrix formation  ***
  0  -1639.4323342054   0.000000000000 0.04090950  0.00117915  0.1379553 0.7000
  1  -1639.4438319610  -0.011497755521 0.04735422  0.00107428  0.0725039 0.7000
                               ***Turning on DIIS***
  2  -1639.4514723528  -0.007640391879 0.14260970  0.00295252  0.0532794 0.0000
  3  -1639.4473832653   0.004089087502 0.04648861  0.00084518  0.0151200 0.0000
  4  -1639.5682149020  -0.120831636704 0.02944988  0.00056179  0.0141039 0.0000
  5  -1639.3937512326   0.174463669410 0.01962949  0.00036914  0.0061641 0.0000
  6  -1639.4795755614  -0.085824328745 0.01453992  0.00028106  0.0038504 0.0000
  7  -1639.4711015298   0.008474031601 0.00701414  0.00014864  0.0023013 0.0000
  8  -1639.4701002868   0.001001242920 0.00339143  0.00008987  0.0013236 0.0000
  9  -1639.4709806319  -0.000880345031 0.00269263  0.00007746  0.0007690 0.0000
 10  -1639.4728801007  -0.001899468851 0.00049716  0.00001573  0.0002511 0.0000
 11  -1639.4695731982   0.003306902481 0.00026102  0.00000816  0.0002372 0.0000
 12  -1639.4735814655  -0.004008267276 0.00008801  0.00000353  0.0000836 0.0000
 13  -1639.4726472679   0.000934197581 0.00003819  0.00000112  0.0000194 0.0000
 14  -1639.4727744657  -0.000127197716 0.00001248  0.00000041  0.0000033 0.0000
 15  -1639.4727586784   0.000015787213 0.00000533  0.00000016  0.0000011 0.0000
 16  -1639.4727603839  -0.000001705420 0.00000251  0.00000006  0.0000006 0.0000
 17  -1639.4727597936   0.000000590228 0.00000113  0.00000003  0.0000002 0.0000
 18  -1639.4727605389  -0.000000745295 0.00000013  0.00000000  0.0000001 0.0000
 19  -1639.4727613189  -0.000000779920 0.00000003  0.00000000  0.0000001 0.0000
               *** Restarting incremental Fock matrix formation ***
                                   *** Resetting DIIS ***
                            ***DIIS convergence achieved***

               *****************************************************
               *                     SUCCESS                       *
               *           SCF CONVERGED AFTER  20 CYCLES          *
               *****************************************************


----------------
TOTAL SCF ENERGY
----------------

Total Energy       :        -1639.47276075 Eh          -44612.32187 eV

Components:
Nuclear Repulsion  :           10.39553304 Eh             282.87684 eV
Electronic Energy  :        -1649.86829379 Eh          -44895.19870 eV
One Electron Energy:        -2310.70611806 Eh          -62877.51010 eV
Two Electron Energy:          660.83782427 Eh           17982.31140 eV

Virial components:
Potential Energy   :        -3278.88356138 Eh          -89222.95771 eV
Kinetic Energy     :         1639.41080064 Eh           44610.63585 eV
Virial Ratio       :            2.00003779


---------------
SCF CONVERGENCE
---------------

  Last Energy change         ...    5.6988e-07  Tolerance :   1.0000e-09
  Last MAX-Density change    ...    1.2231e-08  Tolerance :   1.0000e-08
  Last RMS-Density change    ...    4.2966e-10  Tolerance :   1.0000e-09
  Last DIIS Error            ...    9.2686e-09  Tolerance :   1.0000e-08

             **** THE GBW FILE WAS UPDATED (49_CuH.gbw) ****
             **** DENSITY FILE WAS UPDATED (49_CuH.scfp) ****
             **** ENERGY FILE WAS UPDATED (49_CuH.en.tmp) ****
             **** THE GBW FILE WAS UPDATED (49_CuH.gbw) ****
             **** DENSITY FILE WAS UPDATED (49_CuH.scfp) ****
----------------
ORBITAL ENERGIES
----------------

  NO   OCC          E(Eh)            E(eV) 
   0   2.0000    -328.812818     -8947.4517 
   1   2.0000     -40.842905     -1111.3919 
   2   2.0000     -35.641601      -969.8573 
   3   2.0000     -35.641601      -969.8573 
   4   2.0000     -35.640433      -969.8255 
   5   2.0000      -5.031185      -136.9055 
   6   2.0000      -3.345327       -91.0310 
   7   2.0000      -3.340751       -90.9065 
   8   2.0000      -3.340751       -90.9065 
   9   2.0000      -0.516023       -14.0417 
  10   2.0000      -0.507519       -13.8103 
  11   2.0000      -0.507519       -13.8103 
  12   2.0000      -0.505444       -13.7538 
  13   2.0000      -0.505444       -13.7538 
  14   2.0000      -0.335913        -9.1407 
  15   0.0000       0.026592         0.7236 
  16   0.0000       0.141862         3.8603 
  17   0.0000       0.141862         3.8603 
  18   0.0000       0.180923         4.9232 
  19   0.0000       0.230223         6.2647 
  20   0.0000       0.263429         7.1683 
  21   0.0000       0.263429         7.1683 
  22   0.0000       0.267426         7.2770 
  23   0.0000       0.267426         7.2770 
  24   0.0000       0.364943         9.9306 
  25   0.0000       0.549156        14.9433 
  26   0.0000       0.756336        20.5809 
  27   0.0000       0.756336        20.5809 
  28   0.0000       0.886193        24.1145 
  29   0.0000       0.987735        26.8776 
  30   0.0000       0.987735        26.8776 
  31   0.0000       1.101142        29.9636 
  32   0.0000       1.101142        29.9636 
  33   0.0000       1.190199        32.3870 
  34   0.0000       1.190199        32.3870 
  35   0.0000       1.203416        32.7466 
  36   0.0000       1.349583        36.7240 
  37   0.0000       2.852553        77.6219 
  38   0.0000       2.989388        81.3454 
  39   0.0000       3.321532        90.3835 
  40   0.0000       3.321532        90.3835 
  41   0.0000       3.388901        92.2167 
  42   0.0000       3.388901        92.2167 
  43   0.0000       3.499983        95.2394 
  44   0.0000       3.499983        95.2394 
  45   0.0000       3.505395        95.3867 
  46   0.0000       3.721888       101.2777 
  47   0.0000       3.831848       104.2699 
  48   0.0000       3.831848       104.2699 
  49   0.0000       3.899896       106.1216 
  50   0.0000       3.899896       106.1216 
  51   0.0000       4.118533       112.0710 
  52   0.0000       4.118533       112.0710 
  53   0.0000       4.199505       114.2744 
  54   0.0000       4.199505       114.2744 
  55   0.0000       4.214847       114.6918 
  56   0.0000       4.215363       114.7059 
  57   0.0000       4.215363       114.7059 
  58   0.0000       4.518575       122.9567 
  59   0.0000       4.518575       122.9567 
  60   0.0000       4.640541       126.2755 
  61   0.0000       5.660865       154.0400 
  62   0.0000      13.760280       374.4363 
  63   0.0000      13.760280       374.4363 
  64   0.0000      13.761297       374.4639 
  65   0.0000      13.761297       374.4639 
  66   0.0000      13.762469       374.4958 
  67   0.0000      13.762469       374.4958 
  68   0.0000      13.770906       374.7254 
  69   0.0000      13.770906       374.7254 
  70   0.0000      13.781502       375.0137 
  71   0.0000      14.008210       381.1828 
  72   0.0000      14.008210       381.1828 
  73   0.0000      14.011430       381.2704 
  74   0.0000      14.011430       381.2704 
  75   0.0000      14.099475       383.6662 
  76   0.0000      14.099475       383.6662 
  77   0.0000      14.292629       388.9222 

                    ********************************
                    * MULLIKEN POPULATION ANALYSIS *
                    ********************************

-----------------------
MULLIKEN ATOMIC CHARGES
-----------------------
   0 Cu:    0.339352
   1 H :   -0.339352
Sum of atomic charges:   -0.0000000

--------------------------------
MULLIKEN REDUCED ORBITAL CHARGES
--------------------------------
  0 Cus       :     6.611850  s :     6.611850
      pz      :     4.103996  p :    12.104851
      px      :     4.000428
      py      :     4.000428
      dz2     :     1.946036  d :     9.943480
      dxz     :     1.998764
      dyz     :     1.998764
      dx2y2   :     1.999958
      dxy     :     1.999958
      f0      :     0.000281  f :     0.000465
      f+1     :     0.000049
      f-1     :     0.000049
      f+2     :     0.000043
      f-2     :     0.000043
      f+3     :     0.000000
      f-3     :     0.000000
      g0      :     0.000002  g :     0.000002
      g+1     :     0.000000
      g-1     :     0.000000
      g+2     :     0.000000
      g-2     :     0.000000
      g+3     :     0.000000
      g-3     :     0.000000
      g+4     :     0.000000
      g-4     :     0.000000
  1 H s       :     1.329837  s :     1.329837
      pz      :     0.007601  p :     0.008280
      px      :     0.000340
      py      :     0.000340
      dz2     :     0.000396  d :     0.001234
      dxz     :     0.000420
      dyz     :     0.000420
      dx2y2   :    -0.000001
      dxy     :    -0.000001


                     *******************************
                     * LOEWDIN POPULATION ANALYSIS *
                     *******************************

----------------------
LOEWDIN ATOMIC CHARGES
----------------------
   0 Cu:    0.247644
   1 H :   -0.247644

-------------------------------
LOEWDIN REDUCED ORBITAL CHARGES
-------------------------------
  0 Cus       :     6.655263  s :     6.655263
      pz      :     4.165637  p :    12.166590
      px      :     4.000476
      py      :     4.000476
      dz2     :     1.961278  d :     9.929394
      dxz     :     1.984330
      dyz     :     1.984330
      dx2y2   :     1.999728
      dxy     :     1.999728
      f0      :     0.000781  f :     0.001106
      f+1     :     0.000118
      f-1     :     0.000118
      f+2     :     0.000044
      f-2     :     0.000044
      f+3     :     0.000000
      f-3     :     0.000000
      g0      :     0.000003  g :     0.000003
      g+1     :     0.000000
      g-1     :     0.000000
      g+2     :     0.000000
      g-2     :     0.000000
      g+3     :     0.000000
      g-3     :     0.000000
      g+4     :     0.000000
      g-4     :     0.000000
  1 H s       :     1.173594  s :     1.173594
      pz      :     0.033544  p :     0.055159
      px      :     0.010808
      py      :     0.010808
      dz2     :     0.009901  d :     0.018892
      dxz     :     0.004268
      dyz     :     0.004268
      dx2y2   :     0.000228
      dxy     :     0.000228


                      *****************************
                      * MAYER POPULATION ANALYSIS *
                      *****************************

  NA   - Mulliken gross atomic population
  ZA   - Total nuclear charge
  QA   - Mulliken gross atomic charge
  VA   - Mayer's total valence
  BVA  - Mayer's bonded valence
  FA   - Mayer's free valence

  ATOM       NA         ZA         QA         VA         BVA        FA
  0 Cu    28.6606    29.0000     0.3394     0.9355     0.9355    -0.0000
  1 H      1.3394     1.0000    -0.3394     0.9355     0.9355    -0.0000

  Mayer bond orders larger than 0.100000
B(  0-Cu,  1-H ) :   0.9355 

-------
TIMINGS
-------

Total SCF time: 0 days 0 hours 0 min 3 sec 

Total time                  ....       3.324 sec
Sum of individual times     ....       3.089 sec  ( 92.9%)

Fock matrix formation       ....       2.918 sec  ( 87.8%)
Diagonalization             ....       0.021 sec  (  0.6%)
Density matrix formation    ....       0.004 sec  (  0.1%)
Population analysis         ....       0.002 sec  (  0.1%)
Initial guess               ....       0.108 sec  (  3.2%)
Orbital Transformation      ....       0.000 sec  (  0.0%)
Orbital Orthonormalization  ....       0.000 sec  (  0.0%)
DIIS solution               ....       0.017 sec  (  0.5%)


           ************************************************************
           *        Program running with 24 parallel MPI-processes    *
           *              working on a common directory               *
           ************************************************************


------------------------------------------------------------------------------- 
                              ORCA-MATRIX DRIVEN CI                            
------------------------------------------------------------------------------- 

--------------------------------
AUTOMATIC CHOICE OF INCORE LEVEL
--------------------------------

Memory available                           ...   2500.00 MB
Memory needed for S+T                      ...      5.00 MB
Memory needed for J+K                      ...     10.05 MB
Memory needed for DIIS                     ...     69.95 MB
Memory needed for 3-ext                    ...     19.08 MB
Memory needed for 4-ext                    ...     61.05 MB
Memory needed for triples                  ...      9.54 MB
 -> Final InCoreLevel    ... 5
 -> check shows that triples correction can be computed


Wavefunction type
-----------------
Correlation treatment                      ...      CCSD     
Single excitations                         ... ON
Orbital optimization                       ... OFF
Calculation of Z vector                    ... OFF
Calculation of Brueckner orbitals          ... OFF
Perturbative triple excitations            ... ON
Calculation of F12 correction              ... OFF
Frozen core treatment                      ... chemical core (10 el)
Reference Wavefunction                     ... RHF
  Internal Orbitals:     5 ...   14 ( 10 MO's/ 20 electrons)
  Virtual  Orbitals:    15 ...   77 ( 63 MO's              )
Number of AO's                             ...     78
Number of electrons                        ...     30
Number of correlated electrons             ...     20

Algorithmic settings
--------------------
Integral transformation                    ... AO direct full transformation
K(C) Formation                             ... FULL-MO TRAFO
Maximum number of iterations               ...        50
Convergence tolerance (max. residuum)      ... 1.000e-06
Level shift for amplitude update           ... 2.000e-01
Maximum number of DIIS vectors             ...         7
DIIS turned on at iteration                ...         0
Damping before turning on DIIS             ...     0.500
Damping after turning on DIIS              ...     0.000
Pair specific amplitude update             ... OFF
Natural orbital iterations                 ... OFF
Perturbative natural orbital generation    ... OFF
Printlevel                                 ... 2

Memory handling:
----------------
Maximum memory for working arrays          ...   2500 MB
Data storage in matrix containers          ... UNCOMPRESSED
Data type for integral storage             ... DOUBLE
In-Core Storage of quantities:
   Amplitudes+Sigma Vector      ... YES
   J+K operators                ... YES
   DIIS vectors                 ... YES
   3-external integrals         ... YES
   4-external integrals         ... YES


Initializing the integral package          ... done
Warning: reference  - re-canonicalizations have been set to INT 1 VIRT 1

--------------------------
CLOSED-SHELL FOCK OPERATOR
--------------------------

<ss|ss>:         1035 b            0 skpd (  0.0%)    0.000 s ( 0.000 ms/b)
<ss|sp>:         2835 b            0 skpd (  0.0%)    0.001 s ( 0.000 ms/b)
<ss|sd>:         2025 b            0 skpd (  0.0%)    0.001 s ( 0.000 ms/b)
<ss|sf>:          810 b            0 skpd (  0.0%)    0.000 s ( 0.000 ms/b)
<ss|sg>:          405 b            0 skpd (  0.0%)    0.001 s ( 0.001 ms/b)
<ss|pp>:         1260 b            0 skpd (  0.0%)    0.001 s ( 0.001 ms/b)
<ss|pd>:         1575 b            0 skpd (  0.0%)    0.001 s ( 0.001 ms/b)
<ss|pf>:          630 b            0 skpd (  0.0%)    0.000 s ( 0.000 ms/b)
<ss|pg>:          315 b            0 skpd (  0.0%)    0.000 s ( 0.001 ms/b)
<ss|dd>:          675 b            0 skpd (  0.0%)    0.001 s ( 0.001 ms/b)
<ss|df>:          450 b            0 skpd (  0.0%)    0.000 s ( 0.001 ms/b)
<ss|dg>:          225 b            0 skpd (  0.0%)    0.001 s ( 0.002 ms/b)
<ss|ff>:          135 b            0 skpd (  0.0%)    0.000 s ( 0.001 ms/b)
<ss|fg>:           90 b            0 skpd (  0.0%)    0.000 s ( 0.003 ms/b)
<ss|gg>:           45 b            0 skpd (  0.0%)    0.000 s ( 0.008 ms/b)
<sp|sp>:         2016 b            0 skpd (  0.0%)    0.001 s ( 0.001 ms/b)
<sp|sd>:         2835 b            0 skpd (  0.0%)    0.001 s ( 0.000 ms/b)
<sp|sf>:         1134 b            0 skpd (  0.0%)    0.001 s ( 0.001 ms/b)
<sp|sg>:          567 b            0 skpd (  0.0%)    0.001 s ( 0.002 ms/b)
<sp|pp>:         1764 b            0 skpd (  0.0%)    0.002 s ( 0.001 ms/b)
<sp|pd>:         2205 b            0 skpd (  0.0%)    0.002 s ( 0.001 ms/b)
<sp|pf>:          882 b            0 skpd (  0.0%)    0.001 s ( 0.001 ms/b)
<sp|pg>:          441 b            0 skpd (  0.0%)    0.001 s ( 0.002 ms/b)
<sp|dd>:          945 b            0 skpd (  0.0%)    0.002 s ( 0.002 ms/b)
<sp|df>:          630 b            0 skpd (  0.0%)    0.001 s ( 0.001 ms/b)
<sp|dg>:          315 b            0 skpd (  0.0%)    0.001 s ( 0.004 ms/b)
<sp|ff>:          189 b            0 skpd (  0.0%)    0.001 s ( 0.003 ms/b)
<sp|fg>:          126 b            0 skpd (  0.0%)    0.001 s ( 0.006 ms/b)
<sp|gg>:           63 b            0 skpd (  0.0%)    0.001 s ( 0.016 ms/b)
<sd|sd>:         1035 b            0 skpd (  0.0%)    0.001 s ( 0.001 ms/b)
<sd|sf>:          810 b            0 skpd (  0.0%)    0.001 s ( 0.001 ms/b)
<sd|sg>:          405 b            0 skpd (  0.0%)    0.001 s ( 0.004 ms/b)
<sd|pp>:         1260 b            0 skpd (  0.0%)    0.002 s ( 0.002 ms/b)
<sd|pd>:         1575 b            0 skpd (  0.0%)    0.002 s ( 0.001 ms/b)
<sd|pf>:          630 b            0 skpd (  0.0%)    0.001 s ( 0.001 ms/b)
<sd|pg>:          315 b            0 skpd (  0.0%)    0.002 s ( 0.005 ms/b)
<sd|dd>:          675 b            0 skpd (  0.0%)    0.003 s ( 0.004 ms/b)
<sd|df>:          450 b            0 skpd (  0.0%)    0.001 s ( 0.003 ms/b)
<sd|dg>:          225 b            0 skpd (  0.0%)    0.002 s ( 0.009 ms/b)
<sd|ff>:          135 b            0 skpd (  0.0%)    0.001 s ( 0.006 ms/b)
<sd|fg>:           90 b            0 skpd (  0.0%)    0.001 s ( 0.013 ms/b)
<sd|gg>:           45 b            0 skpd (  0.0%)    0.002 s ( 0.037 ms/b)
<sf|sf>:          171 b            0 skpd (  0.0%)    0.000 s ( 0.001 ms/b)
<sf|sg>:          162 b            0 skpd (  0.0%)    0.001 s ( 0.005 ms/b)
<sf|pp>:          504 b            0 skpd (  0.0%)    0.001 s ( 0.002 ms/b)
<sf|pd>:          630 b            0 skpd (  0.0%)    0.001 s ( 0.002 ms/b)
<sf|pf>:          252 b            0 skpd (  0.0%)    0.001 s ( 0.002 ms/b)
<sf|pg>:          126 b            0 skpd (  0.0%)    0.001 s ( 0.008 ms/b)
<sf|dd>:          270 b            0 skpd (  0.0%)    0.002 s ( 0.006 ms/b)
<sf|df>:          180 b            0 skpd (  0.0%)    0.001 s ( 0.005 ms/b)
<sf|dg>:           90 b            0 skpd (  0.0%)    0.001 s ( 0.014 ms/b)
<sf|ff>:           54 b            0 skpd (  0.0%)    0.001 s ( 0.010 ms/b)
<sf|fg>:           36 b            0 skpd (  0.0%)    0.001 s ( 0.021 ms/b)
<sf|gg>:           18 b            0 skpd (  0.0%)    0.001 s ( 0.059 ms/b)
<sg|sg>:           45 b            0 skpd (  0.0%)    0.000 s ( 0.007 ms/b)
<sg|pp>:          252 b            0 skpd (  0.0%)    0.001 s ( 0.005 ms/b)
<sg|pd>:          315 b            0 skpd (  0.0%)    0.001 s ( 0.004 ms/b)
<sg|pf>:          126 b            0 skpd (  0.0%)    0.001 s ( 0.004 ms/b)
<sg|pg>:           63 b            0 skpd (  0.0%)    0.001 s ( 0.016 ms/b)
<sg|dd>:          135 b            0 skpd (  0.0%)    0.001 s ( 0.011 ms/b)
<sg|df>:           90 b            0 skpd (  0.0%)    0.001 s ( 0.009 ms/b)
<sg|dg>:           45 b            0 skpd (  0.0%)    0.001 s ( 0.029 ms/b)
<sg|ff>:           27 b            0 skpd (  0.0%)    0.000 s ( 0.017 ms/b)
<sg|fg>:           18 b            0 skpd (  0.0%)    0.001 s ( 0.040 ms/b)
<sg|gg>:            9 b            0 skpd (  0.0%)    0.001 s ( 0.117 ms/b)
<pp|pp>:          406 b            0 skpd (  0.0%)    0.001 s ( 0.003 ms/b)
<pp|pd>:          980 b            0 skpd (  0.0%)    0.002 s ( 0.002 ms/b)
<pp|pf>:          392 b            0 skpd (  0.0%)    0.001 s ( 0.002 ms/b)
<pp|pg>:          196 b            0 skpd (  0.0%)    0.001 s ( 0.006 ms/b)
<pp|dd>:          420 b            0 skpd (  0.0%)    0.002 s ( 0.005 ms/b)
<pp|df>:          280 b            0 skpd (  0.0%)    0.001 s ( 0.004 ms/b)
<pp|dg>:          140 b            0 skpd (  0.0%)    0.002 s ( 0.011 ms/b)
<pp|ff>:           84 b            0 skpd (  0.0%)    0.001 s ( 0.008 ms/b)
<pp|fg>:           56 b            0 skpd (  0.0%)    0.001 s ( 0.018 ms/b)
<pp|gg>:           28 b            0 skpd (  0.0%)    0.001 s ( 0.050 ms/b)
<pd|pd>:          630 b            0 skpd (  0.0%)    0.003 s ( 0.005 ms/b)
<pd|pf>:          490 b            0 skpd (  0.0%)    0.002 s ( 0.003 ms/b)
<pd|pg>:          245 b            0 skpd (  0.0%)    0.003 s ( 0.011 ms/b)
<pd|dd>:          525 b            0 skpd (  0.0%)    0.004 s ( 0.008 ms/b)
<pd|df>:          350 b            0 skpd (  0.0%)    0.002 s ( 0.007 ms/b)
<pd|dg>:          175 b            0 skpd (  0.0%)    0.004 s ( 0.020 ms/b)
<pd|ff>:          105 b            0 skpd (  0.0%)    0.002 s ( 0.015 ms/b)
<pd|fg>:           70 b            0 skpd (  0.0%)    0.002 s ( 0.033 ms/b)
<pd|gg>:           35 b            0 skpd (  0.0%)    0.003 s ( 0.092 ms/b)
<pf|pf>:          105 b            0 skpd (  0.0%)    0.001 s ( 0.005 ms/b)
<pf|pg>:           98 b            0 skpd (  0.0%)    0.001 s ( 0.015 ms/b)
<pf|dd>:          210 b            0 skpd (  0.0%)    0.002 s ( 0.010 ms/b)
<pf|df>:          140 b            0 skpd (  0.0%)    0.001 s ( 0.009 ms/b)
<pf|dg>:           70 b            0 skpd (  0.0%)    0.002 s ( 0.028 ms/b)
<pf|ff>:           42 b            0 skpd (  0.0%)    0.001 s ( 0.024 ms/b)
<pf|fg>:           28 b            0 skpd (  0.0%)    0.001 s ( 0.049 ms/b)
<pf|gg>:           14 b            0 skpd (  0.0%)    0.002 s ( 0.132 ms/b)
<pg|pg>:           28 b            0 skpd (  0.0%)    0.001 s ( 0.028 ms/b)
<pg|dd>:          105 b            0 skpd (  0.0%)    0.002 s ( 0.020 ms/b)
<pg|df>:           70 b            0 skpd (  0.0%)    0.001 s ( 0.016 ms/b)
<pg|dg>:           35 b            0 skpd (  0.0%)    0.002 s ( 0.053 ms/b)
<pg|ff>:           21 b            0 skpd (  0.0%)    0.001 s ( 0.034 ms/b)
<pg|fg>:           14 b            0 skpd (  0.0%)    0.001 s ( 0.085 ms/b)
<pg|gg>:            7 b            0 skpd (  0.0%)    0.002 s ( 0.226 ms/b)
<dd|dd>:          120 b            0 skpd (  0.0%)    0.003 s ( 0.026 ms/b)
<dd|df>:          150 b            0 skpd (  0.0%)    0.002 s ( 0.012 ms/b)
<dd|dg>:           75 b            0 skpd (  0.0%)    0.003 s ( 0.039 ms/b)
<dd|ff>:           45 b            0 skpd (  0.0%)    0.001 s ( 0.028 ms/b)
<dd|fg>:           30 b            0 skpd (  0.0%)    0.002 s ( 0.063 ms/b)
<dd|gg>:           15 b            0 skpd (  0.0%)    0.003 s ( 0.179 ms/b)
<df|df>:           55 b            0 skpd (  0.0%)    0.002 s ( 0.028 ms/b)
<df|dg>:           50 b            0 skpd (  0.0%)    0.002 s ( 0.047 ms/b)
<df|ff>:           30 b            0 skpd (  0.0%)    0.001 s ( 0.043 ms/b)
<df|fg>:           20 b            0 skpd (  0.0%)    0.002 s ( 0.088 ms/b)
<df|gg>:           10 b            0 skpd (  0.0%)    0.002 s ( 0.244 ms/b)
<dg|dg>:           15 b            0 skpd (  0.0%)    0.002 s ( 0.132 ms/b)
<dg|ff>:           15 b            0 skpd (  0.0%)    0.001 s ( 0.058 ms/b)
<dg|fg>:           10 b            0 skpd (  0.0%)    0.001 s ( 0.140 ms/b)
<dg|gg>:            5 b            0 skpd (  0.0%)    0.002 s ( 0.389 ms/b)
<ff|ff>:            6 b            0 skpd (  0.0%)    0.000 s ( 0.081 ms/b)
<ff|fg>:            6 b            0 skpd (  0.0%)    0.001 s ( 0.139 ms/b)
<ff|gg>:            3 b            0 skpd (  0.0%)    0.001 s ( 0.423 ms/b)
<fg|fg>:            3 b            0 skpd (  0.0%)    0.001 s ( 0.274 ms/b)
<fg|gg>:            2 b            0 skpd (  0.0%)    0.002 s ( 0.845 ms/b)
<gg|gg>:            1 b            0 skpd (  0.0%)    0.001 s ( 1.130 ms/b)
Recanonicalizing the internal orbitals
Recanonicalizing the virtual orbitals
Time needed for Fock operator              ...            0.166 sec
Reference energy                           ...  -1639.472760749

------------------------------
PARTIAL COULOMB TRANSFORMATION
------------------------------

Transformation type                        ... one-operator
Dimension of the basis                     ...   78
Number of internal MOs                     ...   73 (5-77)
Pair cutoff                                ... 0.000e+00 Eh
Number of AO pairs included in the trafo   ... 3081
Total Number of distinct AO pairs          ... 3081
Memory devoted for trafo                   ... 2500.0 MB 
Max. Number of MO pairs treated together   ... 106355      
Max. Number of MOs treated per batch       ... 1363      
Number Format for Storage                  ... Double (8 Byte)
AO-integral source                         ... DIRECT
Integral package used                      ... LIBINT

Starting integral evaluation:
<ss|**>:        13500 b        0 skpd     0.007 s (  0.001 ms/b)
<sp|**>:        18900 b        0 skpd     0.011 s (  0.001 ms/b)
<sd|**>:        13500 b        0 skpd     0.014 s (  0.001 ms/b)
<sf|**>:         5400 b        0 skpd     0.007 s (  0.001 ms/b)
<sg|**>:         2700 b        0 skpd     0.013 s (  0.005 ms/b)
<pp|**>:         8400 b        0 skpd     0.019 s (  0.002 ms/b)
<pd|**>:        10500 b        0 skpd     0.024 s (  0.002 ms/b)
<pf|**>:         4200 b        0 skpd     0.011 s (  0.003 ms/b)
<pg|**>:         2100 b        0 skpd     0.020 s (  0.009 ms/b)
<dd|**>:         4500 b        0 skpd     0.029 s (  0.006 ms/b)
<df|**>:         3000 b        0 skpd     0.017 s (  0.006 ms/b)
<dg|**>:         1500 b        0 skpd     0.026 s (  0.017 ms/b)
<ff|**>:          900 b        0 skpd     0.012 s (  0.013 ms/b)
<fg|**>:          600 b        0 skpd     0.018 s (  0.030 ms/b)
<gg|**>:          300 b        0 skpd     0.025 s (  0.082 ms/b)
Closing buffer AOJ ( 0.00 GB; CompressionRatio= 1.00)
Collecting buffer AOJ 
    ... done with AO integral generation
Number of MO pairs included in the trafo   ... 2701
    ... Now sorting integrals
IBATCH = 1 of  1
Closing buffer JAO ( 0.00 GB; CompressionRatio= 1.00)
Collecting buffer JAO 
TOTAL TIME for half transformation         ...     0.305 sec
AO-integral generation                     ...     0.247 sec
Half transformation                        ...     0.009 sec
J-integral sorting                         ...     0.032 sec

-------------------------- SECOND HALF TRANSFORMATION -------------------------
Formation of (pq|rs)                       ... ok (     0.024 sec)
Integral sorting                           ... ok (     0.203 sec)

------------------
CLOSED SHELL GUESS
------------------

Initial guess performed in     0.005 sec
E(0)                                       ...  -1639.472760749
E(MP2)                                     ...     -0.877415768
Initial E(tot)                             ...  -1640.350176517
<T|T>                                      ...      0.138254100
Number of pairs included                   ... 55
Total number of pairs                      ... 55

------------------------------------------------
                  RHF COUPLED CLUSTER ITERATIONS
------------------------------------------------

Number of amplitudes to be optimized       ... 218925

Iter       E(tot)           E(Corr)          Delta-E          Residual     Time
  0  -1640.350176517     -0.877415768      0.000000000      0.044802952    0.07
                           *** Turning on DIIS ***
  1  -1640.183864152     -0.711103403      0.166312366      0.025021913    0.21
  2  -1640.239640645     -0.766879896     -0.055776494      0.007334595    0.22
  3  -1640.238433521     -0.765672772      0.001207125      0.004458811    0.21
  4  -1640.239869052     -0.767108303     -0.001435531      0.003973237    0.22
  5  -1640.240975284     -0.768214535     -0.001106233      0.002937369    0.23
  6  -1640.241565670     -0.768804921     -0.000590385      0.002037880    0.22
  7  -1640.241871278     -0.769110529     -0.000305608      0.001445572    0.22
  8  -1640.242038322     -0.769277573     -0.000167044      0.001110346    0.22
  9  -1640.242113859     -0.769353110     -0.000075537      0.000448910    0.22
 10  -1640.242120951     -0.769360203     -0.000007093      0.000237958    0.23
 11  -1640.242137448     -0.769376699     -0.000016496      0.000083160    0.23
 12  -1640.242123831     -0.769363082      0.000013617      0.000034642    0.22
 13  -1640.242127791     -0.769367042     -0.000003960      0.000013257    0.22
 14  -1640.242122144     -0.769361395      0.000005646      0.000006591    0.23
 15  -1640.242123063     -0.769362314     -0.000000919      0.000004708    0.23
 16  -1640.242122092     -0.769361343      0.000000971      0.000002873    0.22
 17  -1640.242122371     -0.769361622     -0.000000280      0.000001392    0.22
 18  -1640.242122182     -0.769361433      0.000000190      0.000000606    0.22
               --- The Coupled-Cluster iterations have converged ---

----------------------
COUPLED CLUSTER ENERGY
----------------------

E(0)                                       ...  -1639.472760749
E(CORR)                                    ...     -0.769361433
E(TOT)                                     ...  -1640.242122182
Singles Norm <S|S>**1/2                    ...      0.149546980  
T1 diagnostic                              ...      0.033439721  

------------------
LARGEST AMPLITUDES
------------------
  14-> 15  -1-> -1       0.094225
  14-> 18  -1-> -1       0.057882
   9-> 15  -1-> -1       0.053539
  14-> 15  14-> 15       0.051294
  14-> 16  14-> 16       0.038579
  14-> 17  14-> 17       0.038579
  14-> 19  -1-> -1       0.031286
   9-> 19  -1-> -1       0.031254
  14-> 25  14-> 25       0.030894
  14-> 15  14-> 25       0.030017
  14-> 25  14-> 15       0.030017
  14-> 15  14-> 19       0.027619
  14-> 19  14-> 15       0.027619
  11-> 20  -1-> -1       0.027405
  10-> 21  -1-> -1       0.027405
  12-> 22  -1-> -1       0.026223


        !!!!!!!!!!!!!!!!!!!!!!!!!!!!!!!!!!!!!!!!!!!!!!!!!!!!!!!!!!!!!!!!!!!!!!!!!! 
        !  Warning: Densities are linearized densities !                         !
        !!!!!!!!!!!!!!!!!!!!!!!!!!!!!!!!!!!!!!!!!!!!!!!!!!!!!!!!!!!!!!!!!!!!!!!!!! 

Trace of internal density part =     -0.278917476
Trace of external density part =      0.278917476
----------------------
RHF TRIPLES CORRECTION (Algorithm 1)
----------------------

Multiplier for the singles contribution    ...      1.000000000

10% done
20% done
30% done
40% done
50% done
60% done
70% done
80% done

Triples Correction (T)                     ...     -0.023481365
Scaling of triples based on CCSD energies (Peterson et al. Molecular Physics 113, 1551 (2015))
E(T*) = f*E(T) where f = E(F12-CCSD)/E(CCSD) 
f = CCSD (with F12)/ CCSD (without F12)    ...      1.000000000
Scaled triples correction (T)              ...     -0.023481365

Final correlation energy                   ...     -0.792842798
E(CCSD)                                    ...  -1640.242122182
E(CCSD(T))                                 ...  -1640.265603547

NORM  =      1.161823038 sqrt=     1.077878953
W(HF) =      0.860716277
------------------------------------------------------------------------------
                           ORCA POPULATION ANALYSIS
------------------------------------------------------------------------------
Input electron density              ... 49_CuH.mdcip
BaseName (.gbw .S,...)              ... 49_CuH

                    ********************************
                    * MULLIKEN POPULATION ANALYSIS *
                    ********************************

-----------------------
MULLIKEN ATOMIC CHARGES
-----------------------
   0 Cu:    0.193636
   1 H :   -0.193636
Sum of atomic charges:   -0.0000000

--------------------------------
MULLIKEN REDUCED ORBITAL CHARGES
--------------------------------
  0 Cus       :     6.852944  s :     6.852944
      pz      :     4.076062  p :    12.097541
      px      :     4.010739
      py      :     4.010739
      dz2     :     1.861259  d :     9.821596
      dxz     :     1.988882
      dyz     :     1.988882
      dx2y2   :     1.991287
      dxy     :     1.991287
      f0      :     0.004587  f :     0.031201
      f+1     :     0.004430
      f-1     :     0.004430
      f+2     :     0.004457
      f-2     :     0.004457
      f+3     :     0.004420
      f-3     :     0.004420
      g0      :     0.000345  g :     0.003081
      g+1     :     0.000343
      g-1     :     0.000343
      g+2     :     0.000343
      g-2     :     0.000343
      g+3     :     0.000342
      g-3     :     0.000342
      g+4     :     0.000340
      g-4     :     0.000340
  1 H s       :     1.162279  s :     1.162279
      pz      :     0.015550  p :     0.028749
      px      :     0.006599
      py      :     0.006599
      dz2     :     0.000967  d :     0.002608
      dxz     :     0.000740
      dyz     :     0.000740
      dx2y2   :     0.000080
      dxy     :     0.000080


                     *******************************
                     * LOEWDIN POPULATION ANALYSIS *
                     *******************************

----------------------
LOEWDIN ATOMIC CHARGES
----------------------
   0 Cu:    0.204443
   1 H :   -0.204443

-------------------------------
LOEWDIN REDUCED ORBITAL CHARGES
-------------------------------
  0 Cus       :     6.818114  s :     6.818114
      pz      :     4.109194  p :    12.130703
      px      :     4.010754
      py      :     4.010754
      dz2     :     1.883830  d :     9.811683
      dxz     :     1.972918
      dyz     :     1.972918
      dx2y2   :     1.991009
      dxy     :     1.991009
      f0      :     0.005217  f :     0.031975
      f+1     :     0.004501
      f-1     :     0.004501
      f+2     :     0.004457
      f-2     :     0.004457
      f+3     :     0.004420
      f-3     :     0.004420
      g0      :     0.000347  g :     0.003083
      g+1     :     0.000343
      g-1     :     0.000343
      g+2     :     0.000343
      g-2     :     0.000343
      g+3     :     0.000342
      g-3     :     0.000342
      g+4     :     0.000340
      g-4     :     0.000340
  1 H s       :     1.106293  s :     1.106293
      pz      :     0.041579  p :     0.078527
      px      :     0.018474
      py      :     0.018474
      dz2     :     0.009419  d :     0.019623
      dxz     :     0.004744
      dyz     :     0.004744
      dx2y2   :     0.000358
      dxy     :     0.000358


                      *****************************
                      * MAYER POPULATION ANALYSIS *
                      *****************************

  NA   - Mulliken gross atomic population
  ZA   - Total nuclear charge
  QA   - Mulliken gross atomic charge
  VA   - Mayer's total valence
  BVA  - Mayer's bonded valence
  FA   - Mayer's free valence

  ATOM       NA         ZA         QA         VA         BVA        FA
  0 Cu    28.8064    29.0000     0.1936     1.7382     0.9397     0.7985
  1 H      1.1936     1.0000    -0.1936     1.0784     0.9397     0.1387

  Mayer bond orders larger than 0.100000
B(  0-Cu,  1-H ) :   0.9397 



------------------------------------------------------------------------------- 
                                     TIMINGS                                   
------------------------------------------------------------------------------- 


Total execution time                   ...        5.151 sec

Fock Matrix Formation                  ...        0.166 sec (  3.2%)
Initial Guess                          ...        0.005 sec (  0.1%)
DIIS Solver                            ...        0.296 sec (  5.8%)
State Vector Update                    ...        0.012 sec (  0.2%)
Sigma-vector construction              ...        3.753 sec ( 72.9%)
  <0|H|D>                              ...        0.001 sec (  0.0% of sigma)
  <D|H|D>(0-ext)                       ...        0.027 sec (  0.7% of sigma)
  <D|H|D>(2-ext Fock)                  ...        0.002 sec (  0.0% of sigma)
  <D|H|D>(2-ext)                       ...        0.051 sec (  1.4% of sigma)
  <D|H|D>(4-ext)                       ...        0.256 sec (  6.8% of sigma)
  <D|H|D>(4-ext-corr)                  ...        0.158 sec (  4.2% of sigma)
  <S|H|0>                              ...        0.004 sec (  0.1% of sigma)
  <S|H|S>                              ...        0.005 sec (  0.1% of sigma)
  <S|H|D>(1-ext)                       ...        0.015 sec (  0.4% of sigma)
  <D|H|S>(1-ext)                       ...        0.014 sec (  0.4% of sigma)
  <S|H|D>(3-ext)                       ...        0.220 sec (  5.9% of sigma)
  Fock-dressing                        ...        2.351 sec ( 62.6% of sigma)
  (ik|jl)-dressing                     ...        0.033 sec (  0.9% of sigma)
  (ij|ab),(ia|jb)-dressing             ...        0.482 sec ( 12.8% of sigma)
  Pair energies                        ...        0.002 sec (  0.1% of sigma)
Total Time for computing (T)           ...        0.139 sec (  2.7% of ALL)
  I/O of integral and amplitudes       ...        0.052 sec ( 37.3% of (T))
  N**6 sorting step                    ...        0.030 sec ( 21.3% of (T))
  External N**7 contributions          ...        0.031 sec ( 22.3% of (T))
  Internal N**7 contributions          ...        0.012 sec (  8.5% of (T))
  N**6 triples energy contributions    ...        0.015 sec ( 10.5% of (T))

----- Orbital basis set information -----
Your calculation utilizes the basis: def2-QZVPP
   F. Weigend and R. Ahlrichs, Phys. Chem. Chem. Phys. 7, 3297 (2005).

----- AuxJ basis set information -----
Your calculation utilizes the auxiliary basis: def2/J
   F. Weigend, Phys. Chem. Chem. Phys. 8, 1057 (2006).

----- AuxC basis set information -----
Your calculation utilizes the auxiliary basis: def2-QZVPP/C
  H-La, Hf-Rn : A. Hellweg, C. Hattig, S. Hofener and W. Klopper, Theor. Chem. Acc. 117, 587 (2007).
        Ce-Lu : J. Chmela and M. E. Harding, Mol. Phys. (2018).

----- AuxJK basis set information -----
Your calculation utilizes the auxiliary basis: def2/JK
   H-Ba, Hf-Rn: F. Weigend, J. Comput. Chem. 29, 167 (2008).

All done

                     -----------------------------------------
                     Extrapolated Energy 2 Basis=  def2-QZVPP
                     -----------------------------------------

---------------------------------
CARTESIAN COORDINATES (ANGSTROEM)
---------------------------------
  Cu     0.000000    0.000000    0.261888
  H      0.000000    0.000000    1.738112

----------------------------
CARTESIAN COORDINATES (A.U.)
----------------------------
  NO LB      ZA    FRAG     MASS         X           Y           Z
   0 Cu   29.0000    0    63.550    0.000000    0.000000    0.494896
   1 H     1.0000    0     1.008    0.000000    0.000000    3.284556

--------------------------------
INTERNAL COORDINATES (ANGSTROEM)
--------------------------------
 Cu     0   0   0     0.000000000000     0.00000000     0.00000000
 H      1   0   0     1.476224352791     0.00000000     0.00000000

---------------------------
INTERNAL COORDINATES (A.U.)
---------------------------
 Cu     0   0   0     0.000000000000     0.00000000     0.00000000
 H      1   0   0     2.789659738999     0.00000000     0.00000000

---------------------
BASIS SET INFORMATION
---------------------
There are 2 groups of distinct atoms

 Group   1 Type Cu  : 24s18p10d4f2g contracted to 11s6p5d4f2g pattern {114111111111/951111/61111/1111/11}
 Group   2 Type H   : 7s3p2d1f contracted to 4s3p2d1f pattern {4111/111/11/1}

Atom   0Cu   basis set group =>   1
Atom   1H    basis set group =>   2
---------------------------------
AUXILIARY/J BASIS SET INFORMATION
---------------------------------
There are 2 groups of distinct atoms

 Group   1 Type Cu  : 19s5p5d3f3g contracted to 8s5p4d3f3g pattern {121111111/11111/2111/111/111}
 Group   2 Type H   : 5s2p1d contracted to 3s1p1d pattern {311/2/1}

Atom   0Cu   basis set group =>   1
Atom   1H    basis set group =>   2
---------------------------------
AUXILIARY/C BASIS SET INFORMATION
---------------------------------
There are 2 groups of distinct atoms

 Group   1 Type Cu  : 15s13p11d9f7g5h2i contracted to 15s13p11d9f7g5h2i pattern {111111111111111/1111111111111/11111111111/111111111/1111111/11111/11}
 Group   2 Type H   : 6s4p3d2f1g contracted to 6s4p3d2f1g pattern {111111/1111/111/11/1}

Atom   0Cu   basis set group =>   1
Atom   1H    basis set group =>   2
----------------------------------
AUXILIARY/JK BASIS SET INFORMATION
----------------------------------
There are 2 groups of distinct atoms

 Group   1 Type Cu  : 19s14p12d10f7g3h1i contracted to 16s13p11d9f5g3h1i pattern {4111111111111111/2111111111111/21111111111/211111111/31111/111/1}
 Group   2 Type H   : 4s2p2d contracted to 2s2p2d pattern {31/11/11}

Atom   0Cu   basis set group =>   1
Atom   1H    basis set group =>   2

Checking for AutoStart:
The File: 49_CuH.gbw exists
Trying to determine its content:
     ... Fine, the file contains calculation information
     ... Fine, the calculation information was read
     ... Fine, the file contains a basis set
     ... Fine, the basis set was read
     ... Fine, the file contains a geometry
     ... Fine, the geometry was read
     ... Fine, the file contains a set of orbitals
     ... Fine, the orbitals can be read
     => possible old guess file was deleted
     => GBW file was renamed to GES file
     => GES file is set as startup file
     => Guess is set to MORead
     ... now leaving AutoStart



           ************************************************************
           *        Program running with 24 parallel MPI-processes    *
           *              working on a common directory               *
           ************************************************************
------------------------------------------------------------------------------
                           ORCA GTO INTEGRAL CALCULATION
------------------------------------------------------------------------------

                         BASIS SET STATISTICS AND STARTUP INFO

 # of primitive gaussian shells          ...   71
 # of primitive gaussian functions       ...  207
 # of contracted shells                  ...   38
 # of contracted basis functions         ...  130
 Highest angular momentum                ...    4
 Maximum contraction depth               ...   11
 Integral package used                   ... LIBINT
 Integral threshhold            Thresh   ...  1.000e-12
 Primitive cut-off              TCut     ...  1.000e-14


------------------------------ INTEGRAL EVALUATION ----------------------------


 * One electron integrals 
 Pre-screening matrix                    ... done
 Shell pair data                         ... done (   0.000 sec)



           ************************************************************
           *        Program running with 24 parallel MPI-processes    *
           *              working on a common directory               *
           ************************************************************
-------------------------------------------------------------------------------
                                 ORCA SCF
-------------------------------------------------------------------------------

------------
SCF SETTINGS
------------
Hamiltonian:
 Ab initio Hamiltonian  Method          .... Hartree-Fock(GTOs)


General Settings:
 Integral files         IntName         .... 49_CuH
 Hartree-Fock type      HFTyp           .... RHF
 Total Charge           Charge          ....    0
 Multiplicity           Mult            ....    1
 Number of Electrons    NEL             ....   30
 Basis Dimension        Dim             ....  130
 Nuclear Repulsion      ENuc            ....     10.3955330446 Eh

Convergence Acceleration:
 DIIS                   CNVDIIS         .... on
   Start iteration      DIISMaxIt       ....    12
   Startup error        DIISStart       ....  0.200000
   # of expansion vecs  DIISMaxEq       ....     5
   Bias factor          DIISBfac        ....   1.050
   Max. coefficient     DIISMaxC        ....  10.000
 Newton-Raphson         CNVNR           .... off
 SOSCF                  CNVSOSCF        .... off
 Level Shifting         CNVShift        .... on
   Level shift para.    LevelShift      ....    0.2500
   Turn off err/grad.   ShiftErr        ....    0.0010
 Zerner damping         CNVZerner       .... off
 Static damping         CNVDamp         .... on
   Fraction old density DampFac         ....    0.7000
   Max. Damping (<1)    DampMax         ....    0.9800
   Min. Damping (>=0)   DampMin         ....    0.0000
   Turn off err/grad.   DampErr         ....    0.1000
 Fernandez-Rico         CNVRico         .... off

SCF Procedure:
 Maximum # iterations   MaxIter         ....   125
 SCF integral mode      SCFMode         .... Direct
   Integral package                     .... LIBINT
 Reset frequency        DirectResetFreq ....    20
 Integral Threshold     Thresh          ....  1.000e-12 Eh
 Primitive CutOff       TCut            ....  1.000e-14 Eh

Convergence Tolerance:
 Convergence Check Mode ConvCheckMode   .... Total+1el-Energy
 Convergence forced     ConvForced      .... 1
 Energy Change          TolE            ....  1.000e-09 Eh
 1-El. energy change                    ....  1.000e-06 Eh
 DIIS Error             TolErr          ....  1.000e-08


Diagonalization of the overlap matrix:
Smallest eigenvalue                        ... 5.004e-04
Time for diagonalization                   ...    0.005 sec
Threshold for overlap eigenvalues          ... 1.000e-08
Number of eigenvalues below threshold      ... 0
Time for construction of square roots      ...    0.003 sec
Total time needed                          ...    0.008 sec

---------------------
INITIAL GUESS: MOREAD
---------------------
Guess MOs are being read from file: 49_CuH.ges
Input Geometry matches current geometry (good)
Atom 0: N(Shells)= 28 and 18 - projection required
Input basis set needs projection
NBasis(read)= 78
NBasis(calc)= 130
Basis set overlap was calculated
Using GuessMode=FMatrix for the initial guess
C*T matrix was formed
Effective Fockian was calculated
Effective Fockian was diagonalized
Initial density was built
                      ------------------
                      INITIAL GUESS DONE (   0.0 sec)
                      ------------------
--------------
SCF ITERATIONS
--------------
ITER       Energy         Delta-E        Max-DP      RMS-DP      [F,P]     Damp
               ***  Starting incremental Fock matrix formation  ***
  0  -1639.5103796012   0.000000000000 0.01712911  0.00039175  0.0859490 0.7000
  1  -1639.5112942752  -0.000914674028 0.01219553  0.00028579  0.0601131 0.7000
                               ***Turning on DIIS***
  2  -1639.5119549205  -0.000660645296 0.02937090  0.00069237  0.0420514 0.0000
  3  -1639.5132821736  -0.001327253020 0.00418879  0.00008889  0.0018692 0.0000
  4  -1639.5115505104   0.001731663144 0.00211399  0.00004144  0.0011380 0.0000
  5  -1639.5232088675  -0.011658357108 0.00183283  0.00003706  0.0008293 0.0000
  6  -1639.5106091224   0.012599745160 0.00042318  0.00000902  0.0002823 0.0000
  7  -1639.5139482862  -0.003339163841 0.00004419  0.00000125  0.0000452 0.0000
  8  -1639.5135900139   0.000358272327 0.00001454  0.00000043  0.0000105 0.0000
  9  -1639.5136152167  -0.000025202835 0.00000546  0.00000020  0.0000055 0.0000
 10  -1639.5136062002   0.000009016484 0.00000374  0.00000007  0.0000027 0.0000
 11  -1639.5136048207   0.000001379529 0.00000188  0.00000004  0.0000013 0.0000
 12  -1639.5136124581  -0.000007637426 0.00000149  0.00000003  0.0000010 0.0000
 13  -1639.5136022955   0.000010162596 0.00000078  0.00000001  0.0000005 0.0000
 14  -1639.5136063180  -0.000004022450 0.00000025  0.00000000  0.0000001 0.0000
                            ***DIIS convergence achieved***

               *****************************************************
               *                     SUCCESS                       *
               *           SCF CONVERGED AFTER  15 CYCLES          *
               *****************************************************


----------------
TOTAL SCF ENERGY
----------------

Total Energy       :        -1639.51360584 Eh          -44613.43332 eV

Components:
Nuclear Repulsion  :           10.39553304 Eh             282.87684 eV
Electronic Energy  :        -1649.90913888 Eh          -44896.31015 eV
One Electron Energy:        -2310.83440476 Eh          -62881.00096 eV
Two Electron Energy:          660.92526588 Eh           17984.69081 eV

Virial components:
Potential Energy   :        -3279.07561781 Eh          -89228.18383 eV
Kinetic Energy     :         1639.56201197 Eh           44614.75052 eV
Virial Ratio       :            1.99997048


---------------
SCF CONVERGENCE
---------------

  Last Energy change         ...    4.7935e-07  Tolerance :   1.0000e-09
  Last MAX-Density change    ...    3.7798e-08  Tolerance :   1.0000e-08
  Last RMS-Density change    ...    1.1203e-09  Tolerance :   1.0000e-09
  Last DIIS Error            ...    1.2501e-08  Tolerance :   1.0000e-08

             **** THE GBW FILE WAS UPDATED (49_CuH.gbw) ****
             **** DENSITY FILE WAS UPDATED (49_CuH.scfp) ****
             **** ENERGY FILE WAS UPDATED (49_CuH.en.tmp) ****
             **** THE GBW FILE WAS UPDATED (49_CuH.gbw) ****
             **** DENSITY FILE WAS UPDATED (49_CuH.scfp) ****
----------------
ORBITAL ENERGIES
----------------

  NO   OCC          E(Eh)            E(eV) 
   0   2.0000    -328.809462     -8947.3603 
   1   2.0000     -40.840064     -1111.3146 
   2   2.0000     -35.638746      -969.7796 
   3   2.0000     -35.638746      -969.7796 
   4   2.0000     -35.637507      -969.7459 
   5   2.0000      -5.029297      -136.8541 
   6   2.0000      -3.343148       -90.9717 
   7   2.0000      -3.338743       -90.8518 
   8   2.0000      -3.338743       -90.8518 
   9   2.0000      -0.515548       -14.0288 
  10   2.0000      -0.507208       -13.8018 
  11   2.0000      -0.507208       -13.8018 
  12   2.0000      -0.505355       -13.7514 
  13   2.0000      -0.505355       -13.7514 
  14   2.0000      -0.336807        -9.1650 
  15   0.0000       0.009134         0.2485 
  16   0.0000       0.050387         1.3711 
  17   0.0000       0.050387         1.3711 
  18   0.0000       0.091914         2.5011 
  19   0.0000       0.124444         3.3863 
  20   0.0000       0.186806         5.0832 
  21   0.0000       0.186806         5.0832 
  22   0.0000       0.189900         5.1674 
  23   0.0000       0.204273         5.5585 
  24   0.0000       0.204273         5.5585 
  25   0.0000       0.205279         5.5859 
  26   0.0000       0.205279         5.5859 
  27   0.0000       0.311609         8.4793 
  28   0.0000       0.421566        11.4714 
  29   0.0000       0.501118        13.6361 
  30   0.0000       0.572727        15.5847 
  31   0.0000       0.603405        16.4195 
  32   0.0000       0.603405        16.4195 
  33   0.0000       0.623975        16.9792 
  34   0.0000       0.623975        16.9792 
  35   0.0000       0.632812        17.2197 
  36   0.0000       0.632812        17.2197 
  37   0.0000       0.815021        22.1778 
  38   0.0000       0.820250        22.3201 
  39   0.0000       0.820250        22.3201 
  40   0.0000       0.934505        25.4292 
  41   0.0000       0.934505        25.4292 
  42   0.0000       0.935519        25.4568 
  43   0.0000       0.935519        25.4568 
  44   0.0000       1.103448        30.0263 
  45   0.0000       1.170241        31.8439 
  46   0.0000       1.170241        31.8439 
  47   0.0000       1.296637        35.2833 
  48   0.0000       1.466195        39.8972 
  49   0.0000       1.785312        48.5808 
  50   0.0000       1.785312        48.5808 
  51   0.0000       1.808942        49.2238 
  52   0.0000       1.808942        49.2238 
  53   0.0000       2.065228        56.1977 
  54   0.0000       2.110785        57.4374 
  55   0.0000       2.116988        57.6062 
  56   0.0000       2.116988        57.6062 
  57   0.0000       2.350361        63.9566 
  58   0.0000       2.350361        63.9566 
  59   0.0000       2.448520        66.6276 
  60   0.0000       2.448520        66.6276 
  61   0.0000       2.690193        73.2039 
  62   0.0000       2.842942        77.3604 
  63   0.0000       2.842942        77.3604 
  64   0.0000       2.848429        77.5097 
  65   0.0000       2.848429        77.5097 
  66   0.0000       2.865164        77.9651 
  67   0.0000       2.865164        77.9651 
  68   0.0000       2.905872        79.0728 
  69   0.0000       3.272398        89.0465 
  70   0.0000       3.272398        89.0465 
  71   0.0000       3.391218        92.2797 
  72   0.0000       3.944134       107.3253 
  73   0.0000       5.106150       138.9454 
  74   0.0000       5.106150       138.9454 
  75   0.0000       5.108822       139.0181 
  76   0.0000       5.118041       139.2690 
  77   0.0000       5.118041       139.2690 
  78   0.0000       5.959976       162.1792 
  79   0.0000       6.169090       167.8695 
  80   0.0000       6.169090       167.8695 
  81   0.0000       6.187111       168.3598 
  82   0.0000       6.187111       168.3598 
  83   0.0000       6.469340       176.0397 
  84   0.0000       6.469340       176.0397 
  85   0.0000       6.943941       188.9542 
  86   0.0000       7.694103       209.3672 
  87   0.0000       7.694103       209.3672 
  88   0.0000       7.722486       210.1395 
  89   0.0000       7.722486       210.1395 
  90   0.0000       7.763038       211.2430 
  91   0.0000       7.763038       211.2430 
  92   0.0000       7.825756       212.9496 
  93   0.0000       7.957549       216.5359 
  94   0.0000       7.957549       216.5359 
  95   0.0000       7.958363       216.5581 
  96   0.0000       7.958363       216.5581 
  97   0.0000       7.958947       216.5740 
  98   0.0000       7.958947       216.5740 
  99   0.0000       8.029339       218.4894 
 100   0.0000       8.029339       218.4894 
 101   0.0000       8.221492       223.7182 
 102   0.0000       8.413233       228.9357 
 103   0.0000       8.413233       228.9357 
 104   0.0000       8.645744       235.2626 
 105   0.0000       8.645744       235.2626 
 106   0.0000       9.087338       247.2790 
 107   0.0000       9.087338       247.2790 
 108   0.0000       9.445801       257.0333 
 109   0.0000       9.614550       261.6252 
 110   0.0000      12.462634       339.1255 
 111   0.0000      21.964759       597.6915 
 112   0.0000      21.964759       597.6915 
 113   0.0000      21.974965       597.9692 
 114   0.0000      21.974965       597.9692 
 115   0.0000      22.070402       600.5662 
 116   0.0000      22.070402       600.5662 
 117   0.0000      22.140108       602.4630 
 118   0.0000      26.149017       711.5509 
 119   0.0000      26.149017       711.5509 
 120   0.0000      26.150525       711.5920 
 121   0.0000      26.150525       711.5920 
 122   0.0000      26.167186       712.0453 
 123   0.0000      26.167186       712.0453 
 124   0.0000      26.307108       715.8528 
 125   0.0000      26.307108       715.8528 
 126   0.0000      26.442081       719.5256 
 127   0.0000      41.798206      1137.3870 
 128   0.0000     139.898035      3806.8191 
 129   0.0000     907.300333     24688.8972 

                    ********************************
                    * MULLIKEN POPULATION ANALYSIS *
                    ********************************

-----------------------
MULLIKEN ATOMIC CHARGES
-----------------------
   0 Cu:    0.324927
   1 H :   -0.324927
Sum of atomic charges:   -0.0000000

--------------------------------
MULLIKEN REDUCED ORBITAL CHARGES
--------------------------------
  0 Cus       :     6.633507  s :     6.633507
      pz      :     4.121941  p :    12.122838
      px      :     4.000449
      py      :     4.000449
      dz2     :     1.926701  d :     9.916031
      dxz     :     1.994927
      dyz     :     1.994927
      dx2y2   :     1.999737
      dxy     :     1.999737
      f0      :     0.002116  f :     0.002683
      f+1     :     0.000122
      f-1     :     0.000122
      f+2     :     0.000162
      f-2     :     0.000162
      f+3     :     0.000000
      f-3     :     0.000000
      g0      :     0.000011  g :     0.000013
      g+1     :     0.000001
      g-1     :     0.000001
      g+2     :     0.000000
      g-2     :     0.000000
      g+3     :     0.000000
      g-3     :     0.000000
      g+4     :     0.000000
      g-4     :     0.000000
  1 H s       :     1.303409  s :     1.303409
      pz      :     0.010942  p :     0.017978
      px      :     0.003518
      py      :     0.003518
      dz2     :     0.001202  d :     0.003133
      dxz     :     0.000876
      dyz     :     0.000876
      dx2y2   :     0.000089
      dxy     :     0.000089
      f0      :     0.000169  f :     0.000407
      f+1     :     0.000107
      f-1     :     0.000107
      f+2     :     0.000012
      f-2     :     0.000012
      f+3     :     0.000000
      f-3     :     0.000000


                     *******************************
                     * LOEWDIN POPULATION ANALYSIS *
                     *******************************

----------------------
LOEWDIN ATOMIC CHARGES
----------------------
   0 Cu:    0.239923
   1 H :   -0.239923

-------------------------------
LOEWDIN REDUCED ORBITAL CHARGES
-------------------------------
  0 Cus       :     6.663518  s :     6.663518
      pz      :     4.178973  p :    12.178628
      px      :     3.999828
      py      :     3.999828
      dz2     :     1.961009  d :     9.902286
      dxz     :     1.971817
      dyz     :     1.971817
      dx2y2   :     1.998822
      dxy     :     1.998822
      f0      :     0.013582  f :     0.015579
      f+1     :     0.000793
      f-1     :     0.000793
      f+2     :     0.000205
      f-2     :     0.000205
      f+3     :     0.000000
      f-3     :     0.000000
      g0      :     0.000050  g :     0.000066
      g+1     :     0.000008
      g-1     :     0.000008
      g+2     :     0.000000
      g-2     :     0.000000
      g+3     :     0.000000
      g-3     :     0.000000
      g+4     :     0.000000
      g-4     :     0.000000
  1 H s       :     1.105095  s :     1.105095
      pz      :     0.041576  p :     0.069089
      px      :     0.013756
      py      :     0.013756
      dz2     :     0.030875  d :     0.056212
      dxz     :     0.011889
      dyz     :     0.011889
      dx2y2   :     0.000779
      dxy     :     0.000779
      f0      :     0.005321  f :     0.009527
      f+1     :     0.001909
      f-1     :     0.001909
      f+2     :     0.000194
      f-2     :     0.000194
      f+3     :     0.000000
      f-3     :     0.000000


                      *****************************
                      * MAYER POPULATION ANALYSIS *
                      *****************************

  NA   - Mulliken gross atomic population
  ZA   - Total nuclear charge
  QA   - Mulliken gross atomic charge
  VA   - Mayer's total valence
  BVA  - Mayer's bonded valence
  FA   - Mayer's free valence

  ATOM       NA         ZA         QA         VA         BVA        FA
  0 Cu    28.6751    29.0000     0.3249     0.9846     0.9846    -0.0000
  1 H      1.3249     1.0000    -0.3249     0.9846     0.9846    -0.0000

  Mayer bond orders larger than 0.100000
B(  0-Cu,  1-H ) :   0.9846 

-------
TIMINGS
-------

Total SCF time: 0 days 0 hours 0 min 4 sec 

Total time                  ....       4.941 sec
Sum of individual times     ....       4.659 sec  ( 94.3%)

Fock matrix formation       ....       4.581 sec  ( 92.7%)
Diagonalization             ....       0.034 sec  (  0.7%)
Density matrix formation    ....       0.005 sec  (  0.1%)
Population analysis         ....       0.003 sec  (  0.1%)
Initial guess               ....       0.011 sec  (  0.2%)
Orbital Transformation      ....       0.000 sec  (  0.0%)
Orbital Orthonormalization  ....       0.000 sec  (  0.0%)
DIIS solution               ....       0.024 sec  (  0.5%)


           ************************************************************
           *        Program running with 24 parallel MPI-processes    *
           *              working on a common directory               *
           ************************************************************


------------------------------------------------------------------------------- 
                              ORCA-MATRIX DRIVEN CI                            
------------------------------------------------------------------------------- 

--------------------------------
AUTOMATIC CHOICE OF INCORE LEVEL
--------------------------------

Memory available                           ...   2500.00 MB
Memory needed for S+T                      ...     16.65 MB
Memory needed for J+K                      ...     33.39 MB
Memory needed for DIIS                     ...    233.08 MB
Memory needed for 3-ext                    ...    116.03 MB
Memory needed for 4-ext                    ...    672.99 MB
Memory needed for triples                  ...     58.02 MB
 -> Final InCoreLevel    ... 5
 -> check shows that triples correction can be computed


Wavefunction type
-----------------
Correlation treatment                      ...      CCSD     
Single excitations                         ... ON
Orbital optimization                       ... OFF
Calculation of Z vector                    ... OFF
Calculation of Brueckner orbitals          ... OFF
Perturbative triple excitations            ... ON
Calculation of F12 correction              ... OFF
Frozen core treatment                      ... chemical core (10 el)
Reference Wavefunction                     ... RHF
  Internal Orbitals:     5 ...   14 ( 10 MO's/ 20 electrons)
  Virtual  Orbitals:    15 ...  129 (115 MO's              )
Number of AO's                             ...    130
Number of electrons                        ...     30
Number of correlated electrons             ...     20

Algorithmic settings
--------------------
Integral transformation                    ... AO direct full transformation
K(C) Formation                             ... FULL-MO TRAFO
Maximum number of iterations               ...        50
Convergence tolerance (max. residuum)      ... 1.000e-06
[...]
<ff|fg>:          150 b            0 skpd (  0.0%)    0.004 s ( 0.026 ms/b)
<ff|gg>:           45 b            0 skpd (  0.0%)    0.006 s ( 0.139 ms/b)
<fg|fg>:           55 b            0 skpd (  0.0%)    0.004 s ( 0.072 ms/b)
<fg|gg>:           30 b            0 skpd (  0.0%)    0.007 s ( 0.219 ms/b)
<gg|gg>:            6 b            0 skpd (  0.0%)    0.004 s ( 0.709 ms/b)
Recanonicalizing the internal orbitals
Recanonicalizing the virtual orbitals
Time needed for Fock operator              ...            0.655 sec
Reference energy                           ...  -1639.513605950

------------------------------
PARTIAL COULOMB TRANSFORMATION
------------------------------

Transformation type                        ... one-operator
Dimension of the basis                     ...  130
Number of internal MOs                     ...  125 (5-129)
Pair cutoff                                ... 0.000e+00 Eh
Number of AO pairs included in the trafo   ... 8515
Total Number of distinct AO pairs          ... 8515
Memory devoted for trafo                   ... 2500.0 MB 
Max. Number of MO pairs treated together   ... 38482      
Max. Number of MOs treated per batch       ...  296      
Number Format for Storage                  ... Double (8 Byte)
AO-integral source                         ... DIRECT
Integral package used                      ... LIBINT

Starting integral evaluation:
<ss|**>: <sp|**>:        88920 b        0 skpd     0.035 s (  0.000 ms/b)
      100035 b        0 skpd     0.064 s (  0.001 ms/b)
<sd|**>:        77805 b        0 skpd     0.079 s (  0.001 ms/b)
<sf|**>:        55575 b        0 skpd     0.043 s (  0.001 ms/b)
<sg|**>:        22230 b        0 skpd     0.059 s (  0.003 ms/b)
<pp|**>:        33345 b        0 skpd     0.100 s (  0.003 ms/b)
<pd|**>:        46683 b        0 skpd     0.167 s (  0.004 ms/b)
<pf|**>:        33345 b        0 skpd     0.061 s (  0.002 ms/b)
<pg|**>:        13338 b        0 skpd     0.085 s (  0.006 ms/b)
<dd|**>:        20748 b        0 skpd     0.194 s (  0.009 ms/b)
<df|**>:        25935 b        0 skpd     0.094 s (  0.004 ms/b)
<dg|**>:        10374 b        0 skpd     0.107 s (  0.010 ms/b)
<ff|**>:        11115 b        0 skpd     0.043 s (  0.004 ms/b)
<fg|**>:         7410 b        0 skpd     0.057 s (  0.008 ms/b)
<gg|**>:         2223 b        0 skpd     0.084 s (  0.038 ms/b)
Closing buffer AOJ ( 0.02 GB; CompressionRatio= 1.00)
Collecting buffer AOJ 
    ... done with AO integral generation
Number of MO pairs included in the trafo   ... 7875
    ... Now sorting integrals
IBATCH = 1 of  1
Closing buffer JAO ( 0.02 GB; CompressionRatio= 1.00)
Collecting buffer JAO 
TOTAL TIME for half transformation         ...     1.600 sec
AO-integral generation                     ...     1.180 sec
Half transformation                        ...     0.111 sec
J-integral sorting                         ...     0.221 sec

-------------------------- SECOND HALF TRANSFORMATION -------------------------
Formation of (pq|rs)                       ... ok (     0.159 sec)
Integral sorting                           ... ok (     1.778 sec)

------------------
CLOSED SHELL GUESS
------------------

Initial guess performed in     0.016 sec
E(0)                                       ...  -1639.513605950
E(MP2)                                     ...     -0.903143091
Initial E(tot)                             ...  -1640.416749040
<T|T>                                      ...      0.142672477
Number of pairs included                   ... 55
Total number of pairs                      ... 55

------------------------------------------------
                  RHF COUPLED CLUSTER ITERATIONS
------------------------------------------------

Number of amplitudes to be optimized       ... 728525

Iter       E(tot)           E(Corr)          Delta-E          Residual     Time
  0  -1640.416749040     -0.903143091      0.000000000      0.039445646    0.32
                           *** Turning on DIIS ***
  1  -1640.253397350     -0.739791401      0.163351690      0.020993453    0.86
  2  -1640.308852391     -0.795246441     -0.055455041      0.006638066    0.87
  3  -1640.307508057     -0.793902107      0.001344334      0.004576926    0.88
  4  -1640.309084071     -0.795478122     -0.001576014      0.003671088    0.89
  5  -1640.310274858     -0.796668908     -0.001190786      0.002706071    0.90
  6  -1640.310897688     -0.797291738     -0.000622830      0.001930163    0.91
  7  -1640.311217267     -0.797611318     -0.000319580      0.001317476    0.91
  8  -1640.311406665     -0.797800715     -0.000189397      0.001024011    0.91
  9  -1640.311495596     -0.797889646     -0.000088931      0.000470940    0.90
 10  -1640.311499694     -0.797893744     -0.000004098      0.000266235    0.90
 11  -1640.311518281     -0.797912332     -0.000018588      0.000087855    0.90
 12  -1640.311505906     -0.797899957      0.000012375      0.000036362    0.90
 13  -1640.311504806     -0.797898856      0.000001101      0.000016390    0.90
 14  -1640.311501576     -0.797895626      0.000003230      0.000005119    0.90
 15  -1640.311501876     -0.797895926     -0.000000301      0.000003193    0.92
 16  -1640.311501118     -0.797895169      0.000000758      0.000002088    0.96
 17  -1640.311501483     -0.797895533     -0.000000364      0.000001088    0.93
 18  -1640.311501197     -0.797895247      0.000000286      0.000000870    0.92
               --- The Coupled-Cluster iterations have converged ---

----------------------
COUPLED CLUSTER ENERGY
----------------------

E(0)                                       ...  -1639.513605950
E(CORR)                                    ...     -0.797895247
E(TOT)                                     ...  -1640.311501197
Singles Norm <S|S>**1/2                    ...      0.156389068  
T1 diagnostic                              ...      0.034969659  

------------------
LARGEST AMPLITUDES
------------------
  14-> 15  -1-> -1       0.089020
  14-> 19  -1-> -1       0.074024
   9-> 15  -1-> -1       0.043727
  14-> 29  -1-> -1       0.035792
   9-> 19  -1-> -1       0.033244
  14-> 15  14-> 15       0.032961
  14-> 28  14-> 28       0.028197
  14-> 15  14-> 19       0.027305
  14-> 19  14-> 15       0.027305
  14-> 19  14-> 19       0.024663
  14-> 28  14-> 15       0.023031
  14-> 15  14-> 28       0.023031
   9-> 28  -1-> -1       0.023006
  13-> 36  -1-> -1       0.022487
  12-> 35  -1-> -1       0.022487
  11-> 34  -1-> -1       0.022336


        !!!!!!!!!!!!!!!!!!!!!!!!!!!!!!!!!!!!!!!!!!!!!!!!!!!!!!!!!!!!!!!!!!!!!!!!!! 
        !  Warning: Densities are linearized densities !                         !
        !!!!!!!!!!!!!!!!!!!!!!!!!!!!!!!!!!!!!!!!!!!!!!!!!!!!!!!!!!!!!!!!!!!!!!!!!! 

Trace of internal density part =     -0.291141432
Trace of external density part =      0.291141432
----------------------
RHF TRIPLES CORRECTION (Algorithm 1)
----------------------

Multiplier for the singles contribution    ...      1.000000000

10% done
20% done
30% done
40% done
50% done
60% done
70% done
80% done

Triples Correction (T)                     ...     -0.029332130
Scaling of triples based on CCSD energies (Peterson et al. Molecular Physics 113, 1551 (2015))
E(T*) = f*E(T) where f = E(F12-CCSD)/E(CCSD) 
f = CCSD (with F12)/ CCSD (without F12)    ...      1.000000000
Scaled triples correction (T)              ...     -0.029332130

Final correlation energy                   ...     -0.827227377
E(CCSD)                                    ...  -1640.311501197
E(CCSD(T))                                 ...  -1640.340833327

NORM  =      1.170028257 sqrt=     1.081678444
W(HF) =      0.854680213
------------------------------------------------------------------------------
                           ORCA POPULATION ANALYSIS
------------------------------------------------------------------------------
Input electron density              ... 49_CuH.mdcip
BaseName (.gbw .S,...)              ... 49_CuH

                    ********************************
                    * MULLIKEN POPULATION ANALYSIS *
                    ********************************

-----------------------
MULLIKEN ATOMIC CHARGES
-----------------------
   0 Cu:    0.174930
   1 H :   -0.174930
Sum of atomic charges:   -0.0000000

--------------------------------
MULLIKEN REDUCED ORBITAL CHARGES
--------------------------------
  0 Cus       :     6.886218  s :     6.886218
      pz      :     4.083191  p :    12.103529
      px      :     4.010169
      py      :     4.010169
      dz2     :     1.844002  d :     9.789420
      dxz     :     1.983155
      dyz     :     1.983155
      dx2y2   :     1.989554
      dxy     :     1.989554
      f0      :     0.007758  f :     0.041355
      f+1     :     0.005620
      f-1     :     0.005620
      f+2     :     0.005689
      f-2     :     0.005689
      f+3     :     0.005489
      f-3     :     0.005489
      g0      :     0.000519  g :     0.004548
      g+1     :     0.000510
      g-1     :     0.000510
      g+2     :     0.000506
      g-2     :     0.000506
      g+3     :     0.000502
      g-3     :     0.000502
      g+4     :     0.000496
      g-4     :     0.000496
  1 H s       :     1.137741  s :     1.137741
      pz      :     0.011066  p :     0.031335
      px      :     0.010134
      py      :     0.010134
      dz2     :     0.001849  d :     0.005278
      dxz     :     0.001422
      dyz     :     0.001422
      dx2y2   :     0.000292
      dxy     :     0.000292
      f0      :     0.000250  f :     0.000577
      f+1     :     0.000130
      f-1     :     0.000130
      f+2     :     0.000029
      f-2     :     0.000029
      f+3     :     0.000004
      f-3     :     0.000004


                     *******************************
                     * LOEWDIN POPULATION ANALYSIS *
                     *******************************

----------------------
LOEWDIN ATOMIC CHARGES
----------------------
   0 Cu:    0.209355
   1 H :   -0.209355

-------------------------------
LOEWDIN REDUCED ORBITAL CHARGES
-------------------------------
  0 Cus       :     6.830577  s :     6.830577
      pz      :     4.107539  p :    12.126286
      px      :     4.009374
      py      :     4.009374
      dz2     :     1.881941  d :     9.774345
      dxz     :     1.957740
      dyz     :     1.957740
      dx2y2   :     1.988462
      dxy     :     1.988462
      f0      :     0.019528  f :     0.054826
      f+1     :     0.006440
      f-1     :     0.006440
      f+2     :     0.005720
      f-2     :     0.005720
      f+3     :     0.005489
      f-3     :     0.005489
      g0      :     0.000569  g :     0.004611
      g+1     :     0.000517
      g-1     :     0.000517
      g+2     :     0.000505
      g-2     :     0.000505
      g+3     :     0.000502
      g-3     :     0.000502
      g+4     :     0.000496
      g-4     :     0.000496
  1 H s       :     1.046127  s :     1.046127
      pz      :     0.051435  p :     0.095841
      px      :     0.022203
      py      :     0.022203
      dz2     :     0.029836  d :     0.058007
      dxz     :     0.012939
      dyz     :     0.012939
      dx2y2   :     0.001147
      dxy     :     0.001147
      f0      :     0.005044  f :     0.009380
      f+1     :     0.001928
      f-1     :     0.001928
      f+2     :     0.000236
      f-2     :     0.000236
      f+3     :     0.000004
      f-3     :     0.000004


                      *****************************
                      * MAYER POPULATION ANALYSIS *
                      *****************************

  NA   - Mulliken gross atomic population
  ZA   - Total nuclear charge
  QA   - Mulliken gross atomic charge
  VA   - Mayer's total valence
  BVA  - Mayer's bonded valence
  FA   - Mayer's free valence

  ATOM       NA         ZA         QA         VA         BVA        FA
  0 Cu    28.8251    29.0000     0.1749     1.8217     0.9849     0.8368
  1 H      1.1749     1.0000    -0.1749     1.1161     0.9849     0.1312

  Mayer bond orders larger than 0.100000
B(  0-Cu,  1-H ) :   0.9849 



------------------------------------------------------------------------------- 
                                     TIMINGS                                   
------------------------------------------------------------------------------- 


Total execution time                   ...       22.750 sec

Fock Matrix Formation                  ...        0.655 sec (  2.9%)
Initial Guess                          ...        0.016 sec (  0.1%)
DIIS Solver                            ...        1.025 sec (  4.5%)
State Vector Update                    ...        0.042 sec (  0.2%)
Sigma-vector construction              ...       15.496 sec ( 68.1%)
  <0|H|D>                              ...        0.003 sec (  0.0% of sigma)
  <D|H|D>(0-ext)                       ...        0.090 sec (  0.6% of sigma)
  <D|H|D>(2-ext Fock)                  ...        0.008 sec (  0.0% of sigma)
  <D|H|D>(2-ext)                       ...        0.260 sec (  1.7% of sigma)
  <D|H|D>(4-ext)                       ...        1.201 sec (  7.7% of sigma)
  <D|H|D>(4-ext-corr)                  ...        1.029 sec (  6.6% of sigma)
  <S|H|0>                              ...        0.008 sec (  0.1% of sigma)
  <S|H|S>                              ...        0.011 sec (  0.1% of sigma)
  <S|H|D>(1-ext)                       ...        0.046 sec (  0.3% of sigma)
  <D|H|S>(1-ext)                       ...        0.053 sec (  0.3% of sigma)
  <S|H|D>(3-ext)                       ...        0.781 sec (  5.0% of sigma)
  Fock-dressing                        ...        9.597 sec ( 61.9% of sigma)
  (ik|jl)-dressing                     ...        0.107 sec (  0.7% of sigma)
  (ij|ab),(ia|jb)-dressing             ...        1.895 sec ( 12.2% of sigma)
  Pair energies                        ...        0.006 sec (  0.0% of sigma)
Total Time for computing (T)           ...        1.150 sec (  5.1% of ALL)
  I/O of integral and amplitudes       ...        0.293 sec ( 25.5% of (T))
  N**6 sorting step                    ...        0.316 sec ( 27.5% of (T))
  External N**7 contributions          ...        0.317 sec ( 27.6% of (T))
  Internal N**7 contributions          ...        0.100 sec (  8.7% of (T))
  N**6 triples energy contributions    ...        0.123 sec ( 10.7% of (T))
One-particle density matrix            ...        0.003 sec (  0.0%)


-------------------
EXTRAPOLATED ENERGY
-------------------


-----------------------------------------------------------------
                      EP1 - MDCI extrapolation:
-----------------------------------------------------------------
NOTE: We use as reference SCF energy, for the extrapolation, the one from the MDCI module and not the one 
from the SCF calculation. In case the first step is a DFT calculation these two might be different.

NOTE: For the SCF part we extrapolate based on the scheme proposed in J. Chem. Phys. 2008, 129, 184116
using the exponents from J. Chem. Theory Comput., 7, 33-43 (2011)

NOTE: For the correlation part we extrapolate based on the scheme proposed in J. Chem. Phys. 1997, 106, 9639
using the exponents from J. Chem. Theory Comput., 7, 33-43 (2011)


Alpha(3/4)     :  7.880 (SCF Extrapolation)
Beta(3/4)      :  2.970 (correlation extrapolation)

SCF energy with basis def2-TZVPP:                     -1639.472760749
SCF energy with basis def2-QZVPP:                     -1639.513605950
Extrapolated CBS SCF energy (3/4) :                   -1639.519231914 (-0.005625964) 

MDCI energy with basis def2-TZVPP:                       -0.792842798
MDCI energy with basis def2-QZVPP:                       -0.827227377
Extrapolated CBS correlation energy (3/4) :              -0.852697417 (-0.025470040)

Estimated CBS total energy (3/4) :                    -1640.371929331



-------------------------   --------------------
FINAL SINGLE POINT ENERGY     -1640.371929330897
-------------------------   --------------------


                            ***************************************
                            *     ORCA property calculations      *
                            ***************************************

                                    ---------------------
                                    Active property flags
                                    ---------------------
   (+) Dipole Moment


------------------------------------------------------------------------------
                       ORCA ELECTRIC PROPERTIES CALCULATION
------------------------------------------------------------------------------

Dipole Moment Calculation                       ... on
Quadrupole Moment Calculation                   ... off
Polarizability Calculation                      ... off
GBWName                                         ... 49_CuH.gbw
Electron density file                           ... 49_CuH.scfp
The origin for moment calculation is the CENTER OF MASS  = ( 0.000000,  0.000000  0.538454)

-------------
DIPOLE MOMENT
-------------
                                X             Y             Z
Electronic contribution:      0.00000      -0.00000      -3.08826
Nuclear contribution   :      0.00000       0.00000       1.48294
                        -----------------------------------------
Total Dipole Moment    :      0.00000      -0.00000      -1.60532
                        -----------------------------------------
Magnitude (a.u.)       :      1.60532
Magnitude (Debye)      :      4.08041



--------------------
Rotational spectrum 
--------------------
 
Rotational constants in cm-1:     0.000000     7.795898     7.795898 
Rotational constants in MHz :     0.000000 233715.143643 233715.143643 

 Dipole components along the rotational axes: 
x,y,z [a.u.] :    -1.605323    -0.000000     0.000000 
x,y,z [Debye]:    -4.080407    -0.000000     0.000000 

 

                           *** MDCI DENSITY ***

------------------------------------------------------------------------------
                       ORCA ELECTRIC PROPERTIES CALCULATION
------------------------------------------------------------------------------

Dipole Moment Calculation                       ... on
Quadrupole Moment Calculation                   ... off
Polarizability Calculation                      ... off
GBWName                                         ... 49_CuH.gbw
Electron density file                           ... 49_CuH.mdcip
The origin for moment calculation is the CENTER OF MASS  = ( 0.000000,  0.000000  0.538454)

-------------
DIPOLE MOMENT
-------------
                                X             Y             Z
Electronic contribution:     -0.00000      -0.00000      -2.60837
Nuclear contribution   :      0.00000       0.00000       1.48294
                        -----------------------------------------
Total Dipole Moment    :     -0.00000      -0.00000      -1.12543
                        -----------------------------------------
Magnitude (a.u.)       :      1.12543
Magnitude (Debye)      :      2.86061



--------------------
Rotational spectrum 
--------------------
 
Rotational constants in cm-1:     0.000000     7.795898     7.795898 
Rotational constants in MHz :     0.000000 233715.143643 233715.143643 

 Dipole components along the rotational axes: 
x,y,z [a.u.] :    -1.125427    -0.000000    -0.000000 
x,y,z [Debye]:    -2.860609    -0.000000    -0.000000 

 

Timings for individual modules:

Sum of individual times         ...       39.537 sec (=   0.659 min)
GTO integral calculation        ...        1.478 sec (=   0.025 min)   3.7 %
SCF iterations                  ...        8.960 sec (=   0.149 min)  22.7 %
MDCI module                     ...       29.099 sec (=   0.485 min)  73.6 %
                             ****ORCA TERMINATED NORMALLY****
TOTAL RUN TIME: 0 days 0 hours 0 minutes 40 seconds 459 msec
