
                                 *****************
                                 * O   R   C   A *
                                 *****************

           --- An Ab Initio, DFT and Semiempirical electronic structure package ---

                  #######################################################
                  #                        -***-                        #
                  #          Department of theory and spectroscopy      #
                  #               Directorship: Frank Neese             #
                  #        Max Planck Institute fuer Kohlenforschung    #
                  #                Kaiser Wilhelm Platz 1               #
                  #                 D-45470 Muelheim/Ruhr               #
                  #                      Germany                        #
                  #                                                     #
                  #                  All rights reserved                #
                  #                        -***-                        #
                  #######################################################


                         Program Version 4.2.0 -  RELEASE  -


 With contributions from (in alphabetic order):
   Daniel Aravena         : Magnetic Suceptibility
   Michael Atanasov       : Ab Initio Ligand Field Theory (pilot matlab implementation)
   Alexander A. Auer      : GIAO ZORA, VPT2
   Ute Becker             : Parallelization
   Giovanni Bistoni       : ED, misc. LED, open-shell LED, HFLED
   Martin Brehm           : Molecular dynamics
   Dmytro Bykov           : SCF Hessian
   Vijay G. Chilkuri      : MRCI spin determinant printing, contributions to CSF-ICE
   Dipayan Datta          : RHF DLPNO-CCSD density
   Achintya Kumar Dutta   : EOM-CC, STEOM-CC
   Dmitry Ganyushin       : Spin-Orbit,Spin-Spin,Magnetic field MRCI
   Miquel Garcia          : C-PCM Hessian, Gaussian charge scheme
   Yang Guo               : DLPNO-NEVPT2, CIM, IAO-localization
   Andreas Hansen         : Spin unrestricted coupled pair/coupled cluster methods
   Benjamin Helmich-Paris : CASSCF linear response (MC-RPA)
   Lee Huntington         : MR-EOM, pCC
   Robert Izsak           : Overlap fitted RIJCOSX, COSX-SCS-MP3, EOM
   Christian Kollmar      : KDIIS, OOCD, Brueckner-CCSD(T), CCSD density
   Simone Kossmann        : Meta GGA functionals, TD-DFT gradient, OOMP2, MP2 Hessian
   Martin Krupicka        : AUTO-CI
   Lucas Lang             : DCDCAS
   Dagmar Lenk            : GEPOL surface, SMD
   Dimitrios Liakos       : Extrapolation schemes; Compound Job, initial MDCI parallelization
   Dimitrios Manganas     : Further ROCIS development; embedding schemes
   Dimitrios Pantazis     : SARC Basis sets
   Taras Petrenko         : DFT Hessian,TD-DFT gradient, ASA, ECA, R-Raman, ABS, FL, XAS/XES, NRVS
   Peter Pinski           : DLPNO-MP2, DLPNO-MP2 Gradient
   Christoph Reimann      : Effective Core Potentials
   Marius Retegan         : Local ZFS, SOC
   Christoph Riplinger    : Optimizer, TS searches, QM/MM, DLPNO-CCSD(T), (RO)-DLPNO pert. Triples
   Tobias Risthaus        : Range-separated hybrids, TD-DFT gradient, RPA, STAB
   Michael Roemelt        : Original ROCIS implementation
   Masaaki Saitow         : Open-shell DLPNO-CCSD energy and density
   Barbara Sandhoefer     : DKH picture change effects
   Avijit Sen             : IP-ROCIS
   Kantharuban Sivalingam : CASSCF convergence, NEVPT2, FIC-MRCI
   Bernardo de Souza      : ESD, SOC TD-DFT
   Georgi Stoychev        : AutoAux, RI-MP2 NMR
   Willem Van den Heuvel  : Paramagnetic NMR
   Boris Wezisla          : Elementary symmetry handling
   Frank Wennmohs         : Technical directorship


 We gratefully acknowledge several colleagues who have allowed us to
 interface, adapt or use parts of their codes:
   Stefan Grimme, W. Hujo, H. Kruse,             : VdW corrections, initial TS optimization,
                  C. Bannwarth                     DFT functionals, gCP, sTDA/sTD-DF
   Ed Valeev, F. Pavosevic, A. Kumar             : LibInt (2-el integral package), F12 methods
   Garnet Chan, S. Sharma, J. Yang, R. Olivares  : DMRG
   Ulf Ekstrom                                   : XCFun DFT Library
   Mihaly Kallay                                 : mrcc  (arbitrary order and MRCC methods)
   Andreas Klamt, Michael Diedenhofen            : otool_cosmo (COSMO solvation model)
   Jiri Pittner, Ondrej Demel                    : Mk-CCSD
   Frank Weinhold                                : gennbo (NPA and NBO analysis)
   Christopher J. Cramer and Donald G. Truhlar   : smd solvation model
   Lars Goerigk                                  : TD-DFT with DH, B97 family of functionals
   V. Asgeirsson, H. Jonsson                     : NEB implementation
   FAccTs GmbH                                   : IRC, NEB, NEB-TS, Multilevel, MM, QM/MM, CI optimization
   S Lehtola, MJT Oliveira, MAL Marques          : LibXC Library


 Your calculation uses the libint2 library for the computation of 2-el integrals
 For citations please refer to: http://libint.valeyev.net

 Your ORCA version has been built with support for libXC version: 4.2.3
 For citations please refer to: https://tddft.org/programs/libxc/

 This ORCA versions uses:
   CBLAS   interface :  Fast vector & matrix operations
   LAPACKE interface :  Fast linear algebra routines
   SCALAPACK package :  Parallel linear algebra routines


----- Orbital basis set information -----
Your calculation utilizes the basis: def2-TZVPP
   F. Weigend and R. Ahlrichs, Phys. Chem. Chem. Phys. 7, 3297 (2005).

================================================================================
                                        WARNINGS
                       Please study these warnings very carefully!
================================================================================


WARNING: MDCI localization with Augmented Hessian Foster-Boys
  ===> : Switching off randomization!

WARNING: Post HF methods need fully converged wavefunctions
  ===> : Setting SCFConvForced true
         You can overwrite this default with %scf ConvForced false 


INFO   : the flag for use of LIBINT has been found!

================================================================================
                                       INPUT FILE
================================================================================
NAME = 51_CuCl.in
|  1> #
|  2> # 51_CuCl ccsd(t)/cbs
|  3> #
|  4> ! ccsd(t) extrapolate(3/4,def2) verytightscf
|  5> 
|  6> *xyz 0 1
|  7>   Cu  0.00000000000000      0.00000000000000     -0.03459121817691
|  8>   Cl  0.00000000000000      0.00000000000000      2.03459121817691
|  9> *
| 10> 
| 11> %maxcore 5000
| 12> %pal
| 13> nprocs 24
| 14> end
| 15> 
| 16> 
| 17>                          ****END OF INPUT****
================================================================================

                   *****************************************
                   * Extrapolated Single Point Calculation *
                   *****************************************

----- Orbital basis set information -----
Your calculation utilizes the basis: def2-TZVPP
   F. Weigend and R. Ahlrichs, Phys. Chem. Chem. Phys. 7, 3297 (2005).

----- AuxJ basis set information -----
Your calculation utilizes the auxiliary basis: def2/J
   F. Weigend, Phys. Chem. Chem. Phys. 8, 1057 (2006).

----- AuxC basis set information -----
Your calculation utilizes the auxiliary basis: def2-TZVPP/C
  H-La, Hf-Rn : A. Hellweg, C. Hattig, S. Hofener and W. Klopper, Theor. Chem. Acc. 117, 587 (2007).
        Ce-Lu : J. Chmela and M. E. Harding, Mol. Phys. (2018).

----- AuxJK basis set information -----
Your calculation utilizes the auxiliary basis: def2/JK
   H-Ba, Hf-Rn: F. Weigend, J. Comput. Chem. 29, 167 (2008).

All done

                     -----------------------------------------
                     Extrapolated Energy 1 Basis=  def2-TZVPP
                     -----------------------------------------

---------------------------------
CARTESIAN COORDINATES (ANGSTROEM)
---------------------------------
  Cu     0.000000    0.000000   -0.034591
  Cl     0.000000    0.000000    2.034591

----------------------------
CARTESIAN COORDINATES (A.U.)
----------------------------
  NO LB      ZA    FRAG     MASS         X           Y           Z
   0 Cu   29.0000    0    63.550    0.000000    0.000000   -0.065368
   1 Cl   17.0000    0    35.453    0.000000    0.000000    3.844820

--------------------------------
INTERNAL COORDINATES (ANGSTROEM)
--------------------------------
 Cu     0   0   0     0.000000000000     0.00000000     0.00000000
 Cl     1   0   0     2.069182436354     0.00000000     0.00000000

---------------------------
INTERNAL COORDINATES (A.U.)
---------------------------
 Cu     0   0   0     0.000000000000     0.00000000     0.00000000
 Cl     1   0   0     3.910188125829     0.00000000     0.00000000

---------------------
BASIS SET INFORMATION
---------------------
There are 2 groups of distinct atoms

 Group   1 Type Cu  : 17s12p7d2f1g contracted to 6s5p4d2f1g pattern {842111/63111/4111/11/1}
 Group   2 Type Cl  : 14s9p3d1f contracted to 5s5p3d1f pattern {73211/51111/111/1}

Atom   0Cu   basis set group =>   1
Atom   1Cl   basis set group =>   2
---------------------------------
AUXILIARY/J BASIS SET INFORMATION
---------------------------------
There are 2 groups of distinct atoms

 Group   1 Type Cu  : 19s5p5d3f3g contracted to 8s5p4d3f3g pattern {121111111/11111/2111/111/111}
 Group   2 Type Cl  : 14s5p5d2f1g contracted to 8s4p3d1f1g pattern {71111111/2111/311/2/1}

Atom   0Cu   basis set group =>   1
Atom   1Cl   basis set group =>   2
---------------------------------
AUXILIARY/C BASIS SET INFORMATION
---------------------------------
There are 2 groups of distinct atoms

 Group   1 Type Cu  : 9s9p8d7f5g3h1i contracted to 9s9p8d7f5g3h1i pattern {111111111/111111111/11111111/1111111/11111/111/1}
 Group   2 Type Cl  : 11s8p7d5f2g contracted to 11s8p7d5f2g pattern {11111111111/11111111/1111111/11111/11}

Atom   0Cu   basis set group =>   1
Atom   1Cl   basis set group =>   2
----------------------------------
AUXILIARY/JK BASIS SET INFORMATION
----------------------------------
There are 2 groups of distinct atoms

 Group   1 Type Cu  : 19s14p12d10f7g3h1i contracted to 16s13p11d9f5g3h1i pattern {4111111111111111/2111111111111/21111111111/211111111/31111/111/1}
 Group   2 Type Cl  : 16s12p10d4f1g contracted to 13s11p9d4f1g pattern {4111111111111/21111111111/211111111/1111/1}

Atom   0Cu   basis set group =>   1
Atom   1Cl   basis set group =>   2


           ************************************************************
           *        Program running with 24 parallel MPI-processes    *
           *              working on a common directory               *
           ************************************************************
------------------------------------------------------------------------------
                           ORCA GTO INTEGRAL CALCULATION
------------------------------------------------------------------------------

                         BASIS SET STATISTICS AND STARTUP INFO

 # of primitive gaussian shells          ...   66
 # of primitive gaussian functions       ...  174
 # of contracted shells                  ...   32
 # of contracted basis functions         ...  106
 Highest angular momentum                ...    4
 Maximum contraction depth               ...    8
 Integral package used                   ... LIBINT
 Integral threshhold            Thresh   ...  1.000e-12
 Primitive cut-off              TCut     ...  1.000e-14


------------------------------ INTEGRAL EVALUATION ----------------------------


 * One electron integrals 
 Pre-screening matrix                    ... done
 Shell pair data                         ... done (   0.000 sec)



           ************************************************************
           *        Program running with 24 parallel MPI-processes    *
           *              working on a common directory               *
           ************************************************************
-------------------------------------------------------------------------------
                                 ORCA SCF
-------------------------------------------------------------------------------

------------
SCF SETTINGS
------------
Hamiltonian:
 Ab initio Hamiltonian  Method          .... Hartree-Fock(GTOs)


General Settings:
 Integral files         IntName         .... 51_CuCl
 Hartree-Fock type      HFTyp           .... RHF
 Total Charge           Charge          ....    0
 Multiplicity           Mult            ....    1
 Number of Electrons    NEL             ....   46
 Basis Dimension        Dim             ....  106
 Nuclear Repulsion      ENuc            ....    126.0808902629 Eh

Convergence Acceleration:
 DIIS                   CNVDIIS         .... on
   Start iteration      DIISMaxIt       ....    12
   Startup error        DIISStart       ....  0.200000
   # of expansion vecs  DIISMaxEq       ....     5
   Bias factor          DIISBfac        ....   1.050
   Max. coefficient     DIISMaxC        ....  10.000
 Newton-Raphson         CNVNR           .... off
 SOSCF                  CNVSOSCF        .... off
 Level Shifting         CNVShift        .... on
   Level shift para.    LevelShift      ....    0.2500
   Turn off err/grad.   ShiftErr        ....    0.0010
 Zerner damping         CNVZerner       .... off
 Static damping         CNVDamp         .... on
   Fraction old density DampFac         ....    0.7000
   Max. Damping (<1)    DampMax         ....    0.9800
   Min. Damping (>=0)   DampMin         ....    0.0000
   Turn off err/grad.   DampErr         ....    0.1000
 Fernandez-Rico         CNVRico         .... off

SCF Procedure:
 Maximum # iterations   MaxIter         ....   125
 SCF integral mode      SCFMode         .... Direct
   Integral package                     .... LIBINT
 Reset frequency        DirectResetFreq ....    20
 Integral Threshold     Thresh          ....  1.000e-12 Eh
 Primitive CutOff       TCut            ....  1.000e-14 Eh

Convergence Tolerance:
 Convergence Check Mode ConvCheckMode   .... Total+1el-Energy
 Convergence forced     ConvForced      .... 1
 Energy Change          TolE            ....  1.000e-09 Eh
 1-El. energy change                    ....  1.000e-06 Eh
 DIIS Error             TolErr          ....  1.000e-08


Diagonalization of the overlap matrix:
Smallest eigenvalue                        ... 1.042e-02
Time for diagonalization                   ...    0.003 sec
Threshold for overlap eigenvalues          ... 1.000e-08
Number of eigenvalues below threshold      ... 0
Time for construction of square roots      ...    0.002 sec
Total time needed                          ...    0.005 sec

-------------------
DFT GRID GENERATION
-------------------

General Integration Accuracy     IntAcc      ...  4.340
Radial Grid Type                 RadialGrid  ... Gauss-Chebyshev
Angular Grid (max. acc.)         AngularGrid ... Lebedev-110
Angular grid pruning method      GridPruning ... 3 (G Style)
Weight generation scheme         WeightScheme... Becke
Basis function cutoff            BFCut       ...    1.0000e-12
Integration weight cutoff        WCut        ...    1.0000e-14
Grids for H and He will be reduced by one unit

# of grid points (after initial pruning)     ...   4756 (   0.0 sec)
# of grid points (after weights+screening)   ...   4732 (   0.0 sec)
nearest neighbour list constructed           ...    0.0 sec
Grid point re-assignment to atoms done       ...    0.0 sec
Grid point division into batches done        ...    0.0 sec
Reduced shell lists constructed in    0.0 sec

Total number of grid points                  ...     4732
Total number of batches                      ...       75
Average number of points per batch           ...       63
Average number of grid points per atom       ...     2366
Average number of shells per batch           ...     8.00 (25.00%)
Average number of basis functions per batch  ...    24.00 (22.64%)
Average number of large shells per batch     ...     6.40 (80.00%)
Average number of large basis fcns per batch ...    17.60 (73.33%)
Maximum spatial batch extension              ...  17.39, 26.34, 14.89 au
Average spatial batch extension              ...   0.85,  1.17,  0.79 au

Time for grid setup =    0.023 sec

------------------------------
INITIAL GUESS: MODEL POTENTIAL
------------------------------
Loading Hartree-Fock densities                     ... done
Calculating cut-offs                               ... done
Setting up the integral package                    ... done
Initializing the effective Hamiltonian             ... done
Starting the Coulomb interaction                   ... done (   0.0 sec)
Reading the grid                                   ... done
Mapping shells                                     ... done
Starting the XC term evaluation                    ... done (   0.0 sec)
Transforming the Hamiltonian                       ... done (   0.0 sec)
Diagonalizing the Hamiltonian                      ... done (   0.0 sec)
Back transforming the eigenvectors                 ... done (   0.0 sec)
Now organizing SCF variables                       ... done
                      ------------------
                      INITIAL GUESS DONE (   0.1 sec)
                      ------------------
--------------
SCF ITERATIONS
--------------
ITER       Energy         Delta-E        Max-DP      RMS-DP      [F,P]     Damp
               ***  Starting incremental Fock matrix formation  ***
  0  -2098.4285566507   0.000000000000 0.05431478  0.00104392  0.1466923 0.7000
  1  -2098.4484451315  -0.019888480830 0.04023148  0.00082252  0.1023293 0.7000
                               ***Turning on DIIS***
  2  -2098.4614798094  -0.013034677911 0.08574345  0.00194573  0.0730435 0.0000
  3  -2098.4333722298   0.028107579571 0.02475727  0.00054538  0.0212448 0.0000
  4  -2098.6029716313  -0.169599401500 0.01296838  0.00025581  0.0118801 0.0000
  5  -2098.4230949367   0.179876694685 0.00769354  0.00015687  0.0060430 0.0000
  6  -2098.5001183780  -0.077023441376 0.00810240  0.00015828  0.0042006 0.0000
  7  -2098.4869431905   0.013175187533 0.00450151  0.00009470  0.0025416 0.0000
  8  -2098.4871411594  -0.000197968855 0.00315264  0.00005844  0.0016157 0.0000
  9  -2098.4904269336  -0.003285774213 0.00310993  0.00005668  0.0009593 0.0000
 10  -2098.4926017448  -0.002174811211 0.00080992  0.00001364  0.0002488 0.0000
 11  -2098.4916738180   0.000927926802 0.00028944  0.00000459  0.0001239 0.0000
 12  -2098.4943515945  -0.002677776502 0.00014030  0.00000229  0.0000860 0.0000
 13  -2098.4931237194   0.001227875045 0.00005379  0.00000086  0.0000166 0.0000
 14  -2098.4932938109  -0.000170091481 0.00001326  0.00000022  0.0000043 0.0000
 15  -2098.4932865881   0.000007222789 0.00000465  0.00000008  0.0000013 0.0000
 16  -2098.4932877090  -0.000001120919 0.00000190  0.00000003  0.0000007 0.0000
 17  -2098.4932870621   0.000000646951 0.00000094  0.00000002  0.0000004 0.0000
 18  -2098.4932867723   0.000000289811 0.00000050  0.00000001  0.0000003 0.0000
 19  -2098.4932883591  -0.000001586820 0.00000026  0.00000000  0.0000001 0.0000
               *** Restarting incremental Fock matrix formation ***
                                   *** Resetting DIIS ***
 20  -2098.4932872182   0.000001140914 0.00000011  0.00000000  0.0000001 0.0000
 21  -2098.4932875493  -0.000000331155 0.00000005  0.00000000  0.0000000 0.0000
 22  -2098.4932868282   0.000000721130 0.00000011  0.00000000  0.0000000 0.0000
                            ***DIIS convergence achieved***

               *****************************************************
               *                     SUCCESS                       *
               *           SCF CONVERGED AFTER  23 CYCLES          *
               *****************************************************


----------------
TOTAL SCF ENERGY
----------------

Total Energy       :        -2098.49328723 Eh          -57102.90540 eV

Components:
Nuclear Repulsion  :          126.08089026 Eh            3430.83544 eV
Electronic Energy  :        -2224.57417749 Eh          -60533.74085 eV
One Electron Energy:        -3177.41119247 Eh          -86461.75418 eV
Two Electron Energy:          952.83701498 Eh           25928.01333 eV

Virial components:
Potential Energy   :        -4196.99549586 Eh         -114206.05357 eV
Kinetic Energy     :         2098.50220864 Eh           57103.14817 eV
Virial Ratio       :            1.99999575


---------------
SCF CONVERGENCE
---------------

  Last Energy change         ...   -3.9690e-07  Tolerance :   1.0000e-09
  Last MAX-Density change    ...    4.5175e-08  Tolerance :   1.0000e-08
  Last RMS-Density change    ...    6.5871e-10  Tolerance :   1.0000e-09
  Last DIIS Error            ...    1.1939e-08  Tolerance :   1.0000e-08

             **** THE GBW FILE WAS UPDATED (51_CuCl.gbw) ****
             **** DENSITY FILE WAS UPDATED (51_CuCl.scfp) ****
             **** ENERGY FILE WAS UPDATED (51_CuCl.en.tmp) ****
             **** THE GBW FILE WAS UPDATED (51_CuCl.gbw) ****
             **** DENSITY FILE WAS UPDATED (51_CuCl.scfp) ****
----------------
ORBITAL ENERGIES
----------------

  NO   OCC          E(Eh)            E(eV) 
   0   2.0000    -328.843119     -8948.2762 
   1   2.0000    -104.746562     -2850.2988 
   2   2.0000     -40.870318     -1112.1379 
   3   2.0000     -35.670274      -970.6375 
   4   2.0000     -35.670274      -970.6375 
   5   2.0000     -35.667782      -970.5697 
   6   2.0000     -10.475291      -285.0472 
   7   2.0000      -7.942005      -216.1130 
   8   2.0000      -7.941219      -216.0915 
   9   2.0000      -7.941219      -216.0915 
  10   2.0000      -5.062781      -137.7653 
  11   2.0000      -3.378851       -91.9432 
  12   2.0000      -3.375092       -91.8409 
  13   2.0000      -3.375092       -91.8409 
  14   2.0000      -0.996478       -27.1155 
  15   2.0000      -0.550941       -14.9919 
  16   2.0000      -0.550941       -14.9919 
  17   2.0000      -0.549369       -14.9491 
  18   2.0000      -0.540497       -14.7077 
  19   2.0000      -0.540497       -14.7077 
  20   2.0000      -0.406044       -11.0490 
  21   2.0000      -0.386969       -10.5300 
  22   2.0000      -0.386969       -10.5300 
  23   0.0000      -0.002374        -0.0646 
  24   0.0000       0.135821         3.6959 
  25   0.0000       0.135821         3.6959 
  26   0.0000       0.177084         4.8187 
  27   0.0000       0.223222         6.0742 
  28   0.0000       0.247120         6.7245 
  29   0.0000       0.247120         6.7245 
  30   0.0000       0.288969         7.8632 
  31   0.0000       0.288969         7.8632 
  32   0.0000       0.342788         9.3277 
  33   0.0000       0.552835        15.0434 
  34   0.0000       0.566957        15.4277 
  35   0.0000       0.566957        15.4277 
  36   0.0000       0.663962        18.0673 
  37   0.0000       0.714879        19.4529 
  38   0.0000       0.714879        19.4529 
  39   0.0000       0.744822        20.2676 
  40   0.0000       0.744822        20.2676 
  41   0.0000       0.795011        21.6333 
  42   0.0000       0.795011        21.6333 
  43   0.0000       0.959430        26.1074 
  44   0.0000       1.068600        29.0781 
  45   0.0000       1.068600        29.0781 
  46   0.0000       1.160564        31.5805 
  47   0.0000       1.160564        31.5805 
  48   0.0000       1.229116        33.4460 
  49   0.0000       1.476078        40.1661 
  50   0.0000       2.153519        58.6002 
  51   0.0000       2.153519        58.6002 
  52   0.0000       2.225512        60.5593 
  53   0.0000       2.225512        60.5593 
  54   0.0000       2.266724        61.6807 
  55   0.0000       2.479647        67.4746 
  56   0.0000       2.479647        67.4746 
  57   0.0000       2.484564        67.6084 
  58   0.0000       2.484564        67.6084 
  59   0.0000       2.537498        69.0488 
  60   0.0000       2.553466        69.4833 
  61   0.0000       2.553466        69.4833 
  62   0.0000       2.655582        72.2621 
  63   0.0000       2.655582        72.2621 
  64   0.0000       2.782319        75.7107 
  65   0.0000       3.368819        91.6702 
  66   0.0000       3.368819        91.6702 
  67   0.0000       3.422475        93.1303 
  68   0.0000       3.583106        97.5013 
  69   0.0000       3.790990       103.1581 
  70   0.0000       3.790990       103.1581 
  71   0.0000       3.794778       103.2611 
  72   0.0000       3.794778       103.2611 
  73   0.0000       3.902690       106.1976 
  74   0.0000       3.902690       106.1976 
  75   0.0000       4.180249       113.7504 
  76   0.0000       4.180249       113.7504 
  77   0.0000       4.223801       114.9355 
  78   0.0000       4.223801       114.9355 
  79   0.0000       4.325072       117.6912 
  80   0.0000       4.382332       119.2493 
  81   0.0000       8.729094       237.5307 
  82   0.0000       8.729094       237.5307 
  83   0.0000       8.790452       239.2004 
  84   0.0000       8.790452       239.2004 
  85   0.0000       8.874760       241.4945 
  86   0.0000      11.576191       315.0042 
  87   0.0000      11.576191       315.0042 
  88   0.0000      11.747929       319.6774 
  89   0.0000      13.724382       373.4594 
  90   0.0000      13.724382       373.4594 
  91   0.0000      13.725296       373.4843 
  92   0.0000      13.725296       373.4843 
  93   0.0000      13.725637       373.4936 
  94   0.0000      13.725637       373.4936 
  95   0.0000      13.725816       373.4984 
  96   0.0000      13.725816       373.4984 
  97   0.0000      13.730741       373.6325 
  98   0.0000      13.974898       380.2763 
  99   0.0000      13.974898       380.2763 
 100   0.0000      13.977243       380.3401 
 101   0.0000      13.977243       380.3401 
 102   0.0000      14.007136       381.1536 
 103   0.0000      14.007136       381.1536 
 104   0.0000      14.156493       385.2178 
 105   0.0000      25.804930       702.1878 

                    ********************************
                    * MULLIKEN POPULATION ANALYSIS *
                    ********************************

-----------------------
MULLIKEN ATOMIC CHARGES
-----------------------
   0 Cu:    0.595096
   1 Cl:   -0.595096
Sum of atomic charges:   -0.0000000

--------------------------------
MULLIKEN REDUCED ORBITAL CHARGES
--------------------------------
  0 Cus       :     6.243539  s :     6.243539
      pz      :     4.080203  p :    12.175613
      px      :     4.047705
      py      :     4.047705
      dz2     :     1.967646  d :     9.984923
      dxz     :     2.008922
      dyz     :     2.008922
      dx2y2   :     1.999716
      dxy     :     1.999716
      f0      :     0.000376  f :     0.000828
      f+1     :     0.000196
      f-1     :     0.000196
      f+2     :     0.000030
      f-2     :     0.000030
      f+3     :     0.000000
      f-3     :     0.000000
      g0      :     0.000001  g :     0.000002
      g+1     :     0.000000
      g-1     :     0.000000
      g+2     :     0.000000
      g-2     :     0.000000
      g+3     :     0.000000
      g-3     :     0.000000
      g+4     :     0.000000
      g-4     :     0.000000
  1 Cls       :     5.938973  s :     5.938973
      pz      :     3.757681  p :    11.634679
      px      :     3.938499
      py      :     3.938499
      dz2     :     0.010346  d :     0.019265
      dxz     :     0.004239
      dyz     :     0.004239
      dx2y2   :     0.000221
      dxy     :     0.000221
      f0      :     0.001235  f :     0.002179
      f+1     :     0.000439
      f-1     :     0.000439
      f+2     :     0.000033
      f-2     :     0.000033
      f+3     :     0.000000
      f-3     :     0.000000


                     *******************************
                     * LOEWDIN POPULATION ANALYSIS *
                     *******************************

----------------------
LOEWDIN ATOMIC CHARGES
----------------------
   0 Cu:    0.046278
   1 Cl:   -0.046278

-------------------------------
LOEWDIN REDUCED ORBITAL CHARGES
-------------------------------
  0 Cus       :     6.310065  s :     6.310065
      pz      :     4.237880  p :    12.388139
      px      :     4.075129
      py      :     4.075129
      dz2     :     2.102800  d :    10.253448
      dxz     :     2.075834
      dyz     :     2.075834
      dx2y2   :     1.999490
      dxy     :     1.999490
      f0      :     0.001178  f :     0.002064
      f+1     :     0.000413
      f-1     :     0.000413
      f+2     :     0.000030
      f-2     :     0.000030
      f+3     :     0.000000
      f-3     :     0.000000
      g0      :     0.000003  g :     0.000006
      g+1     :     0.000001
      g-1     :     0.000001
      g+2     :     0.000000
      g-2     :     0.000000
      g+3     :     0.000000
      g-3     :     0.000000
      g+4     :     0.000000
      g-4     :     0.000000
  1 Cls       :     5.625989  s :     5.625989
      pz      :     3.704043  p :    11.383582
      px      :     3.839769
      py      :     3.839769
      dz2     :     0.015568  d :     0.031412
      dxz     :     0.007546
      dyz     :     0.007546
      dx2y2   :     0.000376
      dxy     :     0.000376
      f0      :     0.002474  f :     0.005296
      f+1     :     0.001307
      f-1     :     0.001307
      f+2     :     0.000104
      f-2     :     0.000104
      f+3     :     0.000000
      f-3     :     0.000000


                      *****************************
                      * MAYER POPULATION ANALYSIS *
                      *****************************

  NA   - Mulliken gross atomic population
  ZA   - Total nuclear charge
  QA   - Mulliken gross atomic charge
  VA   - Mayer's total valence
  BVA  - Mayer's bonded valence
  FA   - Mayer's free valence

  ATOM       NA         ZA         QA         VA         BVA        FA
  0 Cu    28.4049    29.0000     0.5951     0.7786     0.7786    -0.0000
  1 Cl    17.5951    17.0000    -0.5951     0.7786     0.7786    -0.0000

  Mayer bond orders larger than 0.100000
B(  0-Cu,  1-Cl) :   0.7786 

-------
TIMINGS
-------

Total SCF time: 0 days 0 hours 0 min 4 sec 

Total time                  ....       4.138 sec
Sum of individual times     ....       3.906 sec  ( 94.4%)

Fock matrix formation       ....       3.701 sec  ( 89.4%)
Diagonalization             ....       0.040 sec  (  1.0%)
Density matrix formation    ....       0.006 sec  (  0.1%)
Population analysis         ....       0.003 sec  (  0.1%)
Initial guess               ....       0.107 sec  (  2.6%)
Orbital Transformation      ....       0.000 sec  (  0.0%)
Orbital Orthonormalization  ....       0.000 sec  (  0.0%)
DIIS solution               ....       0.026 sec  (  0.6%)


           ************************************************************
           *        Program running with 24 parallel MPI-processes    *
           *              working on a common directory               *
           ************************************************************


------------------------------------------------------------------------------- 
                              ORCA-MATRIX DRIVEN CI                            
------------------------------------------------------------------------------- 

--------------------------------
AUTOMATIC CHOICE OF INCORE LEVEL
--------------------------------

Memory available                           ...   2500.00 MB
Memory needed for S+T                      ...     14.35 MB
Memory needed for J+K                      ...     28.81 MB
Memory needed for DIIS                     ...    200.88 MB
Memory needed for 3-ext                    ...     56.71 MB
Memory needed for 4-ext                    ...    183.22 MB
Memory needed for triples                  ...     21.81 MB
 -> Final InCoreLevel    ... 5
 -> check shows that triples correction can be computed


Wavefunction type
-----------------
Correlation treatment                      ...      CCSD     
Single excitations                         ... ON
Orbital optimization                       ... OFF
Calculation of Z vector                    ... OFF
Calculation of Brueckner orbitals          ... OFF
Perturbative triple excitations            ... ON
Calculation of F12 correction              ... OFF
Frozen core treatment                      ... chemical core (20 el)
Reference Wavefunction                     ... RHF
  Internal Orbitals:    10 ...   22 ( 13 MO's/ 26 electrons)
  Virtual  Orbitals:    23 ...  105 ( 83 MO's              )
Number of AO's                             ...    106
Number of electrons                        ...     46
Number of correlated electrons             ...     26

Algorithmic settings
--------------------
Integral transformation                    ... AO direct full transformation
K(C) Formation                             ... FULL-MO TRAFO
Maximum number of iterations               ...        50
Convergence tolerance (max. residuum)      ... 1.000e-06
Level shift for amplitude update           ... 2.000e-01
Maximum number of DIIS vectors             ...         7
DIIS turned on at iteration                ...         0
Damping before turning on DIIS             ...     0.500
Damping after turning on DIIS              ...     0.000
Pair specific amplitude update             ... OFF
Natural orbital iterations                 ... OFF
Perturbative natural orbital generation    ... OFF
Printlevel                                 ... 2

Memory handling:
----------------
Maximum memory for working arrays          ...   2500 MB
Data storage in matrix containers          ... UNCOMPRESSED
Data type for integral storage             ... DOUBLE
In-Core Storage of quantities:
   Amplitudes+Sigma Vector      ... YES
   J+K operators                ... YES
   DIIS vectors                 ... YES
   3-external integrals         ... YES
   4-external integrals         ... YES


Initializing the integral package          ... done
Warning: reference  - re-canonicalizations have been set to INT 1 VIRT 1

--------------------------
CLOSED-SHELL FOCK OPERATOR
--------------------------

<ss|ss>:         1830 b           70 skpd (  3.8%)    0.001 s ( 0.000 ms/b)
<ss|sp>:         6180 b          253 skpd (  4.1%)    0.002 s ( 0.000 ms/b)
<ss|sd>:         4440 b          193 skpd (  4.3%)    0.001 s ( 0.000 ms/b)
<ss|sf>:         1860 b           64 skpd (  3.4%)    0.001 s ( 0.000 ms/b)
<ss|sg>:          600 b           74 skpd ( 12.3%)    0.000 s ( 0.001 ms/b)
<ss|pp>:         3180 b          109 skpd (  3.4%)    0.001 s ( 0.000 ms/b)
<ss|pd>:         4140 b          194 skpd (  4.7%)    0.001 s ( 0.000 ms/b)
<ss|pf>:         1740 b           85 skpd (  4.9%)    0.001 s ( 0.000 ms/b)
<ss|pg>:          600 b           66 skpd ( 11.0%)    0.001 s ( 0.001 ms/b)
<ss|dd>:         1680 b           59 skpd (  3.5%)    0.001 s ( 0.001 ms/b)
<ss|df>:         1260 b           98 skpd (  7.8%)    0.001 s ( 0.001 ms/b)
<ss|dg>:          420 b           31 skpd (  7.4%)    0.001 s ( 0.002 ms/b)
<ss|ff>:          360 b           12 skpd (  3.3%)    0.000 s ( 0.001 ms/b)
<ss|fg>:          180 b            6 skpd (  3.3%)    0.000 s ( 0.002 ms/b)
<ss|gg>:           60 b            2 skpd (  3.3%)    0.001 s ( 0.009 ms/b)
<sp|sp>:         5356 b          199 skpd (  3.7%)    0.002 s ( 0.000 ms/b)
<sp|sd>:         7622 b          319 skpd (  4.2%)    0.002 s ( 0.000 ms/b)
<sp|sf>:         3193 b          107 skpd (  3.4%)    0.001 s ( 0.000 ms/b)
<sp|sg>:         1030 b          135 skpd ( 13.1%)    0.001 s ( 0.001 ms/b)
<sp|pp>:         5459 b          109 skpd (  2.0%)    0.003 s ( 0.000 ms/b)
<sp|pd>:         7107 b          273 skpd (  3.8%)    0.003 s ( 0.000 ms/b)
<sp|pf>:         2987 b          119 skpd (  4.0%)    0.002 s ( 0.001 ms/b)
<sp|pg>:         1030 b          129 skpd ( 12.5%)    0.002 s ( 0.002 ms/b)
<sp|dd>:         2884 b           92 skpd (  3.2%)    0.004 s ( 0.001 ms/b)
<sp|df>:         2163 b          166 skpd (  7.7%)    0.002 s ( 0.001 ms/b)
<sp|dg>:          721 b           67 skpd (  9.3%)    0.002 s ( 0.003 ms/b)
<sp|ff>:          618 b           17 skpd (  2.8%)    0.001 s ( 0.001 ms/b)
<sp|fg>:          309 b            9 skpd (  2.9%)    0.001 s ( 0.004 ms/b)
<sp|gg>:          103 b            2 skpd (  1.9%)    0.002 s ( 0.016 ms/b)
<sd|sd>:         2775 b          106 skpd (  3.8%)    0.001 s ( 0.000 ms/b)
<sd|sf>:         2294 b           71 skpd (  3.1%)    0.001 s ( 0.000 ms/b)
<sd|sg>:          740 b           96 skpd ( 13.0%)    0.001 s ( 0.002 ms/b)
<sd|pp>:         3922 b          108 skpd (  2.8%)    0.003 s ( 0.001 ms/b)
<sd|pd>:         5106 b          185 skpd (  3.6%)    0.004 s ( 0.001 ms/b)
<sd|pf>:         2146 b           97 skpd (  4.5%)    0.002 s ( 0.001 ms/b)
<sd|pg>:          740 b          102 skpd ( 13.8%)    0.002 s ( 0.004 ms/b)
<sd|dd>:         2072 b           52 skpd (  2.5%)    0.005 s ( 0.002 ms/b)
<sd|df>:         1554 b          105 skpd (  6.8%)    0.003 s ( 0.002 ms/b)
<sd|dg>:          518 b           57 skpd ( 11.0%)    0.003 s ( 0.006 ms/b)
<sd|ff>:          444 b            9 skpd (  2.0%)    0.001 s ( 0.003 ms/b)
<sd|fg>:          222 b            6 skpd (  2.7%)    0.002 s ( 0.008 ms/b)
<sd|gg>:           74 b            1 skpd (  1.4%)    0.003 s ( 0.034 ms/b)
<sf|sf>:          496 b           12 skpd (  2.4%)    0.000 s ( 0.001 ms/b)
<sf|sg>:          310 b           38 skpd ( 12.3%)    0.001 s ( 0.003 ms/b)
<sf|pp>:         1643 b           31 skpd (  1.9%)    0.002 s ( 0.001 ms/b)
<sf|pd>:         2139 b           63 skpd (  2.9%)    0.003 s ( 0.002 ms/b)
<sf|pf>:          899 b           32 skpd (  3.6%)    0.002 s ( 0.002 ms/b)
<sf|pg>:          310 b           42 skpd ( 13.5%)    0.002 s ( 0.007 ms/b)
<sf|dd>:          868 b           18 skpd (  2.1%)    0.004 s ( 0.004 ms/b)
<sf|df>:          651 b           39 skpd (  6.0%)    0.003 s ( 0.006 ms/b)
<sf|dg>:          217 b           31 skpd ( 14.3%)    0.002 s ( 0.013 ms/b)
<sf|ff>:          186 b            1 skpd (  0.5%)    0.001 s ( 0.005 ms/b)
<sf|fg>:           93 b            2 skpd (  2.2%)    0.001 s ( 0.015 ms/b)
<sf|gg>:           31 b            0 skpd (  0.0%)    0.002 s ( 0.062 ms/b)
<sg|sg>:           55 b           12 skpd ( 21.8%)    0.000 s ( 0.005 ms/b)
<sg|pp>:          530 b           59 skpd ( 11.1%)    0.001 s ( 0.002 ms/b)
<sg|pd>:          690 b           84 skpd ( 12.2%)    0.001 s ( 0.002 ms/b)
<sg|pf>:          290 b           36 skpd ( 12.4%)    0.001 s ( 0.003 ms/b)
<sg|pg>:          100 b           22 skpd ( 22.0%)    0.001 s ( 0.013 ms/b)
<sg|dd>:          280 b           32 skpd ( 11.4%)    0.002 s ( 0.008 ms/b)
<sg|df>:          210 b           32 skpd ( 15.2%)    0.001 s ( 0.006 ms/b)
<sg|dg>:           70 b           16 skpd ( 22.9%)    0.001 s ( 0.024 ms/b)
<sg|ff>:           60 b            6 skpd ( 10.0%)    0.000 s ( 0.008 ms/b)
<sg|fg>:           30 b            3 skpd ( 10.0%)    0.001 s ( 0.027 ms/b)
<sg|gg>:           10 b            1 skpd ( 10.0%)    0.001 s ( 0.112 ms/b)
<pp|pp>:         1431 b            8 skpd (  0.6%)    0.002 s ( 0.002 ms/b)
<pp|pd>:         3657 b           55 skpd (  1.5%)    0.003 s ( 0.001 ms/b)
<pp|pf>:         1537 b           18 skpd (  1.2%)    0.002 s ( 0.001 ms/b)
<pp|pg>:          530 b           46 skpd (  8.7%)    0.002 s ( 0.004 ms/b)
<pp|dd>:         1484 b           16 skpd (  1.1%)    0.004 s ( 0.003 ms/b)
<pp|df>:         1113 b           58 skpd (  5.2%)    0.002 s ( 0.002 ms/b)
<pp|dg>:          371 b           12 skpd (  3.2%)    0.003 s ( 0.008 ms/b)
<pp|ff>:          318 b            1 skpd (  0.3%)    0.001 s ( 0.004 ms/b)
<pp|fg>:          159 b            1 skpd (  0.6%)    0.002 s ( 0.011 ms/b)
<pp|gg>:           53 b            0 skpd (  0.0%)    0.002 s ( 0.047 ms/b)
<pd|pd>:         2415 b           70 skpd (  2.9%)    0.005 s ( 0.002 ms/b)
<pd|pf>:         2001 b           66 skpd (  3.3%)    0.004 s ( 0.002 ms/b)
<pd|pg>:          690 b           82 skpd ( 11.9%)    0.005 s ( 0.008 ms/b)
<pd|dd>:         1932 b           36 skpd (  1.9%)    0.009 s ( 0.005 ms/b)
<pd|df>:         1449 b           90 skpd (  6.2%)    0.004 s ( 0.003 ms/b)
<pd|dg>:          483 b           34 skpd (  7.0%)    0.006 s ( 0.014 ms/b)
<pd|ff>:          414 b            7 skpd (  1.7%)    0.003 s ( 0.007 ms/b)
<pd|fg>:          207 b            4 skpd (  1.9%)    0.004 s ( 0.020 ms/b)
<pd|gg>:           69 b            1 skpd (  1.4%)    0.006 s ( 0.084 ms/b)
<pf|pf>:          435 b           19 skpd (  4.4%)    0.001 s ( 0.003 ms/b)
<pf|pg>:          290 b           38 skpd ( 13.1%)    0.003 s ( 0.012 ms/b)
<pf|dd>:          812 b           28 skpd (  3.4%)    0.006 s ( 0.007 ms/b)
<pf|df>:          609 b           48 skpd (  7.9%)    0.003 s ( 0.005 ms/b)
<pf|dg>:          203 b           32 skpd ( 15.8%)    0.004 s ( 0.023 ms/b)
<pf|ff>:          174 b            6 skpd (  3.4%)    0.002 s ( 0.012 ms/b)
<pf|fg>:           87 b            3 skpd (  3.4%)    0.003 s ( 0.032 ms/b)
<pf|gg>:           29 b            1 skpd (  3.4%)    0.004 s ( 0.132 ms/b)
<pg|pg>:           55 b           11 skpd ( 20.0%)    0.001 s ( 0.021 ms/b)
<pg|dd>:          280 b           29 skpd ( 10.4%)    0.003 s ( 0.014 ms/b)
<pg|df>:          210 b           32 skpd ( 15.2%)    0.001 s ( 0.008 ms/b)
<pg|dg>:           70 b           17 skpd ( 24.3%)    0.002 s ( 0.041 ms/b)
<pg|ff>:           60 b            7 skpd ( 11.7%)    0.001 s ( 0.016 ms/b)
<pg|fg>:           30 b            3 skpd ( 10.0%)    0.001 s ( 0.054 ms/b)
<pg|gg>:           10 b            1 skpd ( 10.0%)    0.002 s ( 0.214 ms/b)
<dd|dd>:          406 b            2 skpd (  0.5%)    0.004 s ( 0.011 ms/b)
<dd|df>:          588 b           31 skpd (  5.3%)    0.003 s ( 0.005 ms/b)
<dd|dg>:          196 b           12 skpd (  6.1%)    0.004 s ( 0.024 ms/b)
<dd|ff>:          168 b            1 skpd (  0.6%)    0.002 s ( 0.012 ms/b)
<dd|fg>:           84 b            1 skpd (  1.2%)    0.003 s ( 0.036 ms/b)
<dd|gg>:           28 b            0 skpd (  0.0%)    0.004 s ( 0.155 ms/b)
<df|df>:          231 b           21 skpd (  9.1%)    0.003 s ( 0.013 ms/b)
<df|dg>:          147 b           20 skpd ( 13.6%)    0.004 s ( 0.034 ms/b)
<df|ff>:          126 b            6 skpd (  4.8%)    0.002 s ( 0.020 ms/b)
<df|fg>:           63 b            3 skpd (  4.8%)    0.003 s ( 0.054 ms/b)
<df|gg>:           21 b            1 skpd (  4.8%)    0.005 s ( 0.232 ms/b)
<dg|dg>:           28 b            5 skpd ( 17.9%)    0.003 s ( 0.112 ms/b)
<dg|ff>:           42 b            6 skpd ( 14.3%)    0.001 s ( 0.029 ms/b)
<dg|fg>:           21 b            3 skpd ( 14.3%)    0.002 s ( 0.092 ms/b)
<dg|gg>:            7 b            1 skpd ( 14.3%)    0.002 s ( 0.375 ms/b)
<ff|ff>:           21 b            0 skpd (  0.0%)    0.001 s ( 0.047 ms/b)
<ff|fg>:           18 b            0 skpd (  0.0%)    0.002 s ( 0.090 ms/b)
<ff|gg>:            6 b            0 skpd (  0.0%)    0.002 s ( 0.400 ms/b)
<fg|fg>:            6 b            0 skpd (  0.0%)    0.001 s ( 0.204 ms/b)
<fg|gg>:            3 b            0 skpd (  0.0%)    0.002 s ( 0.654 ms/b)
<gg|gg>:            1 b            0 skpd (  0.0%)    0.002 s ( 1.750 ms/b)
Recanonicalizing the internal orbitals
Recanonicalizing the virtual orbitals
Time needed for Fock operator              ...            0.273 sec
Reference energy                           ...  -2098.493287218

------------------------------
PARTIAL COULOMB TRANSFORMATION
------------------------------

Transformation type                        ... one-operator
Dimension of the basis                     ...  106
Number of internal MOs                     ...   96 (10-105)
Pair cutoff                                ... 0.000e+00 Eh
Number of AO pairs included in the trafo   ... 5671
Total Number of distinct AO pairs          ... 5671
Memory devoted for trafo                   ... 2500.0 MB 
Max. Number of MO pairs treated together   ... 57781      
Max. Number of MOs treated per batch       ...  545      
Number Format for Storage                  ... Double (8 Byte)
AO-integral source                         ... DIRECT
Integral package used                      ... LIBINT

Starting integral evaluation:
<ss|**>:        30300 b        0 skpd     0.011 s (  0.000 ms/b)
<sp|**>:        52015 b        0 skpd     0.018 s (  0.000 ms/b)
<sd|**>:        37370 b        0 skpd     0.022 s (  0.001 ms/b)
<sf|**>:        15655 b        0 skpd     0.014 s (  0.001 ms/b)
<sg|**>:         5050 b        0 skpd     0.020 s (  0.004 ms/b)
<pp|**>:        26765 b        0 skpd     0.030 s (  0.001 ms/b)
<pd|**>:        34845 b        0 skpd     0.042 s (  0.001 ms/b)
<pf|**>:        14645 b        0 skpd     0.031 s (  0.002 ms/b)
<pg|**>:         5050 b        0 skpd     0.032 s (  0.006 ms/b)
<dd|**>:        14140 b        0 skpd     0.060 s (  0.004 ms/b)
<df|**>:        10605 b        0 skpd     0.028 s (  0.003 ms/b)
<dg|**>:         3535 b        0 skpd     0.042 s (  0.012 ms/b)
<ff|**>:         3030 b        0 skpd     0.022 s (  0.007 ms/b)
<fg|**>:         1515 b        0 skpd     0.031 s (  0.021 ms/b)
<gg|**>:          505 b        0 skpd     0.040 s (  0.080 ms/b)
Closing buffer AOJ ( 0.01 GB; CompressionRatio= 1.00)
Collecting buffer AOJ 
    ... done with AO integral generation
Number of MO pairs included in the trafo   ... 4656
    ... Now sorting integrals
IBATCH = 1 of  1
Closing buffer JAO ( 0.01 GB; CompressionRatio= 1.00)
Collecting buffer JAO 
TOTAL TIME for half transformation         ...     0.587 sec
AO-integral generation                     ...     0.423 sec
Half transformation                        ...     0.032 sec
J-integral sorting                         ...     0.090 sec

-------------------------- SECOND HALF TRANSFORMATION -------------------------
Formation of (pq|rs)                       ... ok (     0.059 sec)
Integral sorting                           ... ok (     0.577 sec)

------------------
CLOSED SHELL GUESS
------------------

Initial guess performed in     0.014 sec
E(0)                                       ...  -2098.493287218
E(MP2)                                     ...     -1.036633073
Initial E(tot)                             ...  -2099.529920291
<T|T>                                      ...      0.193047100
Number of pairs included                   ... 91
Total number of pairs                      ... 91

------------------------------------------------
                  RHF COUPLED CLUSTER ITERATIONS
------------------------------------------------

Number of amplitudes to be optimized       ... 627978

Iter       E(tot)           E(Corr)          Delta-E          Residual     Time
  0  -2099.529920291     -1.036633073      0.000000000      0.043110136    0.21
                           *** Turning on DIIS ***
  1  -2099.378095674     -0.884808456      0.151824618      0.023410096    0.42
  2  -2099.432054193     -0.938766975     -0.053958520      0.006601700    0.43
  3  -2099.431543640     -0.938256422      0.000510553      0.003824339    0.44
  4  -2099.433029894     -0.939742676     -0.001486254      0.003425336    0.44
  5  -2099.433906118     -0.940618900     -0.000876223      0.002530151    0.44
  6  -2099.434301018     -0.941013800     -0.000394901      0.001920725    0.44
  7  -2099.434502952     -0.941215734     -0.000201934      0.001467578    0.46
  8  -2099.434629629     -0.941342411     -0.000126676      0.001096564    0.45
  9  -2099.434697339     -0.941410121     -0.000067711      0.000467858    0.45
 10  -2099.434704044     -0.941416826     -0.000006705      0.000218332    0.46
 11  -2099.434730319     -0.941443101     -0.000026275      0.000075789    0.44
 12  -2099.434722461     -0.941435243      0.000007858      0.000024443    0.45
 13  -2099.434728649     -0.941441431     -0.000006188      0.000008703    0.45
 14  -2099.434724871     -0.941437653      0.000003778      0.000005130    0.44
 15  -2099.434725827     -0.941438609     -0.000000956      0.000002111    0.44
 16  -2099.434725096     -0.941437878      0.000000731      0.000001153    0.44
 17  -2099.434725339     -0.941438121     -0.000000243      0.000000638    0.44
               --- The Coupled-Cluster iterations have converged ---

----------------------
COUPLED CLUSTER ENERGY
----------------------

E(0)                                       ...  -2098.493287218
E(CORR)                                    ...     -0.941438121
E(TOT)                                     ...  -2099.434725339
Singles Norm <S|S>**1/2                    ...      0.132028583  
T1 diagnostic                              ...      0.025892935  

------------------
LARGEST AMPLITUDES
------------------
  20-> 23  -1-> -1       0.080570
  17-> 23  -1-> -1       0.052136
  20-> 27  -1-> -1       0.042758
  22-> 37  22-> 37       0.036455
  21-> 37  21-> 37       0.036455
  21-> 38  21-> 38       0.036455
  22-> 38  22-> 38       0.036455
  17-> 27  -1-> -1       0.031578
  22-> 34  22-> 34       0.029048
  21-> 35  21-> 35       0.029048
  18-> 28  -1-> -1       0.025081
  19-> 29  -1-> -1       0.025081
  20-> 36  20-> 36       0.023845
  21-> 42  21-> 42       0.021556
  22-> 41  22-> 41       0.021556
  19-> 45  19-> 45       0.020810


        !!!!!!!!!!!!!!!!!!!!!!!!!!!!!!!!!!!!!!!!!!!!!!!!!!!!!!!!!!!!!!!!!!!!!!!!!! 
        !  Warning: Densities are linearized densities !                         !
        !!!!!!!!!!!!!!!!!!!!!!!!!!!!!!!!!!!!!!!!!!!!!!!!!!!!!!!!!!!!!!!!!!!!!!!!!! 

Trace of internal density part =     -0.382443617
Trace of external density part =      0.382443617
----------------------
RHF TRIPLES CORRECTION (Algorithm 1)
----------------------

Multiplier for the singles contribution    ...      1.000000000

10% done
20% done
30% done
40% done
50% done
60% done
70% done
80% done

Triples Correction (T)                     ...     -0.029288477
Scaling of triples based on CCSD energies (Peterson et al. Molecular Physics 113, 1551 (2015))
E(T*) = f*E(T) where f = E(F12-CCSD)/E(CCSD) 
f = CCSD (with F12)/ CCSD (without F12)    ...      1.000000000
Scaled triples correction (T)              ...     -0.029288477

Final correlation energy                   ...     -0.970726598
E(CCSD)                                    ...  -2099.434725339
E(CCSD(T))                                 ...  -2099.464013816

NORM  =      1.208653355 sqrt=     1.099387718
W(HF) =      0.827367082
------------------------------------------------------------------------------
                           ORCA POPULATION ANALYSIS
------------------------------------------------------------------------------
Input electron density              ... 51_CuCl.mdcip
BaseName (.gbw .S,...)              ... 51_CuCl

                    ********************************
                    * MULLIKEN POPULATION ANALYSIS *
                    ********************************

-----------------------
MULLIKEN ATOMIC CHARGES
-----------------------
   0 Cu:    0.473506
   1 Cl:   -0.473506
Sum of atomic charges:   -0.0000000

--------------------------------
MULLIKEN REDUCED ORBITAL CHARGES
--------------------------------
  0 Cus       :     6.404934  s :     6.404934
      pz      :     4.077040  p :    12.209001
      px      :     4.065980
      py      :     4.065980
      dz2     :     1.899846  d :     9.878343
      dxz     :     1.997386
      dyz     :     1.997386
      dx2y2   :     1.991863
      dxy     :     1.991863
      f0      :     0.004657  f :     0.031139
      f+1     :     0.004519
      f-1     :     0.004519
      f+2     :     0.004374
      f-2     :     0.004374
      f+3     :     0.004348
      f-3     :     0.004348
      g0      :     0.000344  g :     0.003076
      g+1     :     0.000343
      g-1     :     0.000343
      g+2     :     0.000342
      g-2     :     0.000342
      g+3     :     0.000341
      g-3     :     0.000341
      g+4     :     0.000339
      g-4     :     0.000339
  1 Cls       :     5.917388  s :     5.917388
      pz      :     3.633842  p :    11.413913
      px      :     3.890035
      py      :     3.890035
      dz2     :     0.032418  d :     0.129354
      dxz     :     0.026756
      dyz     :     0.026756
      dx2y2   :     0.021712
      dxy     :     0.021712
      f0      :     0.002935  f :     0.012850
      f+1     :     0.002062
      f-1     :     0.002062
      f+2     :     0.001506
      f-2     :     0.001506
      f+3     :     0.001390
      f-3     :     0.001390


                     *******************************
                     * LOEWDIN POPULATION ANALYSIS *
                     *******************************

----------------------
LOEWDIN ATOMIC CHARGES
----------------------
   0 Cu:   -0.006087
   1 Cl:    0.006087

-------------------------------
LOEWDIN REDUCED ORBITAL CHARGES
-------------------------------
  0 Cus       :     6.439184  s :     6.439184
      pz      :     4.213607  p :    12.397506
      px      :     4.091950
      py      :     4.091950
      dz2     :     2.034483  d :    10.133959
      dxz     :     2.058107
      dyz     :     2.058107
      dx2y2   :     1.991631
      dxy     :     1.991631
      f0      :     0.005432  f :     0.032359
      f+1     :     0.004740
      f-1     :     0.004740
      f+2     :     0.004375
      f-2     :     0.004375
      f+3     :     0.004348
      f-3     :     0.004348
      g0      :     0.000347  g :     0.003080
      g+1     :     0.000344
      g-1     :     0.000344
      g+2     :     0.000342
      g-2     :     0.000342
      g+3     :     0.000341
      g-3     :     0.000341
      g+4     :     0.000339
      g-4     :     0.000339
  1 Cls       :     5.618093  s :     5.618093
      pz      :     3.620321  p :    11.217496
      px      :     3.798588
      py      :     3.798588
      dz2     :     0.037887  d :     0.142266
      dxz     :     0.030335
      dyz     :     0.030335
      dx2y2   :     0.021855
      dxy     :     0.021855
      f0      :     0.004053  f :     0.016058
      f+1     :     0.003019
      f-1     :     0.003019
      f+2     :     0.001593
      f-2     :     0.001593
      f+3     :     0.001390
      f-3     :     0.001390


                      *****************************
                      * MAYER POPULATION ANALYSIS *
                      *****************************

  NA   - Mulliken gross atomic population
  ZA   - Total nuclear charge
  QA   - Mulliken gross atomic charge
  VA   - Mayer's total valence
  BVA  - Mayer's bonded valence
  FA   - Mayer's free valence

  ATOM       NA         ZA         QA         VA         BVA        FA
  0 Cu    28.5265    29.0000     0.4735     1.6225     0.8995     0.7230
  1 Cl    17.4735    17.0000    -0.4735     1.5605     0.8995     0.6610

  Mayer bond orders larger than 0.100000
B(  0-Cu,  1-Cl) :   0.8995 



------------------------------------------------------------------------------- 
                                     TIMINGS                                   
------------------------------------------------------------------------------- 


Total execution time                   ...       10.562 sec

Fock Matrix Formation                  ...        0.273 sec (  2.6%)
Initial Guess                          ...        0.014 sec (  0.1%)
DIIS Solver                            ...        0.781 sec (  7.4%)
State Vector Update                    ...        0.034 sec (  0.3%)
Sigma-vector construction              ...        6.934 sec ( 65.7%)
  <0|H|D>                              ...        0.002 sec (  0.0% of sigma)
  <D|H|D>(0-ext)                       ...        0.097 sec (  1.4% of sigma)
  <D|H|D>(2-ext Fock)                  ...        0.004 sec (  0.1% of sigma)
  <D|H|D>(2-ext)                       ...        0.176 sec (  2.5% of sigma)
  <D|H|D>(4-ext)                       ...        0.617 sec (  8.9% of sigma)
  <D|H|D>(4-ext-corr)                  ...        0.443 sec (  6.4% of sigma)
  <S|H|0>                              ...        0.005 sec (  0.1% of sigma)
  <S|H|S>                              ...        0.008 sec (  0.1% of sigma)
  <S|H|D>(1-ext)                       ...        0.039 sec (  0.6% of sigma)
  <D|H|S>(1-ext)                       ...        0.047 sec (  0.7% of sigma)
  <S|H|D>(3-ext)                       ...        0.529 sec (  7.6% of sigma)
  Fock-dressing                        ...        3.152 sec ( 45.5% of sigma)
  (ik|jl)-dressing                     ...        0.126 sec (  1.8% of sigma)
  (ij|ab),(ia|jb)-dressing             ...        1.363 sec ( 19.7% of sigma)
  Pair energies                        ...        0.004 sec (  0.1% of sigma)
Total Time for computing (T)           ...        0.853 sec (  8.1% of ALL)
  I/O of integral and amplitudes       ...        0.214 sec ( 25.1% of (T))
  N**6 sorting step                    ...        0.251 sec ( 29.4% of (T))
  External N**7 contributions          ...        0.213 sec ( 24.9% of (T))
  Internal N**7 contributions          ...        0.088 sec ( 10.3% of (T))
  N**6 triples energy contributions    ...        0.088 sec ( 10.3% of (T))
One-particle density matrix            ...        0.002 sec (  0.0%)

----- Orbital basis set information -----
Your calculation utilizes the basis: def2-QZVPP
   F. Weigend and R. Ahlrichs, Phys. Chem. Chem. Phys. 7, 3297 (2005).

----- AuxJ basis set information -----
Your calculation utilizes the auxiliary basis: def2/J
   F. Weigend, Phys. Chem. Chem. Phys. 8, 1057 (2006).

----- AuxC basis set information -----
Your calculation utilizes the auxiliary basis: def2-QZVPP/C
  H-La, Hf-Rn : A. Hellweg, C. Hattig, S. Hofener and W. Klopper, Theor. Chem. Acc. 117, 587 (2007).
        Ce-Lu : J. Chmela and M. E. Harding, Mol. Phys. (2018).

----- AuxJK basis set information -----
Your calculation utilizes the auxiliary basis: def2/JK
   H-Ba, Hf-Rn: F. Weigend, J. Comput. Chem. 29, 167 (2008).

All done

                     -----------------------------------------
                     Extrapolated Energy 2 Basis=  def2-QZVPP
                     -----------------------------------------

---------------------------------
CARTESIAN COORDINATES (ANGSTROEM)
---------------------------------
  Cu     0.000000    0.000000   -0.034591
  Cl     0.000000    0.000000    2.034591

----------------------------
CARTESIAN COORDINATES (A.U.)
----------------------------
  NO LB      ZA    FRAG     MASS         X           Y           Z
   0 Cu   29.0000    0    63.550    0.000000    0.000000   -0.065368
   1 Cl   17.0000    0    35.453    0.000000    0.000000    3.844820

--------------------------------
INTERNAL COORDINATES (ANGSTROEM)
--------------------------------
 Cu     0   0   0     0.000000000000     0.00000000     0.00000000
 Cl     1   0   0     2.069182436354     0.00000000     0.00000000

---------------------------
INTERNAL COORDINATES (A.U.)
---------------------------
 Cu     0   0   0     0.000000000000     0.00000000     0.00000000
 Cl     1   0   0     3.910188125829     0.00000000     0.00000000

---------------------
BASIS SET INFORMATION
---------------------
There are 2 groups of distinct atoms

 Group   1 Type Cu  : 24s18p10d4f2g contracted to 11s6p5d4f2g pattern {114111111111/951111/61111/1111/11}
 Group   2 Type Cl  : 20s14p4d2f1g contracted to 9s6p4d2f1g pattern {1031111111/821111/1111/11/1}

Atom   0Cu   basis set group =>   1
Atom   1Cl   basis set group =>   2
---------------------------------
AUXILIARY/J BASIS SET INFORMATION
---------------------------------
There are 2 groups of distinct atoms

 Group   1 Type Cu  : 19s5p5d3f3g contracted to 8s5p4d3f3g pattern {121111111/11111/2111/111/111}
 Group   2 Type Cl  : 14s5p5d2f1g contracted to 8s4p3d1f1g pattern {71111111/2111/311/2/1}

Atom   0Cu   basis set group =>   1
Atom   1Cl   basis set group =>   2
---------------------------------
AUXILIARY/C BASIS SET INFORMATION
---------------------------------
There are 2 groups of distinct atoms

 Group   1 Type Cu  : 15s13p11d9f7g5h2i contracted to 15s13p11d9f7g5h2i pattern {111111111111111/1111111111111/11111111111/111111111/1111111/11111/11}
 Group   2 Type Cl  : 12s10p9d6f3g1h contracted to 12s10p9d6f3g1h pattern {111111111111/1111111111/111111111/111111/111/1}

Atom   0Cu   basis set group =>   1
Atom   1Cl   basis set group =>   2
----------------------------------
AUXILIARY/JK BASIS SET INFORMATION
----------------------------------
There are 2 groups of distinct atoms

 Group   1 Type Cu  : 19s14p12d10f7g3h1i contracted to 16s13p11d9f5g3h1i pattern {4111111111111111/2111111111111/21111111111/211111111/31111/111/1}
 Group   2 Type Cl  : 16s12p10d4f1g contracted to 13s11p9d4f1g pattern {4111111111111/21111111111/211111111/1111/1}

Atom   0Cu   basis set group =>   1
Atom   1Cl   basis set group =>   2

Checking for AutoStart:
The File: 51_CuCl.gbw exists
Trying to determine its content:
     ... Fine, the file contains calculation information
     ... Fine, the calculation information was read
     ... Fine, the file contains a basis set
     ... Fine, the basis set was read
     ... Fine, the file contains a geometry
     ... Fine, the geometry was read
     ... Fine, the file contains a set of orbitals
     ... Fine, the orbitals can be read
     => possible old guess file was deleted
     => GBW file was renamed to GES file
     => GES file is set as startup file
     => Guess is set to MORead
     ... now leaving AutoStart



           ************************************************************
           *        Program running with 24 parallel MPI-processes    *
           *              working on a common directory               *
           ************************************************************
------------------------------------------------------------------------------
                           ORCA GTO INTEGRAL CALCULATION
------------------------------------------------------------------------------

                         BASIS SET STATISTICS AND STARTUP INFO

 # of primitive gaussian shells          ...   99
 # of primitive gaussian functions       ...  279
 # of contracted shells                  ...   50
 # of contracted basis functions         ...  170
 Highest angular momentum                ...    4
 Maximum contraction depth               ...   11
 Integral package used                   ... LIBINT
 Integral threshhold            Thresh   ...  1.000e-12
 Primitive cut-off              TCut     ...  1.000e-14


------------------------------ INTEGRAL EVALUATION ----------------------------


 * One electron integrals 
 Pre-screening matrix                    ... done
 Shell pair data                         ... done (   0.000 sec)



           ************************************************************
           *        Program running with 24 parallel MPI-processes    *
           *              working on a common directory               *
           ************************************************************
-------------------------------------------------------------------------------
                                 ORCA SCF
-------------------------------------------------------------------------------

------------
SCF SETTINGS
------------
Hamiltonian:
 Ab initio Hamiltonian  Method          .... Hartree-Fock(GTOs)


General Settings:
 Integral files         IntName         .... 51_CuCl
 Hartree-Fock type      HFTyp           .... RHF
 Total Charge           Charge          ....    0
 Multiplicity           Mult            ....    1
 Number of Electrons    NEL             ....   46
 Basis Dimension        Dim             ....  170
 Nuclear Repulsion      ENuc            ....    126.0808902629 Eh

Convergence Acceleration:
 DIIS                   CNVDIIS         .... on
   Start iteration      DIISMaxIt       ....    12
   Startup error        DIISStart       ....  0.200000
   # of expansion vecs  DIISMaxEq       ....     5
   Bias factor          DIISBfac        ....   1.050
   Max. coefficient     DIISMaxC        ....  10.000
 Newton-Raphson         CNVNR           .... off
 SOSCF                  CNVSOSCF        .... off
 Level Shifting         CNVShift        .... on
   Level shift para.    LevelShift      ....    0.2500
   Turn off err/grad.   ShiftErr        ....    0.0010
 Zerner damping         CNVZerner       .... off
 Static damping         CNVDamp         .... on
   Fraction old density DampFac         ....    0.7000
   Max. Damping (<1)    DampMax         ....    0.9800
   Min. Damping (>=0)   DampMin         ....    0.0000
   Turn off err/grad.   DampErr         ....    0.1000
 Fernandez-Rico         CNVRico         .... off

SCF Procedure:
 Maximum # iterations   MaxIter         ....   125
 SCF integral mode      SCFMode         .... Direct
   Integral package                     .... LIBINT
 Reset frequency        DirectResetFreq ....    20
 Integral Threshold     Thresh          ....  1.000e-12 Eh
 Primitive CutOff       TCut            ....  1.000e-14 Eh

Convergence Tolerance:
 Convergence Check Mode ConvCheckMode   .... Total+1el-Energy
 Convergence forced     ConvForced      .... 1
 Energy Change          TolE            ....  1.000e-09 Eh
 1-El. energy change                    ....  1.000e-06 Eh
 DIIS Error             TolErr          ....  1.000e-08


Diagonalization of the overlap matrix:
Smallest eigenvalue                        ... 5.607e-04
Time for diagonalization                   ...    0.005 sec
Threshold for overlap eigenvalues          ... 1.000e-08
Number of eigenvalues below threshold      ... 0
Time for construction of square roots      ...    0.003 sec
Total time needed                          ...    0.009 sec

---------------------
INITIAL GUESS: MOREAD
---------------------
Guess MOs are being read from file: 51_CuCl.ges
Input Geometry matches current geometry (good)
Atom 0: N(Shells)= 28 and 18 - projection required
Input basis set needs projection
NBasis(read)= 106
NBasis(calc)= 170
Basis set overlap was calculated
Using GuessMode=FMatrix for the initial guess
C*T matrix was formed
Effective Fockian was calculated
Effective Fockian was diagonalized
Initial density was built
                      ------------------
                      INITIAL GUESS DONE (   0.0 sec)
                      ------------------
--------------
SCF ITERATIONS
--------------
ITER       Energy         Delta-E        Max-DP      RMS-DP      [F,P]     Damp
               ***  Starting incremental Fock matrix formation  ***
  0  -2098.5418592995   0.000000000000 0.02252780  0.00045149  0.0857201 0.7000
  1  -2098.5434988963  -0.001639596875 0.01656295  0.00033253  0.0599482 0.7000
                               ***Turning on DIIS***
  2  -2098.5446882454  -0.001189349070 0.04062746  0.00081128  0.0419325 0.0000
  3  -2098.5472826857  -0.002594440311 0.00422287  0.00009381  0.0016200 0.0000
  4  -2098.5465095259   0.000773159872 0.00261865  0.00005163  0.0009114 0.0000
  5  -2098.5598929819  -0.013383456034 0.00073834  0.00001212  0.0010548 0.0000
  6  -2098.5475507429   0.012342238987 0.00080931  0.00001091  0.0002435 0.0000
  7  -2098.5477797930  -0.000229050143 0.00029701  0.00000280  0.0001253 0.0000
  8  -2098.5477570321   0.000022760962 0.00013189  0.00000157  0.0000623 0.0000
  9  -2098.5476557789   0.000101253147 0.00007127  0.00000087  0.0000276 0.0000
 10  -2098.5476824057  -0.000026626804 0.00003120  0.00000036  0.0000084 0.0000
 11  -2098.5476683425   0.000014063272 0.00000398  0.00000006  0.0000017 0.0000
 12  -2098.5476465162   0.000021826277 0.00000120  0.00000002  0.0000015 0.0000
 13  -2098.5476737700  -0.000027253780 0.00000022  0.00000001  0.0000008 0.0000
 14  -2098.5476622771   0.000011492867 0.00000012  0.00000000  0.0000001 0.0000
 15  -2098.5476634098  -0.000001132710 0.00000008  0.00000000  0.0000001 0.0000
 16  -2098.5476633478   0.000000062063 0.00000007  0.00000000  0.0000000 0.0000
 17  -2098.5476634871  -0.000000139395 0.00000005  0.00000000  0.0000000 0.0000
                            ***DIIS convergence achieved***

               *****************************************************
               *                     SUCCESS                       *
               *           SCF CONVERGED AFTER  18 CYCLES          *
               *****************************************************


----------------
TOTAL SCF ENERGY
----------------

Total Energy       :        -2098.54766352 Eh          -57104.38506 eV

Components:
Nuclear Repulsion  :          126.08089026 Eh            3430.83544 eV
Electronic Energy  :        -2224.62855379 Eh          -60535.22050 eV
One Electron Energy:        -3177.51661044 Eh          -86464.62275 eV
Two Electron Energy:          952.88805665 Eh           25929.40225 eV

Virial components:
Potential Energy   :        -4197.20312812 Eh         -114211.70353 eV
Kinetic Energy     :         2098.65546460 Eh           57107.31847 eV
Virial Ratio       :            1.99994863


---------------
SCF CONVERGENCE
---------------

  Last Energy change         ...   -3.6200e-08  Tolerance :   1.0000e-09
  Last MAX-Density change    ...    2.7706e-08  Tolerance :   1.0000e-08
  Last RMS-Density change    ...    2.7876e-10  Tolerance :   1.0000e-09
  Last DIIS Error            ...    1.0270e-08  Tolerance :   1.0000e-08

             **** THE GBW FILE WAS UPDATED (51_CuCl.gbw) ****
             **** DENSITY FILE WAS UPDATED (51_CuCl.scfp) ****
             **** ENERGY FILE WAS UPDATED (51_CuCl.en.tmp) ****
             **** THE GBW FILE WAS UPDATED (51_CuCl.gbw) ****
             **** DENSITY FILE WAS UPDATED (51_CuCl.scfp) ****
----------------
ORBITAL ENERGIES
----------------

  NO   OCC          E(Eh)            E(eV) 
   0   2.0000    -328.839443     -8948.1762 
   1   2.0000    -104.752384     -2850.4573 
   2   2.0000     -40.867253     -1112.0545 
   3   2.0000     -35.667224      -970.5545 
   4   2.0000     -35.667224      -970.5545 
   5   2.0000     -35.664600      -970.4831 
   6   2.0000     -10.478140      -285.1247 
   7   2.0000      -7.944959      -216.1933 
   8   2.0000      -7.944135      -216.1709 
   9   2.0000      -7.944135      -216.1709 
  10   2.0000      -5.060792      -137.7112 
  11   2.0000      -3.376498       -91.8792 
  12   2.0000      -3.373026       -91.7847 
  13   2.0000      -3.373026       -91.7847 
  14   2.0000      -0.999131       -27.1877 
  15   2.0000      -0.550634       -14.9835 
  16   2.0000      -0.550634       -14.9835 
  17   2.0000      -0.549054       -14.9405 
  18   2.0000      -0.540388       -14.7047 
  19   2.0000      -0.540388       -14.7047 
  20   2.0000      -0.408261       -11.1093 
  21   2.0000      -0.389459       -10.5977 
  22   2.0000      -0.389459       -10.5977 
  23   0.0000      -0.013698        -0.3727 
  24   0.0000       0.050411         1.3718 
  25   0.0000       0.050411         1.3718 
  26   0.0000       0.078734         2.1425 
  27   0.0000       0.110144         2.9972 
  28   0.0000       0.171171         4.6578 
  29   0.0000       0.171171         4.6578 
  30   0.0000       0.190332         5.1792 
  31   0.0000       0.190332         5.1792 
  32   0.0000       0.207683         5.6513 
  33   0.0000       0.229063         6.2331 
  34   0.0000       0.229063         6.2331 
  35   0.0000       0.272473         7.4144 
  36   0.0000       0.369598        10.0573 
  37   0.0000       0.377429        10.2704 
  38   0.0000       0.377429        10.2704 
  39   0.0000       0.459196        12.4954 
  40   0.0000       0.550303        14.9745 
  41   0.0000       0.558517        15.1980 
  42   0.0000       0.558517        15.1980 
  43   0.0000       0.563192        15.3252 
  44   0.0000       0.563192        15.3252 
  45   0.0000       0.603009        16.4087 
  46   0.0000       0.603009        16.4087 
  47   0.0000       0.617305        16.7977 
  48   0.0000       0.617305        16.7977 
  49   0.0000       0.677457        18.4345 
  50   0.0000       0.751234        20.4421 
  51   0.0000       0.751234        20.4421 
  52   0.0000       0.803690        21.8695 
  53   0.0000       0.904000        24.5991 
  54   0.0000       0.904000        24.5991 
  55   0.0000       0.969464        26.3805 
  56   0.0000       0.969464        26.3805 
  57   0.0000       0.969919        26.3928 
  58   0.0000       1.172558        31.9069 
  59   0.0000       1.172558        31.9069 
  60   0.0000       1.219513        33.1846 
  61   0.0000       1.439968        39.1835 
  62   0.0000       1.439968        39.1835 
  63   0.0000       1.512644        41.1611 
  64   0.0000       1.512644        41.1611 
  65   0.0000       1.535619        41.7863 
  66   0.0000       1.546500        42.0824 
  67   0.0000       1.546500        42.0824 
  68   0.0000       1.562521        42.5184 
  69   0.0000       1.631864        44.4053 
  70   0.0000       1.631864        44.4053 
  71   0.0000       1.746255        47.5180 
  72   0.0000       1.746255        47.5180 
  73   0.0000       1.756474        47.7961 
  74   0.0000       1.756474        47.7961 
  75   0.0000       1.791848        48.7587 
  76   0.0000       1.791848        48.7587 
  77   0.0000       1.923737        52.3476 
  78   0.0000       2.106370        57.3172 
  79   0.0000       2.107033        57.3353 
  80   0.0000       2.107033        57.3353 
  81   0.0000       2.194163        59.7062 
  82   0.0000       2.194163        59.7062 
  83   0.0000       2.540632        69.1341 
  84   0.0000       2.670934        72.6798 
  85   0.0000       2.810576        76.4797 
  86   0.0000       2.810576        76.4797 
  87   0.0000       2.823896        76.8421 
  88   0.0000       2.823896        76.8421 
  89   0.0000       2.856536        77.7303 
  90   0.0000       2.856536        77.7303 
  91   0.0000       2.999265        81.6141 
  92   0.0000       3.419848        93.0588 
  93   0.0000       3.683188       100.2247 
  94   0.0000       3.683188       100.2247 
  95   0.0000       3.797917       103.3466 
  96   0.0000       3.797917       103.3466 
  97   0.0000       3.942249       107.2741 
  98   0.0000       4.007169       109.0406 
  99   0.0000       4.007169       109.0406 
 100   0.0000       4.011528       109.1592 
 101   0.0000       4.011528       109.1592 
 102   0.0000       4.029632       109.6519 
 103   0.0000       4.029632       109.6519 
 104   0.0000       4.178985       113.7160 
 105   0.0000       4.178985       113.7160 
 106   0.0000       4.351174       118.4015 
 107   0.0000       4.379415       119.1699 
 108   0.0000       4.379415       119.1699 
 109   0.0000       4.414503       120.1247 
 110   0.0000       4.414503       120.1247 
 111   0.0000       4.453590       121.1883 
 112   0.0000       4.453590       121.1883 
 113   0.0000       4.592238       124.9611 
 114   0.0000       4.758407       129.4828 
 115   0.0000       4.758407       129.4828 
 116   0.0000       5.088771       138.4725 
 117   0.0000       5.088771       138.4725 
 118   0.0000       5.187188       141.1506 
 119   0.0000       5.187188       141.1506 
 120   0.0000       5.330717       145.0562 
 121   0.0000       5.436785       147.9424 
 122   0.0000       7.658098       208.3875 
 123   0.0000       7.658098       208.3875 
 124   0.0000       7.672768       208.7866 
 125   0.0000       7.672768       208.7866 
 126   0.0000       7.779420       211.6888 
 127   0.0000       7.779420       211.6888 
 128   0.0000       7.838317       213.2915 
 129   0.0000       7.915737       215.3982 
 130   0.0000       7.915737       215.3982 
 131   0.0000       7.917023       215.4332 
 132   0.0000       7.917023       215.4332 
 133   0.0000       7.928319       215.7405 
 134   0.0000       7.928319       215.7405 
 135   0.0000       8.047530       218.9844 
 136   0.0000       8.047530       218.9844 
 137   0.0000       8.216307       223.5771 
 138   0.0000       9.187153       249.9952 
 139   0.0000      11.361916       309.1735 
 140   0.0000      11.361916       309.1735 
 141   0.0000      11.450734       311.5903 
 142   0.0000      11.450734       311.5903 
 143   0.0000      11.619122       316.1724 
 144   0.0000      12.131790       330.1228 
 145   0.0000      21.932932       596.8254 
 146   0.0000      21.932932       596.8254 
 147   0.0000      21.944403       597.1376 
 148   0.0000      21.944403       597.1376 
 149   0.0000      22.003725       598.7518 
 150   0.0000      22.003725       598.7518 
 151   0.0000      22.100241       601.3781 
 152   0.0000      26.115460       710.6378 
 153   0.0000      26.115460       710.6378 
 154   0.0000      26.117940       710.7053 
 155   0.0000      26.117940       710.7053 
 156   0.0000      26.122366       710.8257 
 157   0.0000      26.122366       710.8257 
 158   0.0000      26.152042       711.6332 
 159   0.0000      26.152042       711.6332 
 160   0.0000      26.202848       713.0157 
 161   0.0000      29.814342       811.2895 
 162   0.0000      41.713305      1135.0767 
 163   0.0000      43.368888      1180.1274 
 164   0.0000      43.368888      1180.1274 
 165   0.0000      43.407859      1181.1879 
 166   0.0000     100.230819      2727.4193 
 167   0.0000     139.837083      3805.1605 
 168   0.0000     530.404239     14433.0331 
 169   0.0000     907.223471     24686.8057 

                    ********************************
                    * MULLIKEN POPULATION ANALYSIS *
                    ********************************

-----------------------
MULLIKEN ATOMIC CHARGES
-----------------------
   0 Cu:    0.603770
   1 Cl:   -0.603770
Sum of atomic charges:   -0.0000000

--------------------------------
MULLIKEN REDUCED ORBITAL CHARGES
--------------------------------
  0 Cus       :     6.242846  s :     6.242846
      pz      :     4.089053  p :    12.178774
      px      :     4.044861
      py      :     4.044861
      dz2     :     1.956144  d :     9.961388
      dxz     :     2.003256
      dyz     :     2.003256
      dx2y2   :     1.999366
      dxy     :     1.999366
      f0      :     0.004034  f :     0.013194
      f+1     :     0.004486
      f-1     :     0.004486
      f+2     :     0.000095
      f-2     :     0.000095
      f+3     :     0.000000
      f-3     :     0.000000
      g0      :     0.000015  g :     0.000028
      g+1     :     0.000006
      g-1     :     0.000006
      g+2     :     0.000000
      g-2     :     0.000000
      g+3     :     0.000000
      g-3     :     0.000000
      g+4     :     0.000000
      g-4     :     0.000000
  1 Cls       :     5.950053  s :     5.950053
      pz      :     3.744629  p :    11.622832
      px      :     3.939102
      py      :     3.939102
      dz2     :     0.011361  d :     0.025254
      dxz     :     0.006607
      dyz     :     0.006607
      dx2y2   :     0.000339
      dxy     :     0.000339
      f0      :     0.001626  f :     0.005072
      f+1     :     0.001544
      f-1     :     0.001544
      f+2     :     0.000179
      f-2     :     0.000179
      f+3     :     0.000000
      f-3     :     0.000000
      g0      :     0.000239  g :     0.000558
      g+1     :     0.000138
      g-1     :     0.000138
      g+2     :     0.000021
      g-2     :     0.000021
      g+3     :     0.000000
      g-3     :     0.000000
      g+4     :     0.000000
      g-4     :     0.000000


                     *******************************
                     * LOEWDIN POPULATION ANALYSIS *
                     *******************************

----------------------
LOEWDIN ATOMIC CHARGES
----------------------
   0 Cu:   -0.209350
   1 Cl:    0.209350

-------------------------------
[...]
Recanonicalizing the virtual orbitals
Time needed for Fock operator              ...            1.138 sec
Reference energy                           ...  -2098.547663531

------------------------------
PARTIAL COULOMB TRANSFORMATION
------------------------------

Transformation type                        ... one-operator
Dimension of the basis                     ...  170
Number of internal MOs                     ...  160 (10-169)
Pair cutoff                                ... 0.000e+00 Eh
Number of AO pairs included in the trafo   ... 14531
Total Number of distinct AO pairs          ... 14535
Memory devoted for trafo                   ... 2500.0 MB 
Max. Number of MO pairs treated together   ... 22544      
Max. Number of MOs treated per batch       ...  132      
Number Format for Storage                  ... Double (8 Byte)
AO-integral source                         ... DIRECT
Integral package used                      ... LIBINT

Starting integral evaluation:
<ss|**>:       208104 b        0 skpd     0.064 s (  0.000 ms/b)
<sp|**>:       267904 b        0 skpd     0.114 s (  0.000 ms/b)
<sd|**>:       204516 b        0 skpd     0.145 s (  0.001 ms/b)
<sf|**>:       136344 b        0 skpd     0.096 s (  0.001 ms/b)
<sg|**>:        65780 b        0 skpd     0.100 s (  0.002 ms/b)
<pp|**>:        90896 b        0 skpd     0.189 s (  0.002 ms/b)
<pd|**>:       127972 b        0 skpd     0.293 s (  0.002 ms/b)
<pf|**>:        84916 b        0 skpd     0.151 s (  0.002 ms/b)
<pg|**>:        41860 b        0 skpd     0.171 s (  0.004 ms/b)
<dd|**>:        53820 b        0 skpd     0.308 s (  0.006 ms/b)
<df|**>:        63388 b        0 skpd     0.199 s (  0.003 ms/b)
<dg|**>:        31096 b        0 skpd     0.242 s (  0.008 ms/b)
<ff|**>:        25116 b        0 skpd     0.075 s (  0.003 ms/b)
<fg|**>:        21528 b        0 skpd     0.103 s (  0.005 ms/b)
<gg|**>:         7176 b        0 skpd     0.150 s (  0.021 ms/b)
Closing buffer AOJ ( 0.06 GB; CompressionRatio= 1.00)
Collecting buffer AOJ 
    ... done with AO integral generation
Number of MO pairs included in the trafo   ... 12880
    ... Now sorting integrals
IBATCH = 1 of  1
Closing buffer JAO ( 0.06 GB; CompressionRatio= 1.00)
Collecting buffer JAO 
TOTAL TIME for half transformation         ...     3.217 sec
AO-integral generation                     ...     2.174 sec
Half transformation                        ...     0.237 sec
J-integral sorting                         ...     0.576 sec

-------------------------- SECOND HALF TRANSFORMATION -------------------------
Formation of (pq|rs)                       ... ok (     0.437 sec)
Integral sorting                           ... ok (     3.878 sec)

------------------
CLOSED SHELL GUESS
------------------

Initial guess performed in     0.042 sec
E(0)                                       ...  -2098.547663531
E(MP2)                                     ...     -1.081501031
Initial E(tot)                             ...  -2099.629164562
<T|T>                                      ...      0.202133174
Number of pairs included                   ... 91
Total number of pairs                      ... 91

------------------------------------------------
                  RHF COUPLED CLUSTER ITERATIONS
------------------------------------------------

Number of amplitudes to be optimized       ... 1968330

Iter       E(tot)           E(Corr)          Delta-E          Residual     Time
  0  -2099.629164562     -1.081501031      0.000000000      0.034768103    0.95
                           *** Turning on DIIS ***
  1  -2099.479544037     -0.931880506      0.149620525      0.018604709    1.76
  2  -2099.533257523     -0.985593992     -0.053713486      0.005616796    1.81
  3  -2099.532540534     -0.984877003      0.000716989      0.003386733    1.83
  4  -2099.534111787     -0.986448256     -0.001571253      0.003049714    1.86
  5  -2099.534994204     -0.987330673     -0.000882417      0.002276856    1.88
  6  -2099.535384395     -0.987720864     -0.000390191      0.001710781    1.91
  7  -2099.535591564     -0.987928033     -0.000207168      0.001367054    1.97
  8  -2099.535724954     -0.988061423     -0.000133390      0.001013375    1.96
  9  -2099.535796485     -0.988132954     -0.000071531      0.000512842    1.96
 10  -2099.535800203     -0.988136672     -0.000003718      0.000241260    2.01
 11  -2099.535830922     -0.988167391     -0.000030719      0.000088062    1.96
 12  -2099.535822501     -0.988158970      0.000008421      0.000023178    1.96
 13  -2099.535825854     -0.988162323     -0.000003353      0.000011898    1.95
 14  -2099.535824393     -0.988160862      0.000001461      0.000004766    1.96
 15  -2099.535824905     -0.988161374     -0.000000511      0.000002432    1.95
 16  -2099.535824651     -0.988161120      0.000000254      0.000001315    1.96
 17  -2099.535824832     -0.988161301     -0.000000181      0.000000935    1.95
               --- The Coupled-Cluster iterations have converged ---

----------------------
COUPLED CLUSTER ENERGY
----------------------

E(0)                                       ...  -2098.547663531
E(CORR)                                    ...     -0.988161301
E(TOT)                                     ...  -2099.535824832
Singles Norm <S|S>**1/2                    ...      0.135165776  
T1 diagnostic                              ...      0.026508190  

------------------
LARGEST AMPLITUDES
------------------
  20-> 23  -1-> -1       0.073135
  17-> 23  -1-> -1       0.045440
  20-> 27  -1-> -1       0.038578
  20-> 26  -1-> -1       0.033555
  21-> 41  21-> 41       0.027758
  21-> 42  21-> 42       0.027758
  22-> 42  22-> 42       0.027758
  22-> 41  22-> 41       0.027758
  17-> 26  -1-> -1       0.025577
  20-> 39  -1-> -1       0.023039
  17-> 32  -1-> -1       0.019621
  20-> 35  -1-> -1       0.019417
  18-> 31  -1-> -1       0.019261
  19-> 30  -1-> -1       0.019261
  19-> 48  -1-> -1       0.019185
  18-> 47  -1-> -1       0.019185


        !!!!!!!!!!!!!!!!!!!!!!!!!!!!!!!!!!!!!!!!!!!!!!!!!!!!!!!!!!!!!!!!!!!!!!!!!! 
        !  Warning: Densities are linearized densities !                         !
        !!!!!!!!!!!!!!!!!!!!!!!!!!!!!!!!!!!!!!!!!!!!!!!!!!!!!!!!!!!!!!!!!!!!!!!!!! 

Trace of internal density part =     -0.399861377
Trace of external density part =      0.399861377
----------------------
RHF TRIPLES CORRECTION (Algorithm 1)
----------------------

Multiplier for the singles contribution    ...      1.000000000

10% done
20% done
30% done
40% done
50% done
60% done
70% done
80% done

Triples Correction (T)                     ...     -0.037112512
Scaling of triples based on CCSD energies (Peterson et al. Molecular Physics 113, 1551 (2015))
E(T*) = f*E(T) where f = E(F12-CCSD)/E(CCSD) 
f = CCSD (with F12)/ CCSD (without F12)    ...      1.000000000
Scaled triples correction (T)              ...     -0.037112512

Final correlation energy                   ...     -1.025273812
E(CCSD)                                    ...  -2099.535824832
E(CCSD(T))                                 ...  -2099.572937343

NORM  =      1.218200475 sqrt=     1.103721195
W(HF) =      0.820882950
------------------------------------------------------------------------------
                           ORCA POPULATION ANALYSIS
------------------------------------------------------------------------------
Input electron density              ... 51_CuCl.mdcip
BaseName (.gbw .S,...)              ... 51_CuCl

                    ********************************
                    * MULLIKEN POPULATION ANALYSIS *
                    ********************************

-----------------------
MULLIKEN ATOMIC CHARGES
-----------------------
   0 Cu:    0.464492
   1 Cl:   -0.464492
Sum of atomic charges:   -0.0000000

--------------------------------
MULLIKEN REDUCED ORBITAL CHARGES
--------------------------------
  0 Cus       :     6.420004  s :     6.420004
      pz      :     4.088059  p :    12.212806
      px      :     4.062373
      py      :     4.062373
      dz2     :     1.888710  d :     9.847506
      dxz     :     1.989518
      dyz     :     1.989518
      dx2y2   :     1.989880
      dxy     :     1.989880
      f0      :     0.009458  f :     0.050626
      f+1     :     0.009799
      f-1     :     0.009799
      f+2     :     0.005511
      f-2     :     0.005511
      f+3     :     0.005274
      f-3     :     0.005274
      g0      :     0.000529  g :     0.004566
      g+1     :     0.000517
      g-1     :     0.000517
      g+2     :     0.000506
      g-2     :     0.000506
      g+3     :     0.000501
      g-3     :     0.000501
      g+4     :     0.000494
      g-4     :     0.000494
  1 Cls       :     5.924447  s :     5.924447
      pz      :     3.602323  p :    11.378599
      px      :     3.888138
      py      :     3.888138
      dz2     :     0.032379  d :     0.138839
      dxz     :     0.030571
      dyz     :     0.030571
      dx2y2   :     0.022659
      dxy     :     0.022659
      f0      :     0.003730  f :     0.019546
      f+1     :     0.003937
      f-1     :     0.003937
      f+2     :     0.002182
      f-2     :     0.002182
      f+3     :     0.001790
      f-3     :     0.001790
      g0      :     0.000521  g :     0.003061
      g+1     :     0.000445
      g-1     :     0.000445
      g+2     :     0.000302
      g-2     :     0.000302
      g+3     :     0.000261
      g-3     :     0.000261
      g+4     :     0.000262
      g-4     :     0.000262


                     *******************************
                     * LOEWDIN POPULATION ANALYSIS *
                     *******************************

----------------------
LOEWDIN ATOMIC CHARGES
----------------------
   0 Cu:   -0.244578
   1 Cl:    0.244578

-------------------------------
LOEWDIN REDUCED ORBITAL CHARGES
-------------------------------
  0 Cus       :     6.436515  s :     6.436515
      pz      :     4.248734  p :    12.465265
      px      :     4.108266
      py      :     4.108266
      dz2     :     2.047615  d :    10.147392
      dxz     :     2.060885
      dyz     :     2.060885
      dx2y2   :     1.989004
      dxy     :     1.989004
      f0      :     0.059728  f :     0.190724
      f+1     :     0.054463
      f-1     :     0.054463
      f+2     :     0.005759
      f-2     :     0.005759
      f+3     :     0.005276
      f-3     :     0.005276
      g0      :     0.000589  g :     0.004682
      g+1     :     0.000545
      g-1     :     0.000545
      g+2     :     0.000506
      g-2     :     0.000506
      g+3     :     0.000501
      g-3     :     0.000501
      g+4     :     0.000494
      g-4     :     0.000494
  1 Cls       :     5.510986  s :     5.510986
      pz      :     3.607122  p :    11.040833
      px      :     3.716855
      py      :     3.716855
      dz2     :     0.045377  d :     0.160615
      dxz     :     0.034875
      dyz     :     0.034875
      dx2y2   :     0.022744
      dxy     :     0.022744
      f0      :     0.012081  f :     0.037834
      f+1     :     0.008428
      f-1     :     0.008428
      f+2     :     0.002660
      f-2     :     0.002660
      f+3     :     0.001788
      f-3     :     0.001788
      g0      :     0.001412  g :     0.005154
      g+1     :     0.000983
      g-1     :     0.000983
      g+2     :     0.000366
      g-2     :     0.000366
      g+3     :     0.000261
      g-3     :     0.000261
      g+4     :     0.000262
      g-4     :     0.000262


                      *****************************
                      * MAYER POPULATION ANALYSIS *
                      *****************************

  NA   - Mulliken gross atomic population
  ZA   - Total nuclear charge
  QA   - Mulliken gross atomic charge
  VA   - Mayer's total valence
  BVA  - Mayer's bonded valence
  FA   - Mayer's free valence

  ATOM       NA         ZA         QA         VA         BVA        FA
  0 Cu    28.5355    29.0000     0.4645     1.7052     0.9541     0.7511
  1 Cl    17.4645    17.0000    -0.4645     1.6486     0.9541     0.6945

  Mayer bond orders larger than 0.100000
B(  0-Cu,  1-Cl) :   0.9541 



------------------------------------------------------------------------------- 
                                     TIMINGS                                   
------------------------------------------------------------------------------- 


Total execution time                   ...       49.746 sec

Fock Matrix Formation                  ...        1.138 sec (  2.3%)
Initial Guess                          ...        0.042 sec (  0.1%)
DIIS Solver                            ...        2.529 sec (  5.1%)
State Vector Update                    ...        0.110 sec (  0.2%)
Sigma-vector construction              ...       30.957 sec ( 62.2%)
  <0|H|D>                              ...        0.007 sec (  0.0% of sigma)
  <D|H|D>(0-ext)                       ...        0.321 sec (  1.0% of sigma)
  <D|H|D>(2-ext Fock)                  ...        0.020 sec (  0.1% of sigma)
  <D|H|D>(2-ext)                       ...        0.955 sec (  3.1% of sigma)
  <D|H|D>(4-ext)                       ...        3.476 sec ( 11.2% of sigma)
  <D|H|D>(4-ext-corr)                  ...        2.800 sec (  9.0% of sigma)
  <S|H|0>                              ...        0.013 sec (  0.0% of sigma)
  <S|H|S>                              ...        0.022 sec (  0.1% of sigma)
  <S|H|D>(1-ext)                       ...        0.124 sec (  0.4% of sigma)
  <D|H|S>(1-ext)                       ...        0.142 sec (  0.5% of sigma)
  <S|H|D>(3-ext)                       ...        2.039 sec (  6.6% of sigma)
  Fock-dressing                        ...       14.195 sec ( 45.9% of sigma)
  (ik|jl)-dressing                     ...        0.362 sec (  1.2% of sigma)
  (ij|ab),(ia|jb)-dressing             ...        5.428 sec ( 17.5% of sigma)
  Pair energies                        ...        0.011 sec (  0.0% of sigma)
Total Time for computing (T)           ...        5.582 sec ( 11.2% of ALL)
  I/O of integral and amplitudes       ...        0.909 sec ( 16.3% of (T))
  N**6 sorting step                    ...        1.709 sec ( 30.6% of (T))
  External N**7 contributions          ...        1.787 sec ( 32.0% of (T))
  Internal N**7 contributions          ...        0.484 sec (  8.7% of (T))
  N**6 triples energy contributions    ...        0.692 sec ( 12.4% of (T))
One-particle density matrix            ...        0.009 sec (  0.0%)


-------------------
EXTRAPOLATED ENERGY
-------------------


-----------------------------------------------------------------
                      EP1 - MDCI extrapolation:
-----------------------------------------------------------------
NOTE: We use as reference SCF energy, for the extrapolation, the one from the MDCI module and not the one 
from the SCF calculation. In case the first step is a DFT calculation these two might be different.

NOTE: For the SCF part we extrapolate based on the scheme proposed in J. Chem. Phys. 2008, 129, 184116
using the exponents from J. Chem. Theory Comput., 7, 33-43 (2011)

NOTE: For the correlation part we extrapolate based on the scheme proposed in J. Chem. Phys. 1997, 106, 9639
using the exponents from J. Chem. Theory Comput., 7, 33-43 (2011)


Alpha(3/4)     :  7.880 (SCF Extrapolation)
Beta(3/4)      :  2.970 (correlation extrapolation)

SCF energy with basis def2-TZVPP:                     -2098.493287218
SCF energy with basis def2-QZVPP:                     -2098.547663531
Extrapolated CBS SCF energy (3/4) :                   -2098.555153253 (-0.007489722) 

MDCI energy with basis def2-TZVPP:                       -0.970726598
MDCI energy with basis def2-QZVPP:                       -1.025273812
Extrapolated CBS correlation energy (3/4) :              -1.065679127 (-0.040405314)

Estimated CBS total energy (3/4) :                    -2099.620832380



-------------------------   --------------------
FINAL SINGLE POINT ENERGY     -2099.620832379524
-------------------------   --------------------


                            ***************************************
                            *     ORCA property calculations      *
                            ***************************************

                                    ---------------------
                                    Active property flags
                                    ---------------------
   (+) Dipole Moment


------------------------------------------------------------------------------
                       ORCA ELECTRIC PROPERTIES CALCULATION
------------------------------------------------------------------------------

Dipole Moment Calculation                       ... on
Quadrupole Moment Calculation                   ... off
Polarizability Calculation                      ... off
GBWName                                         ... 51_CuCl.gbw
Electron density file                           ... 51_CuCl.scfp
The origin for moment calculation is the CENTER OF MASS  = ( 0.000000,  0.000000  1.334871)

-------------
DIPOLE MOMENT
-------------
                                X             Y             Z
Electronic contribution:      0.00000       0.00000      -4.57057
Nuclear contribution   :      0.00000       0.00000       2.06219
                        -----------------------------------------
Total Dipole Moment    :      0.00000       0.00000      -2.50838
                        -----------------------------------------
Magnitude (a.u.)       :      2.50838
Magnitude (Debye)      :      6.37580



--------------------
Rotational spectrum 
--------------------
 
Rotational constants in cm-1:     0.000000     0.173013     0.173013 
Rotational constants in MHz :     0.000000  5186.804112  5186.804112 

 Dipole components along the rotational axes: 
x,y,z [a.u.] :    -2.508380     0.000000     0.000000 
x,y,z [Debye]:    -6.375796     0.000000     0.000000 

 

                           *** MDCI DENSITY ***

------------------------------------------------------------------------------
                       ORCA ELECTRIC PROPERTIES CALCULATION
------------------------------------------------------------------------------

Dipole Moment Calculation                       ... on
Quadrupole Moment Calculation                   ... off
Polarizability Calculation                      ... off
GBWName                                         ... 51_CuCl.gbw
Electron density file                           ... 51_CuCl.mdcip
The origin for moment calculation is the CENTER OF MASS  = ( 0.000000,  0.000000  1.334871)

-------------
DIPOLE MOMENT
-------------
                                X             Y             Z
Electronic contribution:     -0.00000      -0.00000      -4.16904
Nuclear contribution   :      0.00000       0.00000       2.06219
                        -----------------------------------------
Total Dipole Moment    :     -0.00000      -0.00000      -2.10685
                        -----------------------------------------
Magnitude (a.u.)       :      2.10685
Magnitude (Debye)      :      5.35519



--------------------
Rotational spectrum 
--------------------
 
Rotational constants in cm-1:     0.000000     0.173013     0.173013 
Rotational constants in MHz :     0.000000  5186.804112  5186.804112 

 Dipole components along the rotational axes: 
x,y,z [a.u.] :    -2.106850    -0.000000    -0.000000 
x,y,z [Debye]:    -5.355188    -0.000000    -0.000000 

 

Timings for individual modules:

Sum of individual times         ...       75.847 sec (=   1.264 min)
GTO integral calculation        ...        1.527 sec (=   0.025 min)   2.0 %
SCF iterations                  ...       12.765 sec (=   0.213 min)  16.8 %
MDCI module                     ...       61.555 sec (=   1.026 min)  81.2 %
                             ****ORCA TERMINATED NORMALLY****
TOTAL RUN TIME: 0 days 0 hours 1 minutes 16 seconds 742 msec
