
                                 *****************
                                 * O   R   C   A *
                                 *****************

           --- An Ab Initio, DFT and Semiempirical electronic structure package ---

                  #######################################################
                  #                        -***-                        #
                  #          Department of theory and spectroscopy      #
                  #               Directorship: Frank Neese             #
                  #        Max Planck Institute fuer Kohlenforschung    #
                  #                Kaiser Wilhelm Platz 1               #
                  #                 D-45470 Muelheim/Ruhr               #
                  #                      Germany                        #
                  #                                                     #
                  #                  All rights reserved                #
                  #                        -***-                        #
                  #######################################################


                         Program Version 4.2.0 -  RELEASE  -


 With contributions from (in alphabetic order):
   Daniel Aravena         : Magnetic Suceptibility
   Michael Atanasov       : Ab Initio Ligand Field Theory (pilot matlab implementation)
   Alexander A. Auer      : GIAO ZORA, VPT2
   Ute Becker             : Parallelization
   Giovanni Bistoni       : ED, misc. LED, open-shell LED, HFLED
   Martin Brehm           : Molecular dynamics
   Dmytro Bykov           : SCF Hessian
   Vijay G. Chilkuri      : MRCI spin determinant printing, contributions to CSF-ICE
   Dipayan Datta          : RHF DLPNO-CCSD density
   Achintya Kumar Dutta   : EOM-CC, STEOM-CC
   Dmitry Ganyushin       : Spin-Orbit,Spin-Spin,Magnetic field MRCI
   Miquel Garcia          : C-PCM Hessian, Gaussian charge scheme
   Yang Guo               : DLPNO-NEVPT2, CIM, IAO-localization
   Andreas Hansen         : Spin unrestricted coupled pair/coupled cluster methods
   Benjamin Helmich-Paris : CASSCF linear response (MC-RPA)
   Lee Huntington         : MR-EOM, pCC
   Robert Izsak           : Overlap fitted RIJCOSX, COSX-SCS-MP3, EOM
   Christian Kollmar      : KDIIS, OOCD, Brueckner-CCSD(T), CCSD density
   Simone Kossmann        : Meta GGA functionals, TD-DFT gradient, OOMP2, MP2 Hessian
   Martin Krupicka        : AUTO-CI
   Lucas Lang             : DCDCAS
   Dagmar Lenk            : GEPOL surface, SMD
   Dimitrios Liakos       : Extrapolation schemes; Compound Job, initial MDCI parallelization
   Dimitrios Manganas     : Further ROCIS development; embedding schemes
   Dimitrios Pantazis     : SARC Basis sets
   Taras Petrenko         : DFT Hessian,TD-DFT gradient, ASA, ECA, R-Raman, ABS, FL, XAS/XES, NRVS
   Peter Pinski           : DLPNO-MP2, DLPNO-MP2 Gradient
   Christoph Reimann      : Effective Core Potentials
   Marius Retegan         : Local ZFS, SOC
   Christoph Riplinger    : Optimizer, TS searches, QM/MM, DLPNO-CCSD(T), (RO)-DLPNO pert. Triples
   Tobias Risthaus        : Range-separated hybrids, TD-DFT gradient, RPA, STAB
   Michael Roemelt        : Original ROCIS implementation
   Masaaki Saitow         : Open-shell DLPNO-CCSD energy and density
   Barbara Sandhoefer     : DKH picture change effects
   Avijit Sen             : IP-ROCIS
   Kantharuban Sivalingam : CASSCF convergence, NEVPT2, FIC-MRCI
   Bernardo de Souza      : ESD, SOC TD-DFT
   Georgi Stoychev        : AutoAux, RI-MP2 NMR
   Willem Van den Heuvel  : Paramagnetic NMR
   Boris Wezisla          : Elementary symmetry handling
   Frank Wennmohs         : Technical directorship


 We gratefully acknowledge several colleagues who have allowed us to
 interface, adapt or use parts of their codes:
   Stefan Grimme, W. Hujo, H. Kruse,             : VdW corrections, initial TS optimization,
                  C. Bannwarth                     DFT functionals, gCP, sTDA/sTD-DF
   Ed Valeev, F. Pavosevic, A. Kumar             : LibInt (2-el integral package), F12 methods
   Garnet Chan, S. Sharma, J. Yang, R. Olivares  : DMRG
   Ulf Ekstrom                                   : XCFun DFT Library
   Mihaly Kallay                                 : mrcc  (arbitrary order and MRCC methods)
   Andreas Klamt, Michael Diedenhofen            : otool_cosmo (COSMO solvation model)
   Jiri Pittner, Ondrej Demel                    : Mk-CCSD
   Frank Weinhold                                : gennbo (NPA and NBO analysis)
   Christopher J. Cramer and Donald G. Truhlar   : smd solvation model
   Lars Goerigk                                  : TD-DFT with DH, B97 family of functionals
   V. Asgeirsson, H. Jonsson                     : NEB implementation
   FAccTs GmbH                                   : IRC, NEB, NEB-TS, Multilevel, MM, QM/MM, CI optimization
   S Lehtola, MJT Oliveira, MAL Marques          : LibXC Library


 Your calculation uses the libint2 library for the computation of 2-el integrals
 For citations please refer to: http://libint.valeyev.net

 Your ORCA version has been built with support for libXC version: 4.2.3
 For citations please refer to: https://tddft.org/programs/libxc/

 This ORCA versions uses:
   CBLAS   interface :  Fast vector & matrix operations
   LAPACKE interface :  Fast linear algebra routines
   SCALAPACK package :  Parallel linear algebra routines


----- Orbital basis set information -----
Your calculation utilizes the basis: def2-TZVPP
   F. Weigend and R. Ahlrichs, Phys. Chem. Chem. Phys. 7, 3297 (2005).

================================================================================
                                        WARNINGS
                       Please study these warnings very carefully!
================================================================================


WARNING: your system is open-shell and RHF/RKS was chosen
  ===> : WILL SWITCH to UHF/UKS


WARNING: MDCI localization with Augmented Hessian Foster-Boys
  ===> : Switching off randomization!

WARNING: Post HF methods need fully converged wavefunctions
  ===> : Setting SCFConvForced true
         You can overwrite this default with %scf ConvForced false 


INFO   : the flag for use of LIBINT has been found!

================================================================================
                                       INPUT FILE
================================================================================
NAME = 53_CuO.in
|  1> #
|  2> # 53_CuO ccsd(t)/cbs
|  3> #
|  4> ! ccsd(t) extrapolate(3/4,def2) verytightscf slowconv
|  5> 
|  6> *xyz 0 2
|  7>   Cu  0.00000000000000      0.00000000000000      0.13870993735929
|  8>   O   0.00000000000000      0.00000000000000      1.86129006264071
|  9> *
| 10> 
| 11> %maxcore 5000
| 12> 
| 13> %scf
| 14> MaxIter 1500
| 15> DIISMaxEq 15
| 16> directresetfreq 1
| 17> end
| 18> 
| 19> %pal
| 20> nprocs 24
| 21> end
| 22> 
| 23> 
| 24>                          ****END OF INPUT****
================================================================================

                   *****************************************
                   * Extrapolated Single Point Calculation *
                   *****************************************

----- Orbital basis set information -----
Your calculation utilizes the basis: def2-TZVPP
   F. Weigend and R. Ahlrichs, Phys. Chem. Chem. Phys. 7, 3297 (2005).

----- AuxJ basis set information -----
Your calculation utilizes the auxiliary basis: def2/J
   F. Weigend, Phys. Chem. Chem. Phys. 8, 1057 (2006).

----- AuxC basis set information -----
Your calculation utilizes the auxiliary basis: def2-TZVPP/C
  H-La, Hf-Rn : A. Hellweg, C. Hattig, S. Hofener and W. Klopper, Theor. Chem. Acc. 117, 587 (2007).
        Ce-Lu : J. Chmela and M. E. Harding, Mol. Phys. (2018).

----- AuxJK basis set information -----
Your calculation utilizes the auxiliary basis: def2/JK
   H-Ba, Hf-Rn: F. Weigend, J. Comput. Chem. 29, 167 (2008).

All done

                     -----------------------------------------
                     Extrapolated Energy 1 Basis=  def2-TZVPP
                     -----------------------------------------

---------------------------------
CARTESIAN COORDINATES (ANGSTROEM)
---------------------------------
  Cu     0.000000    0.000000    0.138710
  O      0.000000    0.000000    1.861290

----------------------------
CARTESIAN COORDINATES (A.U.)
----------------------------
  NO LB      ZA    FRAG     MASS         X           Y           Z
   0 Cu   29.0000    0    63.550    0.000000    0.000000    0.262124
   1 O     8.0000    0    15.999    0.000000    0.000000    3.517328

--------------------------------
INTERNAL COORDINATES (ANGSTROEM)
--------------------------------
 Cu     0   0   0     0.000000000000     0.00000000     0.00000000
 O      1   0   0     1.722580125281     0.00000000     0.00000000

---------------------------
INTERNAL COORDINATES (A.U.)
---------------------------
 Cu     0   0   0     0.000000000000     0.00000000     0.00000000
 O      1   0   0     3.255204680518     0.00000000     0.00000000

---------------------
BASIS SET INFORMATION
---------------------
There are 2 groups of distinct atoms

 Group   1 Type Cu  : 17s12p7d2f1g contracted to 6s5p4d2f1g pattern {842111/63111/4111/11/1}
 Group   2 Type O   : 11s6p2d1f contracted to 5s3p2d1f pattern {62111/411/11/1}

Atom   0Cu   basis set group =>   1
Atom   1O    basis set group =>   2
---------------------------------
AUXILIARY/J BASIS SET INFORMATION
---------------------------------
There are 2 groups of distinct atoms

 Group   1 Type Cu  : 19s5p5d3f3g contracted to 8s5p4d3f3g pattern {121111111/11111/2111/111/111}
 Group   2 Type O   : 12s5p4d2f1g contracted to 6s4p3d1f1g pattern {711111/2111/211/2/1}

Atom   0Cu   basis set group =>   1
Atom   1O    basis set group =>   2
---------------------------------
AUXILIARY/C BASIS SET INFORMATION
---------------------------------
There are 2 groups of distinct atoms

 Group   1 Type Cu  : 9s9p8d7f5g3h1i contracted to 9s9p8d7f5g3h1i pattern {111111111/111111111/11111111/1111111/11111/111/1}
 Group   2 Type O   : 8s6p5d3f1g contracted to 8s6p4d3f1g pattern {11111111/111111/2111/111/1}

Atom   0Cu   basis set group =>   1
Atom   1O    basis set group =>   2
----------------------------------
AUXILIARY/JK BASIS SET INFORMATION
----------------------------------
There are 2 groups of distinct atoms

 Group   1 Type Cu  : 19s14p12d10f7g3h1i contracted to 16s13p11d9f5g3h1i pattern {4111111111111111/2111111111111/21111111111/211111111/31111/111/1}
 Group   2 Type O   : 14s10p6d2f1g contracted to 10s8p4d2f1g pattern {5111111111/31111111/3111/11/1}

Atom   0Cu   basis set group =>   1
Atom   1O    basis set group =>   2


           ************************************************************
           *        Program running with 24 parallel MPI-processes    *
           *              working on a common directory               *
           ************************************************************
------------------------------------------------------------------------------
                           ORCA GTO INTEGRAL CALCULATION
------------------------------------------------------------------------------

                         BASIS SET STATISTICS AND STARTUP INFO

 # of primitive gaussian shells          ...   59
 # of primitive gaussian functions       ...  157
 # of contracted shells                  ...   29
 # of contracted basis functions         ...   95
 Highest angular momentum                ...    4
 Maximum contraction depth               ...    8
 Integral package used                   ... LIBINT
 Integral threshhold            Thresh   ...  1.000e-12
 Primitive cut-off              TCut     ...  1.000e-14


------------------------------ INTEGRAL EVALUATION ----------------------------


 * One electron integrals 
 Pre-screening matrix                    ... done
 Shell pair data                         ... done (   0.000 sec)



           ************************************************************
           *        Program running with 24 parallel MPI-processes    *
           *              working on a common directory               *
           ************************************************************
-------------------------------------------------------------------------------
                                 ORCA SCF
-------------------------------------------------------------------------------

------------
SCF SETTINGS
------------
Hamiltonian:
 Ab initio Hamiltonian  Method          .... Hartree-Fock(GTOs)


General Settings:
 Integral files         IntName         .... 53_CuO
 Hartree-Fock type      HFTyp           .... UHF
 Total Charge           Charge          ....    0
 Multiplicity           Mult            ....    2
 Number of Electrons    NEL             ....   37
 Basis Dimension        Dim             ....   95
 Nuclear Repulsion      ENuc            ....     71.2704799758 Eh

Convergence Acceleration:
 DIIS                   CNVDIIS         .... on
   Start iteration      DIISMaxIt       ....     0
   Startup error        DIISStart       ....  0.200000
   # of expansion vecs  DIISMaxEq       ....    15
   Bias factor          DIISBfac        ....   1.050
   Max. coefficient     DIISMaxC        ....  10.000
 Newton-Raphson         CNVNR           .... off
 SOSCF                  CNVSOSCF        .... off
 Level Shifting         CNVShift        .... on
   Level shift para.    LevelShift      ....    0.2500
   Turn off err/grad.   ShiftErr        ....    0.0000
 Zerner damping         CNVZerner       .... off
 Static damping         CNVDamp         .... on
   Fraction old density DampFac         ....    0.8500
   Max. Damping (<1)    DampMax         ....    0.9800
   Min. Damping (>=0)   DampMin         ....    0.0000
   Turn off err/grad.   DampErr         ....    0.0300
 Fernandez-Rico         CNVRico         .... off

SCF Procedure:
 Maximum # iterations   MaxIter         ....  1500
 SCF integral mode      SCFMode         .... Direct
   Integral package                     .... LIBINT
 Reset frequency        DirectResetFreq ....     1
 Integral Threshold     Thresh          ....  1.000e-12 Eh
 Primitive CutOff       TCut            ....  1.000e-14 Eh

Convergence Tolerance:
 Convergence Check Mode ConvCheckMode   .... Total+1el-Energy
 Convergence forced     ConvForced      .... 1
 Energy Change          TolE            ....  1.000e-09 Eh
 1-El. energy change                    ....  1.000e-06 Eh
 DIIS Error             TolErr          ....  1.000e-08


Diagonalization of the overlap matrix:
Smallest eigenvalue                        ... 5.115e-03
Time for diagonalization                   ...    0.020 sec
Threshold for overlap eigenvalues          ... 1.000e-08
Number of eigenvalues below threshold      ... 0
Time for construction of square roots      ...    0.006 sec
Total time needed                          ...    0.026 sec

-------------------
DFT GRID GENERATION
-------------------

General Integration Accuracy     IntAcc      ...  4.340
Radial Grid Type                 RadialGrid  ... Gauss-Chebyshev
Angular Grid (max. acc.)         AngularGrid ... Lebedev-110
Angular grid pruning method      GridPruning ... 3 (G Style)
Weight generation scheme         WeightScheme... Becke
Basis function cutoff            BFCut       ...    1.0000e-12
Integration weight cutoff        WCut        ...    1.0000e-14
Grids for H and He will be reduced by one unit

# of grid points (after initial pruning)     ...   4628 (   0.0 sec)
# of grid points (after weights+screening)   ...   4603 (   0.0 sec)
nearest neighbour list constructed           ...    0.0 sec
Grid point re-assignment to atoms done       ...    0.0 sec
Grid point division into batches done        ...    0.0 sec
Reduced shell lists constructed in    0.0 sec

Total number of grid points                  ...     4603
Total number of batches                      ...       72
Average number of points per batch           ...       63
Average number of grid points per atom       ...     2302
Average number of shells per batch           ...     7.50 (25.86%)
Average number of basis functions per batch  ...    19.50 (20.53%)
Average number of large shells per batch     ...     6.00 (80.00%)
Average number of large basis fcns per batch ...    16.50 (84.62%)
Maximum spatial batch extension              ...  17.92, 26.34, 14.62 au
Average spatial batch extension              ...   0.72,  0.98,  0.61 au

Time for grid setup =    0.026 sec

------------------------------
INITIAL GUESS: MODEL POTENTIAL
------------------------------
Loading Hartree-Fock densities                     ... done
Calculating cut-offs                               ... done
Setting up the integral package                    ... done
Initializing the effective Hamiltonian             ... done
Starting the Coulomb interaction                   ... done (   0.0 sec)
Reading the grid                                   ... done
Mapping shells                                     ... done
Starting the XC term evaluation                    ... done (   0.0 sec)
Transforming the Hamiltonian                       ... done (   0.0 sec)
Diagonalizing the Hamiltonian                      ... done (   0.0 sec)
Back transforming the eigenvectors                 ... done (   0.0 sec)
Now organizing SCF variables                       ... done
                      ------------------
                      INITIAL GUESS DONE (   0.1 sec)
                      ------------------
--------------
SCF ITERATIONS
--------------
ITER       Energy         Delta-E        Max-DP      RMS-DP      [F,P]     Damp
  0  -1713.3130981675   0.000000000000 0.04267693  0.00075961  0.4988455 0.8500
  1  -1713.4090354607  -0.095937293247 0.04311275  0.00071646  0.3623845 0.8500
                               ***Turning on DIIS***
  2  -1713.4676337349  -0.058598274153 0.02839476  0.00051405  0.2369278 0.8500
  3  -1712.9043437427   0.563289992164 0.00838892  0.00025568  0.1969727 0.8500
  4  -1713.0636799386  -0.159336195872 0.00582268  0.00016483  0.1706991 0.8500
  5  -1713.1876097591  -0.123929820501 0.00488875  0.00013721  0.1461409 0.8500
  6  -1713.2508761785  -0.063266419450 0.00462278  0.00012672  0.1244561 0.8500
  7  -1713.2876739636  -0.036797785023 0.00501324  0.00011989  0.1057658 0.8500
  8  -1713.3222659455  -0.034591981963 0.00526921  0.00011329  0.0898318 0.8500
  9  -1713.3585834965  -0.036317551026 0.00536808  0.00010650  0.0762985 0.8500
 10  -1713.3943286580  -0.035745161416 0.00534640  0.00009983  0.0648130 0.8500
 11  -1713.4275643736  -0.033235715594 0.00524547  0.00009361  0.0550641 0.8500
 12  -1713.4574713737  -0.029907000183 0.00509578  0.00008802  0.0467874 0.8500
 13  -1713.4839460866  -0.026474712861 0.00491608  0.00008308  0.0397592 0.8500
 14  -1713.5072732091  -0.023327122520 0.00471574  0.00007875  0.0337905 0.8500
 15  -1713.5279710155  -0.020697806348 0.02997851  0.00049907  0.0287215 0.0000
 16  -1713.6921122228  -0.164141207364 0.00957502  0.00015389  0.0085329 0.0000
 17  -1713.7474718824  -0.055359659540 0.00061081  0.00001739  0.0097038 0.0000
 18  -1713.7520647076  -0.004592825181 0.00016857  0.00000447  0.0094638 0.0000
 19  -1713.7519151689   0.000149538694 0.00018348  0.00000361  0.0094345 0.0000
 20  -1713.7615531329  -0.009637964089 0.00097227  0.00001476  0.0094400 0.0000
 21  -1713.7591838884   0.002369244516 0.00005511  0.00000172  0.0092332 0.0000
 22  -1713.7562469150   0.002936973445 0.00023333  0.00000371  0.0092773 0.0000
 23  -1713.7550980820   0.001148832994 0.00027622  0.00000464  0.0093255 0.0000
 24  -1713.7548632491   0.000234832913 0.00027590  0.00000462  0.0093616 0.0000
 25  -1713.7551337700  -0.000270520962 0.00024290  0.00000404  0.0093885 0.0000
 26  -1713.7557225819  -0.000588811866 0.00018685  0.00000309  0.0094078 0.0000
 27  -1713.7577199340  -0.001997352088 0.00021800  0.00000340  0.0094195 0.0000
 28  -1713.7675113635  -0.009791429480 0.00070670  0.00001050  0.0094392 0.0000
 29  -1713.7687429012  -0.001231537748 0.00024377  0.00000368  0.0092229 0.0000
 30  -1713.7628882042   0.005854696995 0.00025736  0.00000579  0.0092138 0.0000
 31  -1713.6868354454   0.076052758865 0.01108165  0.00017471  0.0096611 0.0000
 32  -1713.7513403188  -0.064504873466 0.00421497  0.00007167  0.0113818 0.0000
 33  -1713.7315323152   0.019808003620 0.00232906  0.00003942  0.0111268 0.0000
 34  -1713.7463894266  -0.014857111395 0.00291222  0.00005260  0.0107320 0.0000
 35  -1713.7614357518  -0.015046325212 0.00346717  0.00005892  0.0098090 0.0000
 36  -1713.7822654740  -0.020829722164 0.00742716  0.00009795  0.0090073 0.0000
 37  -1713.8045167301  -0.022251256109 0.01488623  0.00016748  0.0080356 0.0000
 38  -1713.8221265187  -0.017609788631 0.02392705  0.00025321  0.0070222 0.0000
 39  -1713.8280634821  -0.005936963400 0.03040905  0.00031187  0.0060010 0.0000
 40  -1713.8200247816   0.008038700492 0.03130766  0.00031605  0.0051786 0.0000
 41  -1713.7927486963   0.027276085325 0.02519148  0.00025478  0.0046305 0.0000
 42  -1713.7853467580   0.007401938340 0.02515590  0.00025380  0.0043687 0.0000
 43  -1713.6814670244   0.103879733514 0.00391526  0.00004800  0.0041571 0.0000
 44  -1713.6269232542   0.054543770202 0.01424326  0.00013689  0.0044863 0.0000
 45  -1713.6735798071  -0.046656552891 0.00227866  0.00003466  0.0046765 0.0000
 46  -1713.6817731560  -0.008193348905 0.00076196  0.00001546  0.0040866 0.0000
 47  -1713.6768519888   0.004921167244 0.00171626  0.00001676  0.0039500 0.0000
 48  -1713.6771375168  -0.000285528006 0.00298953  0.00002912  0.0039484 0.0000
 49  -1713.6752568789   0.001880637909 0.00255282  0.00002546  0.0039765 0.0000
 50  -1713.6713647030   0.003892175861 0.00326237  0.00003394  0.0040060 0.0000
 51  -1713.6625825565   0.008782146585 0.00241629  0.00003158  0.0040547 0.0000
 52  -1713.6443199363   0.018262620179 0.00121177  0.00002964  0.0041178 0.0000
 53  -1713.6027224570   0.041597479234 0.00538425  0.00011032  0.0043487 0.0000
 54  -1713.5908252578   0.011897199191 0.01502845  0.00014889  0.0048132 0.0000
 55  -1713.6629117482  -0.072086490393 0.00249780  0.00003076  0.0055629 0.0000
 56  -1713.7387058652  -0.075794117005 0.01242115  0.00012081  0.0053929 0.0000
 57  -1713.7489930036  -0.010287138332 0.00673812  0.00007111  0.0050496 0.0000
 58  -1713.7254215423   0.023571461290 0.00165806  0.00002562  0.0049946 0.0000
 59  -1713.6932054352   0.032216107125 0.00152375  0.00002516  0.0049854 0.0000
 60  -1713.6867308291   0.006474606046 0.00963948  0.00011143  0.0051281 0.0000
 61  -1713.6907604474  -0.004029618295 0.00154189  0.00002389  0.0050475 0.0000
 62  -1713.6970023474  -0.006241900013 0.00283639  0.00003898  0.0050157 0.0000
 63  -1713.6977656232  -0.000763275812 0.00437819  0.00005972  0.0049206 0.0000
 64  -1713.6939083071   0.003857316144 0.00634286  0.00008315  0.0047564 0.0000
 65  -1713.6866098592   0.007298447848 0.00873987  0.00011101  0.0045492 0.0000
 66  -1713.6772390840   0.009370775275 0.01062698  0.00013279  0.0042921 0.0000
 67  -1713.6688627888   0.008376295201 0.01170203  0.00014674  0.0039960 0.0000
 68  -1713.6519632229   0.016899565905 0.01496425  0.00018098  0.0036490 0.0000
 69  -1713.6373441892   0.014619033671 0.01195631  0.00014221  0.0032396 0.0000
 70  -1713.6316338726   0.005710316580 0.01339624  0.00016066  0.0030496 0.0000
 71  -1713.6380549881  -0.006421115480 0.00929225  0.00011669  0.0028725 0.0000
 72  -1713.6557777089  -0.017722720805 0.00878036  0.00011893  0.0030657 0.0000
 73  -1713.6614141640  -0.005636455088 0.00834974  0.00012263  0.0033335 0.0000
 74  -1713.6593341925   0.002079971512 0.00138009  0.00002950  0.0035594 0.0000
 75  -1713.6785856656  -0.019251473120 0.00389211  0.00005163  0.0034254 0.0000
 76  -1713.6750133861   0.003572279519 0.00957147  0.00010907  0.0034116 0.0000
 77  -1713.7009978453  -0.025984459267 0.01081733  0.00010951  0.0030300 0.0000
 78  -1713.6995094751   0.001488370267 0.00784728  0.00008300  0.0029291 0.0000
 79  -1713.6900565225   0.009452952585 0.00949555  0.00009894  0.0028964 0.0000
 80  -1713.6988646452  -0.008808122725 0.01164106  0.00012101  0.0027817 0.0000
 81  -1713.7033844385  -0.004519793284 0.01032594  0.00010796  0.0026535 0.0000
 82  -1713.6980688287   0.005315609820 0.00900131  0.00009476  0.0026048 0.0000
 83  -1713.6909863107   0.007082517953 0.00880220  0.00009282  0.0025623 0.0000
 84  -1713.7165886111  -0.025602300349 0.01551086  0.00015832  0.0025176 0.0000
 85  -1713.6253096394   0.091278971695 0.01290530  0.00013034  0.0025360 0.0000
 86  -1713.6354104451  -0.010100805679 0.00094294  0.00001120  0.0026592 0.0000
 87  -1713.6466029498  -0.011192504692 0.00031485  0.00000511  0.0026040 0.0000
 88  -1713.6333869456   0.013216004189 0.00293771  0.00003139  0.0025996 0.0000
 89  -1713.6301109946   0.003275951000 0.00212703  0.00002418  0.0026363 0.0000
 90  -1713.6344647633  -0.004353768724 0.00161327  0.00001766  0.0026585 0.0000
 91  -1713.6374996292  -0.003034865937 0.00443646  0.00004254  0.0026835 0.0000
 92  -1713.6436206351  -0.006121005837 0.00128058  0.00001649  0.0027662 0.0000
 93  -1713.6263188097   0.017301825319 0.00523548  0.00005306  0.0027426 0.0000
 94  -1713.6099294543   0.016389355412 0.00760960  0.00007782  0.0027973 0.0000
 95  -1713.6234011741  -0.013471719781 0.00177990  0.00002100  0.0028667 0.0000
 96  -1713.6609377591  -0.037536585010 0.00640263  0.00006558  0.0028333 0.0000
 97  -1713.6842293458  -0.023291586696 0.00891550  0.00009320  0.0027203 0.0000
 98  -1713.6893203865  -0.005091040638 0.00840627  0.00009035  0.0026394 0.0000
 99  -1713.6741939068   0.015126479635 0.00194086  0.00002706  0.0026060 0.0000
100  -1713.6026597548   0.071534151977 0.01527244  0.00015379  0.0026590 0.0000
101  -1713.6128157062  -0.010155951326 0.00417827  0.00004568  0.0028891 0.0000
102  -1713.6337576996  -0.020941993439 0.00141911  0.00001789  0.0028534 0.0000
103  -1713.6382011370  -0.004443437388 0.00171344  0.00001896  0.0028186 0.0000
104  -1713.6393793256  -0.001178188605 0.00168451  0.00001812  0.0028166 0.0000
105  -1713.6433611562  -0.003981830560 0.00067140  0.00000799  0.0028201 0.0000
106  -1713.6484587243  -0.005097568170 0.00093612  0.00001151  0.0028099 0.0000
107  -1713.6513467344  -0.002888010030 0.00105546  0.00001285  0.0027777 0.0000
108  -1713.6509743517   0.000372382680 0.00048899  0.00000719  0.0027581 0.0000
109  -1713.6412558204   0.009718531260 0.00201345  0.00002101  0.0027500 0.0000
110  -1713.6359565448   0.005299275610 0.00222887  0.00002355  0.0027752 0.0000
111  -1713.6333303998   0.002626144967 0.00185894  0.00002142  0.0027864 0.0000
112  -1713.6472835836  -0.013953183785 0.00282000  0.00003454  0.0027807 0.0000
113  -1713.6890207346  -0.041737150926 0.01010350  0.00010569  0.0027162 0.0000
114  -1713.7073895551  -0.018368820534 0.00832206  0.00008762  0.0026194 0.0000
115  -1713.6455288731   0.061860682023 0.00828515  0.00008325  0.0026085 0.0000
116  -1713.6672667410  -0.021737867938 0.00122646  0.00002498  0.0027659 0.0000
117  -1713.6765652212  -0.009298480241 0.00162071  0.00001849  0.0027443 0.0000
118  -1713.6668100504   0.009755170885 0.00007753  0.00000194  0.0027320 0.0000
119  -1713.6578258205   0.008984229836 0.00070939  0.00000776  0.0027448 0.0000
120  -1713.6537944845   0.004031336026 0.00069861  0.00000879  0.0027554 0.0000
121  -1713.6536248286   0.000169655873 0.00060686  0.00000953  0.0027555 0.0000
122  -1713.6549253317  -0.001300503066 0.00097768  0.00001425  0.0027409 0.0000
123  -1713.6563449162  -0.001419584552 0.00074829  0.00001089  0.0027216 0.0000
124  -1713.6577531884  -0.001408272180 0.00021926  0.00000447  0.0027093 0.0000
125  -1713.6600188705  -0.002265682061 0.00016075  0.00000187  0.0027057 0.0000
126  -1713.6623447180  -0.002325847507 0.00061819  0.00000649  0.0027039 0.0000
127  -1713.6681462308  -0.005801512812 0.00240354  0.00002488  0.0026936 0.0000
128  -1713.6838585373  -0.015712306484 0.00594084  0.00006119  0.0026676 0.0000
129  -1713.6649052829   0.018953254361 0.00494123  0.00005784  0.0026202 0.0000
130  -1713.6693065314  -0.004401248506 0.00306946  0.00003212  0.0027672 0.0000
131  -1713.6716426929  -0.002336161429 0.00163000  0.00001797  0.0027280 0.0000
132  -1713.6739647999  -0.002322107035 0.00265476  0.00002857  0.0027395 0.0000
133  -1713.6735101300   0.000454669889 0.00290672  0.00003518  0.0027266 0.0000
134  -1713.6636198359   0.009890294057 0.00268614  0.00002686  0.0027234 0.0000
135  -1713.6654941324  -0.001874296448 0.00037314  0.00000782  0.0027753 0.0000
136  -1713.6709360838  -0.005441951406 0.00086248  0.00001072  0.0027498 0.0000
137  -1713.6760191743  -0.005083090527 0.00148230  0.00001546  0.0027216 0.0000
138  -1713.6807424945  -0.004723320139 0.00401858  0.00005508  0.0027043 0.0000
139  -1713.6801258558   0.000616638633 0.00158570  0.00002418  0.0028017 0.0000
140  -1713.6808787958  -0.000752939991 0.00190611  0.00002828  0.0028079 0.0000
141  -1713.6825800471  -0.001701251264 0.00249030  0.00003636  0.0028233 0.0000
142  -1713.6865742289  -0.003994181854 0.00284413  0.00004202  0.0028451 0.0000
143  -1713.6931504295  -0.006576200520 0.00274328  0.00004576  0.0028594 0.0000
144  -1713.6987547339  -0.005604304460 0.00240103  0.00004921  0.0028484 0.0000
145  -1713.6985309780   0.000223755933 0.00233909  0.00004778  0.0028157 0.0000
146  -1713.7060161667  -0.007485188675 0.00436681  0.00006211  0.0027708 0.0000
147  -1713.7148982680  -0.008882101302 0.00621074  0.00007817  0.0026571 0.0000
148  -1713.7221822111  -0.007283943128 0.00737971  0.00009057  0.0025020 0.0000
149  -1713.7244955033  -0.002313292211 0.00711638  0.00009002  0.0023716 0.0000
150  -1713.7198366936   0.004658809721 0.00591545  0.00007951  0.0021968 0.0000
151  -1713.7433932754  -0.023556581769 0.00738276  0.00011080  0.0019979 0.0000
152  -1713.7140480112   0.029345264181 0.00307466  0.00003999  0.0017305 0.0000
153  -1713.8077870794  -0.093739068240 0.01043149  0.00018215  0.0015114 0.0000
154  -1713.8294443910  -0.021657311626 0.00955208  0.00011409  0.0041602 0.0000
155  -1713.8187927044   0.010651686673 0.00625821  0.00007002  0.0048236 0.0000
156  -1713.8150989815   0.003693722828 0.00489375  0.00005378  0.0049650 0.0000
157  -1713.7336852689   0.081413712664 0.00349467  0.00007791  0.0053187 0.0000
158  -1713.6993149578   0.034370311040 0.00248018  0.00004628  0.0034539 0.0000
159  -1713.6853798878   0.013935070008 0.00223405  0.00004677  0.0032459 0.0000
160  -1713.6619853659   0.023394521970 0.00364185  0.00005657  0.0030492 0.0000
161  -1713.6512463960   0.010738969886 0.00312887  0.00004587  0.0027232 0.0000
162  -1713.6452413041   0.006005091921 0.00324613  0.00004240  0.0023633 0.0000
163  -1713.6347200880   0.010521216023 0.00381758  0.00004724  0.0020495 0.0000
164  -1713.6260200175   0.008700070546 0.00357208  0.00004580  0.0017674 0.0000
165  -1713.6244025803   0.001617437153 0.00276766  0.00003730  0.0015979 0.0000
166  -1713.6349558643  -0.010553283949 0.00116663  0.00001688  0.0017301 0.0000
167  -1713.6443011196  -0.009345255363 0.00045967  0.00000765  0.0017666 0.0000
168  -1713.6521783933  -0.007877273650 0.00369139  0.00004599  0.0017742 0.0000
169  -1713.6601312869  -0.007952893591 0.00362920  0.00004225  0.0018131 0.0000
170  -1713.6581089838   0.002022303097 0.00284383  0.00003048  0.0018323 0.0000
171  -1713.6505467654   0.007562218430 0.00229873  0.00003319  0.0018744 0.0000
172  -1713.6590139678  -0.008467202410 0.00393426  0.00005028  0.0019509 0.0000
173  -1713.6689049467  -0.009890978908 0.00028809  0.00000621  0.0020105 0.0000
174  -1713.6827501484  -0.013845201758 0.00059021  0.00001379  0.0020353 0.0000
175  -1713.6855784350  -0.002828286585 0.00034390  0.00000672  0.0019949 0.0000
176  -1713.6832306590   0.002347776037 0.00090033  0.00001274  0.0019772 0.0000
177  -1713.6805949217   0.002635737232 0.00098673  0.00001285  0.0019629 0.0000
178  -1713.6814877610  -0.000892839265 0.00093185  0.00001408  0.0019476 0.0000
179  -1713.6907587606  -0.009270999596 0.00162199  0.00002674  0.0019105 0.0000
180  -1713.7113391764  -0.020580415814 0.00510243  0.00007667  0.0018000 0.0000
181  -1713.7224338372  -0.011094660773 0.00781997  0.00011244  0.0015492 0.0000
182  -1713.7165478578   0.005885979383 0.00673252  0.00009541  0.0013396 0.0000
183  -1713.7223636440  -0.005815786225 0.00856040  0.00011821  0.0011600 0.0000
184  -1713.7127495829   0.009614061168 0.00602482  0.00008194  0.0011027 0.0000
185  -1713.7154288367  -0.002679253823 0.00855116  0.00011164  0.0007945 0.0000
186  -1713.6985679404   0.016860896292 0.00465030  0.00006082  0.0009797 0.0000
187  -1713.6909660166   0.007601923754 0.00418363  0.00005117  0.0005165 0.0000
188  -1713.6793666883   0.011599328370 0.00148088  0.00002099  0.0004551 0.0000
189  -1713.6756626788   0.003704009426 0.00033620  0.00000939  0.0003535 0.0000
190  -1713.6744609967   0.001201682133 0.00037583  0.00001008  0.0002590 0.0000
191  -1713.6737283281   0.000732668611 0.00027373  0.00000704  0.0002332 0.0000
192  -1713.6749476436  -0.001219315515 0.00025616  0.00000444  0.0001880 0.0000
193  -1713.6747603181   0.000187325471 0.00016884  0.00000350  0.0001524 0.0000
194  -1713.6740683836   0.000691934556 0.00014177  0.00000329  0.0001333 0.0000
195  -1713.6737833939   0.000284989725 0.00017741  0.00000365  0.0001135 0.0000
196  -1713.6735776880   0.000205705852 0.00024038  0.00000391  0.0000977 0.0000
197  -1713.6739512386  -0.000373550589 0.00014639  0.00000272  0.0000859 0.0000
198  -1713.6740116171  -0.000060378456 0.00014940  0.00000254  0.0000720 0.0000
199  -1713.6742431261  -0.000231509009 0.00023648  0.00000238  0.0000684 0.0000
200  -1713.6740886238   0.000154502234 0.00010898  0.00000202  0.0000594 0.0000
201  -1713.6742010493  -0.000112425429 0.00012258  0.00000161  0.0000573 0.0000
202  -1713.6739632574   0.000237791845 0.00027342  0.00000339  0.0000509 0.0000
203  -1713.6749158453  -0.000952587898 0.00001139  0.00000032  0.0000527 0.0000
204  -1713.6747945316   0.000121313677 0.00009762  0.00000130  0.0000516 0.0000
205  -1713.6750722924  -0.000277760782 0.00008174  0.00000107  0.0000539 0.0000
206  -1713.6750790162  -0.000006723791 0.00005289  0.00000068  0.0000516 0.0000
207  -1713.6751289944  -0.000049978182 0.00005453  0.00000076  0.0000505 0.0000
208  -1713.6751489462  -0.000019951807 0.00008001  0.00000111  0.0000490 0.0000
209  -1713.6752752622  -0.000126315993 0.00014324  0.00000206  0.0000480 0.0000
210  -1713.6753654768  -0.000090214609 0.00017943  0.00000259  0.0000444 0.0000
211  -1713.6753824937  -0.000017016851 0.00018610  0.00000271  0.0000406 0.0000
212  -1713.6752423425   0.000140151195 0.00014755  0.00000217  0.0000365 0.0000
213  -1713.6753593895  -0.000117046991 0.00018743  0.00000269  0.0000332 0.0000
214  -1713.6752227114   0.000136678078 0.00011528  0.00000172  0.0000275 0.0000
215  -1713.6753445402  -0.000121828822 0.00016033  0.00000215  0.0000247 0.0000
216  -1713.6752406122   0.000103927966 0.00011936  0.00000158  0.0000201 0.0000
217  -1713.6751449466   0.000095665677 0.00012379  0.00000157  0.0000167 0.0000
218  -1713.6750412856   0.000103660919 0.00009577  0.00000118  0.0000121 0.0000
219  -1713.6749412648   0.000100020803 0.00006803  0.00000084  0.0000095 0.0000
220  -1713.6748575011   0.000083763687 0.00003834  0.00000055  0.0000071 0.0000
221  -1713.6747939284   0.000063572699 0.00001757  0.00000034  0.0000063 0.0000
222  -1713.6747649711   0.000028957327 0.00001114  0.00000031  0.0000051 0.0000
223  -1713.6747563613   0.000008609853 0.00001542  0.00000030  0.0000039 0.0000
224  -1713.6747778406  -0.000021479287 0.00000954  0.00000019  0.0000027 0.0000
225  -1713.6747822719  -0.000004431310 0.00000694  0.00000014  0.0000017 0.0000
226  -1713.6748148188  -0.000032546915 0.00000650  0.00000008  0.0000013 0.0000
227  -1713.6748134122   0.000001406576 0.00000381  0.00000005  0.0000008 0.0000
228  -1713.6748155743  -0.000002162141 0.00000128  0.00000003  0.0000006 0.0000
229  -1713.6748216735  -0.000006099159 0.00000154  0.00000003  0.0000003 0.0000
230  -1713.6748244228  -0.000002749299 0.00000171  0.00000003  0.0000002 0.0000
231  -1713.6748283109  -0.000003888063 0.00000101  0.00000002  0.0000002 0.0000
232  -1713.6748293731  -0.000001062248 0.00000061  0.00000002  0.0000002 0.0000
233  -1713.6748299558  -0.000000582675 0.00000060  0.00000002  0.0000001 0.0000
234  -1713.6748301744  -0.000000218604 0.00000075  0.00000003  0.0000001 0.0000
235  -1713.6748319097  -0.000001735295 0.00000050  0.00000002  0.0000001 0.0000
236  -1713.6748330091  -0.000001099463 0.00000031  0.00000001  0.0000001 0.0000
237  -1713.6748335666  -0.000000557419 0.00000016  0.00000000  0.0000001 0.0000
238  -1713.6748344279  -0.000000861341 0.00000007  0.00000000  0.0000001 0.0000
239  -1713.6748349541  -0.000000526240 0.00000010  0.00000000  0.0000001 0.0000
240  -1713.6748355209  -0.000000566799 0.00000009  0.00000000  0.0000001 0.0000
241  -1713.6748362725  -0.000000751586 0.00000031  0.00000001  0.0000001 0.0000
242  -1713.6748350017   0.000001270783 0.00000039  0.00000000  0.0000001 0.0000
243  -1713.6748355032  -0.000000501476 0.00000066  0.00000001  0.0000001 0.0000
244  -1713.6748360309  -0.000000527649 0.00000023  0.00000001  0.0000001 0.0000
245  -1713.6748344912   0.000001539703 0.00000046  0.00000001  0.0000001 0.0000
246  -1713.6748328542   0.000001636949 0.00000077  0.00000001  0.0000001 0.0000
247  -1713.6748324397   0.000000414520 0.00000084  0.00000001  0.0000001 0.0000
248  -1713.6748337798  -0.000001340128 0.00000056  0.00000001  0.0000001 0.0000
249  -1713.6748344377  -0.000000657886 0.00000043  0.00000001  0.0000000 0.0000
250  -1713.6748343277   0.000000110032 0.00000027  0.00000000  0.0000000 0.0000
251  -1713.6748345301  -0.000000202404 0.00000014  0.00000000  0.0000000 0.0000
                            ***DIIS convergence achieved***

               *****************************************************
               *                     SUCCESS                       *
               *           SCF CONVERGED AFTER 252 CYCLES          *
               *****************************************************


----------------
TOTAL SCF ENERGY
----------------

Total Energy       :        -1713.67483475 Eh          -46631.46295 eV

Components:
Nuclear Repulsion  :           71.27047998 Eh            1939.36836 eV
Electronic Energy  :        -1784.94531473 Eh          -48570.83131 eV
One Electron Energy:        -2530.08264370 Eh          -68847.04885 eV
Two Electron Energy:          745.13732897 Eh           20276.21754 eV

Virial components:
Potential Energy   :        -3427.31768149 Eh          -93262.05546 eV
Kinetic Energy     :         1713.64284673 Eh           46630.59251 eV
Virial Ratio       :            2.00001867


---------------
SCF CONVERGENCE
---------------

  Last Energy change         ...   -2.2278e-07  Tolerance :   1.0000e-09
  Last MAX-Density change    ...    7.1539e-08  Tolerance :   1.0000e-08
  Last RMS-Density change    ...    1.5519e-09  Tolerance :   1.0000e-09
  Last DIIS Error            ...    1.5935e-08  Tolerance :   1.0000e-08

             **** THE GBW FILE WAS UPDATED (53_CuO.gbw) ****
             **** DENSITY FILE WAS UPDATED (53_CuO.scfp) ****
             **** ENERGY FILE WAS UPDATED (53_CuO.en.tmp) ****
----------------------
UHF SPIN CONTAMINATION
----------------------

Expectation value of <S**2>     :     0.774498
Ideal value S*(S+1) for S=0.5   :     0.750000
Deviation                       :     0.024498

             **** THE GBW FILE WAS UPDATED (53_CuO.gbw) ****
             **** DENSITY FILE WAS UPDATED (53_CuO.scfp) ****
----------------
ORBITAL ENERGIES
----------------
                 SPIN UP ORBITALS
  NO   OCC          E(Eh)            E(eV) 
   0   1.0000    -329.048631     -8953.8684 
   1   1.0000     -41.114471     -1118.7816 
   2   1.0000     -35.935599      -977.8574 
   3   1.0000     -35.896904      -976.8044 
   4   1.0000     -35.896904      -976.8044 
   5   1.0000     -20.455590      -556.6249 
   6   1.0000      -5.321530      -144.8062 
   7   1.0000      -3.686972      -100.3276 
   8   1.0000      -3.604415       -98.0811 
   9   1.0000      -3.604415       -98.0811 
  10   1.0000      -1.125453       -30.6251 
  11   1.0000      -0.825061       -22.4511 
  12   1.0000      -0.787167       -21.4199 
  13   1.0000      -0.787167       -21.4199 
  14   1.0000      -0.750664       -20.4266 
  15   1.0000      -0.750664       -20.4266 
  16   1.0000      -0.377971       -10.2851 
  17   1.0000      -0.362797        -9.8722 
  18   1.0000      -0.362797        -9.8722 
  19   0.0000      -0.041069        -1.1175 
  20   0.0000       0.105219         2.8632 
  21   0.0000       0.105219         2.8632 
  22   0.0000       0.149868         4.0781 
  23   0.0000       0.201141         5.4733 
  24   0.0000       0.236975         6.4484 
  25   0.0000       0.236975         6.4484 
  26   0.0000       0.285506         7.7690 
  27   0.0000       0.285506         7.7690 
  28   0.0000       0.334786         9.1100 
  29   0.0000       0.658474        17.9180 
  30   0.0000       0.658474        17.9180 
  31   0.0000       0.727548        19.7976 
  32   0.0000       0.762021        20.7356 
  33   0.0000       0.826815        22.4988 
  34   0.0000       0.826815        22.4988 
  35   0.0000       0.988626        26.9019 
  36   0.0000       0.988626        26.9019 
  37   0.0000       1.011311        27.5192 
  38   0.0000       1.011311        27.5192 
  39   0.0000       1.068311        29.0702 
  40   0.0000       1.254553        34.1381 
  41   0.0000       1.880666        51.1755 
  42   0.0000       1.880666        51.1755 
  43   0.0000       2.018317        54.9212 
  44   0.0000       2.018317        54.9212 
  45   0.0000       2.140454        58.2447 
  46   0.0000       2.966751        80.7294 
  47   0.0000       3.139526        85.4308 
  48   0.0000       3.139526        85.4308 
  49   0.0000       3.213546        87.4450 
  50   0.0000       3.228984        87.8651 
  51   0.0000       3.228984        87.8651 
  52   0.0000       3.415285        92.9346 
  53   0.0000       3.520472        95.7969 
  54   0.0000       3.635139        98.9172 
  55   0.0000       3.635139        98.9172 
  56   0.0000       3.641606        99.0932 
  57   0.0000       3.641606        99.0932 
  58   0.0000       3.742642       101.8425 
  59   0.0000       3.742642       101.8425 
  60   0.0000       4.008565       109.0786 
  61   0.0000       4.008565       109.0786 
  62   0.0000       4.013065       109.2011 
  63   0.0000       4.013065       109.2011 
  64   0.0000       4.031914       109.7140 
  65   0.0000       4.422469       120.3415 
  66   0.0000       5.698181       155.0554 
  67   0.0000       5.698181       155.0554 
  68   0.0000       5.722722       155.7232 
  69   0.0000       5.722722       155.7232 
  70   0.0000       5.766467       156.9135 
  71   0.0000       5.766467       156.9135 
  72   0.0000       6.030043       164.0858 
  73   0.0000       6.871901       186.9939 
  74   0.0000       6.871901       186.9939 
  75   0.0000       7.012218       190.8121 
  76   0.0000       7.012218       190.8121 
  77   0.0000       7.414379       201.7555 
  78   0.0000      13.481146       366.8406 
  79   0.0000      13.481605       366.8531 
  80   0.0000      13.481605       366.8531 
  81   0.0000      13.501338       367.3901 
  82   0.0000      13.501338       367.3901 
  83   0.0000      13.528068       368.1174 
  84   0.0000      13.528068       368.1174 
  85   0.0000      13.528990       368.1425 
  86   0.0000      13.528990       368.1425 
  87   0.0000      13.750120       374.1598 
  88   0.0000      13.750120       374.1598 
  89   0.0000      13.761714       374.4753 
  90   0.0000      13.761714       374.4753 
  91   0.0000      13.764852       374.5607 
  92   0.0000      13.764852       374.5607 
  93   0.0000      13.955399       379.7457 
  94   0.0000      44.982473      1224.0353 

                 SPIN DOWN ORBITALS
  NO   OCC          E(Eh)            E(eV) 
   0   1.0000    -329.047295     -8953.8321 
   1   1.0000     -41.077571     -1117.7775 
   2   1.0000     -35.874029      -976.1820 
   3   1.0000     -35.873761      -976.1747 
   4   1.0000     -35.873761      -976.1747 
   5   1.0000     -20.451137      -556.5037 
   6   1.0000      -5.231171      -142.3474 
   7   1.0000      -3.546796       -96.5132 
   8   1.0000      -3.546796       -96.5132 
   9   1.0000      -3.478871       -94.6649 
  10   1.0000      -1.100019       -29.9330 
  11   1.0000      -0.758751       -20.6467 
  12   1.0000      -0.758751       -20.6467 
  13   1.0000      -0.705952       -19.2099 
  14   1.0000      -0.705952       -19.2099 
  15   1.0000      -0.361589        -9.8393 
  16   1.0000      -0.360306        -9.8044 
  17   1.0000      -0.360306        -9.8044 
  18   0.0000      -0.045624        -1.2415 
  19   0.0000       0.086158         2.3445 
  20   0.0000       0.109821         2.9884 
  21   0.0000       0.109821         2.9884 
  22   0.0000       0.167804         4.5662 
  23   0.0000       0.239309         6.5119 
  24   0.0000       0.239309         6.5119 
  25   0.0000       0.268172         7.2973 
  26   0.0000       0.289066         7.8659 
  27   0.0000       0.289066         7.8659 
  28   0.0000       0.339277         9.2322 
  29   0.0000       0.669239        18.2109 
  30   0.0000       0.669239        18.2109 
  31   0.0000       0.751347        20.4452 
  32   0.0000       0.796253        21.6672 
  33   0.0000       0.827119        22.5071 
  34   0.0000       0.827119        22.5071 
  35   0.0000       1.000146        27.2154 
  36   0.0000       1.000146        27.2154 
  37   0.0000       1.019405        27.7394 
  38   0.0000       1.019405        27.7394 
  39   0.0000       1.074595        29.2412 
  40   0.0000       1.312650        35.7190 
  41   0.0000       1.880483        51.1706 
  42   0.0000       1.880483        51.1706 
  43   0.0000       2.030443        55.2512 
  44   0.0000       2.030443        55.2512 
  45   0.0000       2.164494        58.8989 
  46   0.0000       3.004841        81.7659 
  47   0.0000       3.147909        85.6590 
  48   0.0000       3.147909        85.6590 
  49   0.0000       3.238491        88.1238 
  50   0.0000       3.238491        88.1238 
  51   0.0000       3.246666        88.3463 
  52   0.0000       3.439537        93.5946 
  53   0.0000       3.545020        96.4649 
  54   0.0000       3.643611        99.1477 
  55   0.0000       3.643611        99.1477 
  56   0.0000       3.656728        99.5046 
  57   0.0000       3.656728        99.5046 
  58   0.0000       3.790441       103.1431 
  59   0.0000       3.790441       103.1431 
  60   0.0000       4.024267       109.5059 
  61   0.0000       4.024267       109.5059 
  62   0.0000       4.033528       109.7579 
  63   0.0000       4.033528       109.7579 
  64   0.0000       4.160993       113.2264 
  65   0.0000       4.485330       122.0520 
  66   0.0000       5.703515       155.2005 
  67   0.0000       5.703515       155.2005 
  68   0.0000       5.722300       155.7117 
  69   0.0000       5.722300       155.7117 
  70   0.0000       5.775494       157.1592 
  71   0.0000       5.775494       157.1592 
  72   0.0000       6.051851       164.6792 
  73   0.0000       6.872031       186.9975 
  74   0.0000       6.872031       186.9975 
  75   0.0000       7.025555       191.1751 
  76   0.0000       7.025555       191.1751 
  77   0.0000       7.434105       202.2923 
  78   0.0000      13.532960       368.2506 
  79   0.0000      13.532960       368.2506 
  80   0.0000      13.533070       368.2536 
  81   0.0000      13.533070       368.2536 
  82   0.0000      13.544660       368.5689 
  83   0.0000      13.544660       368.5689 
  84   0.0000      13.549932       368.7124 
  85   0.0000      13.549932       368.7124 
  86   0.0000      13.559919       368.9842 
  87   0.0000      13.762731       374.5030 
  88   0.0000      13.762731       374.5030 
  89   0.0000      13.791278       375.2798 
  90   0.0000      13.791278       375.2798 
  91   0.0000      13.872255       377.4832 
  92   0.0000      13.872255       377.4832 
  93   0.0000      14.109738       383.9455 
  94   0.0000      44.985079      1224.1062 

                    ********************************
                    * MULLIKEN POPULATION ANALYSIS *
                    ********************************

--------------------------------------------
MULLIKEN ATOMIC CHARGES AND SPIN POPULATIONS
--------------------------------------------
   0 Cu:    0.849555    0.862743
   1 O :   -0.849555    0.137257
Sum of atomic charges         :   -0.0000000
Sum of atomic spin populations:    1.0000000

-----------------------------------------------------
MULLIKEN REDUCED ORBITAL CHARGES AND SPIN POPULATIONS
-----------------------------------------------------
CHARGE
  0 Cus       :     6.593580  s :     6.593580
      pz      :     4.068080  p :    12.328395
      px      :     4.130157
      py      :     4.130157
      dz2     :     1.168683  d :     9.225578
      dxz     :     2.028565
      dyz     :     2.028565
      dx2y2   :     1.999883
      dxy     :     1.999883
      f0      :     0.001016  f :     0.002841
      f+1     :     0.000826
      f-1     :     0.000826
      f+2     :     0.000086
      f-2     :     0.000086
      f+3     :     0.000000
      f-3     :     0.000000
      g0      :     0.000024  g :     0.000051
      g+1     :     0.000009
      g-1     :     0.000009
      g+2     :     0.000005
      g-2     :     0.000005
      g+3     :     0.000000
      g-3     :     0.000000
      g+4     :     0.000000
      g-4     :     0.000000
  1 O s       :     3.925039  s :     3.925039
      pz      :     1.236630  p :     4.911405
      px      :     1.837387
      py      :     1.837387
      dz2     :     0.006634  d :     0.012383
      dxz     :     0.002853
      dyz     :     0.002853
      dx2y2   :     0.000021
      dxy     :     0.000021
      f0      :     0.000313  f :     0.000729
      f+1     :     0.000202
      f-1     :     0.000202
      f+2     :     0.000006
      f-2     :     0.000006
      f+3     :     0.000000
      f-3     :     0.000000

SPIN
  0 Cus       :     0.015960  s :     0.015960
      pz      :     0.006105  p :     0.021820
      px      :     0.007857
      py      :     0.007857
      dz2     :     0.819447  d :     0.825180
      dxz     :     0.002856
      dyz     :     0.002856
      dx2y2   :     0.000010
      dxy     :     0.000010
      f0      :    -0.000010  f :    -0.000230
      f+1     :    -0.000107
      f-1     :    -0.000107
      f+2     :    -0.000003
      f-2     :    -0.000003
      f+3     :    -0.000000
      f-3     :    -0.000000
      g0      :     0.000010  g :     0.000013
      g+1     :     0.000006
      g-1     :     0.000006
      g+2     :    -0.000005
      g-2     :    -0.000005
      g+3     :    -0.000000
      g-3     :    -0.000000
      g+4     :     0.000000
      g-4     :    -0.000000
  1 O s       :    -0.002175  s :    -0.002175
      pz      :     0.162415  p :     0.140893
      px      :    -0.010761
      py      :    -0.010761
      dz2     :    -0.001724  d :    -0.001469
      dxz     :     0.000130
      dyz     :     0.000130
      dx2y2   :    -0.000003
      dxy     :    -0.000003
      f0      :    -0.000028  f :     0.000007
      f+1     :     0.000018
      f-1     :     0.000018
      f+2     :    -0.000000
      f-2     :    -0.000000
      f+3     :    -0.000000
      f-3     :    -0.000000


                     *******************************
                     * LOEWDIN POPULATION ANALYSIS *
                     *******************************

-------------------------------------------
LOEWDIN ATOMIC CHARGES AND SPIN POPULATIONS
-------------------------------------------
   0 Cu:    0.646642    0.865439
   1 O :   -0.646642    0.134561

----------------------------------------------------
LOEWDIN REDUCED ORBITAL CHARGES AND SPIN POPULATIONS
----------------------------------------------------
CHARGE
  0 Cus       :     6.495085  s :     6.495085
      pz      :     4.160102  p :    12.453455
      px      :     4.146676
      py      :     4.146676
      dz2     :     1.259791  d :     9.399955
      dxz     :     2.070357
      dyz     :     2.070357
      dx2y2   :     1.999726
      dxy     :     1.999726
      f0      :     0.002123  f :     0.004805
      f+1     :     0.001254
      f-1     :     0.001254
      f+2     :     0.000087
      f-2     :     0.000087
      f+3     :     0.000000
      f-3     :     0.000000
      g0      :     0.000028  g :     0.000058
      g+1     :     0.000010
      g-1     :     0.000010
      g+2     :     0.000005
      g-2     :     0.000005
      g+3     :     0.000000
      g-3     :     0.000000
      g+4     :     0.000000
      g-4     :     0.000000
  1 O s       :     3.708103  s :     3.708103
      pz      :     1.360095  p :     4.913349
      px      :     1.776627
      py      :     1.776627
      dz2     :     0.013996  d :     0.023668
      dxz     :     0.004682
      dyz     :     0.004682
      dx2y2   :     0.000154
      dxy     :     0.000154
      f0      :     0.000679  f :     0.001522
      f+1     :     0.000393
      f-1     :     0.000393
      f+2     :     0.000029
      f-2     :     0.000029
      f+3     :     0.000000
      f-3     :     0.000000

SPIN
  0 Cus       :     0.024405  s :     0.024405
      pz      :    -0.001576  p :     0.011855
      px      :     0.006715
      py      :     0.006715
      dz2     :     0.825418  d :     0.829258
      dxz     :     0.001905
      dyz     :     0.001905
      dx2y2   :     0.000015
      dxy     :     0.000015
      f0      :     0.000147  f :    -0.000089
      f+1     :    -0.000115
      f-1     :    -0.000115
      f+2     :    -0.000003
      f-2     :    -0.000003
      f+3     :    -0.000000
      f-3     :    -0.000000
      g0      :     0.000009  g :     0.000011
      g+1     :     0.000006
      g-1     :     0.000006
      g+2     :    -0.000005
      g-2     :    -0.000005
      g+3     :    -0.000000
      g-3     :    -0.000000
      g+4     :     0.000000
      g-4     :    -0.000000
  1 O s       :     0.003400  s :     0.003400
      pz      :     0.149521  p :     0.132430
      px      :    -0.008545
      py      :    -0.008545
      dz2     :    -0.001479  d :    -0.001434
      dxz     :     0.000029
      dyz     :     0.000029
      dx2y2   :    -0.000007
      dxy     :    -0.000007
      f0      :     0.000156  f :     0.000164
      f+1     :     0.000005
      f-1     :     0.000005
      f+2     :    -0.000001
      f-2     :    -0.000001
      f+3     :    -0.000000
      f-3     :    -0.000000


                      *****************************
                      * MAYER POPULATION ANALYSIS *
                      *****************************

  NA   - Mulliken gross atomic population
  ZA   - Total nuclear charge
  QA   - Mulliken gross atomic charge
  VA   - Mayer's total valence
  BVA  - Mayer's bonded valence
  FA   - Mayer's free valence

  ATOM       NA         ZA         QA         VA         BVA        FA
  0 Cu    28.1504    29.0000     0.8496     2.4896     1.5974     0.8922
  1 O      8.8496     8.0000    -0.8496     1.6243     1.5974     0.0269

  Mayer bond orders larger than 0.100000
B(  0-Cu,  1-O ) :   1.5974 

-------
TIMINGS
-------

Total SCF time: 0 days 0 hours 0 min 34 sec 

Total time                  ....      34.890 sec
Sum of individual times     ....      34.272 sec  ( 98.2%)

Fock matrix formation       ....      32.282 sec  ( 92.5%)
Diagonalization             ....       0.583 sec  (  1.7%)
Density matrix formation    ....       0.101 sec  (  0.3%)
Population analysis         ....       0.005 sec  (  0.0%)
Initial guess               ....       0.107 sec  (  0.3%)
Orbital Transformation      ....       0.000 sec  (  0.0%)
Orbital Orthonormalization  ....       0.000 sec  (  0.0%)
DIIS solution               ....       1.167 sec  (  3.3%)


           ************************************************************
           *        Program running with 24 parallel MPI-processes    *
           *              working on a common directory               *
           ************************************************************


------------------------------------------------------------------------------- 
                              ORCA-MATRIX DRIVEN CI                            
------------------------------------------------------------------------------- 

--------------------------------
AUTOMATIC CHOICE OF INCORE LEVEL
--------------------------------

Memory available                           ...   2500.00 MB
Memory needed for S+T                      ...     12.03 MB
Memory needed for J+K                      ...     24.17 MB
Memory needed for DIIS                     ...    168.43 MB
Memory needed for 3-ext                    ...     43.54 MB
Memory needed for 4-ext                    ...    128.94 MB
Memory needed for triples                  ...     16.75 MB
 -> Final InCoreLevel    ... 5
 -> check shows that triples correction can be computed


Wavefunction type
-----------------
Correlation treatment                      ...      CCSD     
Single excitations                         ... ON
Orbital optimization                       ... OFF
Calculation of Z vector                    ... OFF
Calculation of Brueckner orbitals          ... OFF
Perturbative triple excitations            ... ON
Calculation of F12 correction              ... OFF
Frozen core treatment                      ... chemical core (12 el)
Reference Wavefunction                     ... UHF
  Alpha-MOs occ    :     6 ...   18 ( 13 MO's/ 13 electrons)
  Beta-MOs occ     :     6 ...   17 ( 12 MO's/ 12 electrons)
  Alpha-MOs virt   :    19 ...   94 ( 76 MO's              )
  Beta-MOs virt    :    18 ...   94 ( 77 MO's              )
Number of AO's                             ...     95
Number of electrons                        ...     37
Number of correlated electrons             ...     25

Algorithmic settings
--------------------
Integral transformation                    ... AO direct full transformation
K(C) Formation                             ... FULL-MO TRAFO
Maximum number of iterations               ...        50
Convergence tolerance (max. residuum)      ... 1.000e-06
Level shift for amplitude update           ... 2.000e-01
Maximum number of DIIS vectors             ...         7
DIIS turned on at iteration                ...         0
Damping before turning on DIIS             ...     0.500
Damping after turning on DIIS              ...     0.000
Pair specific amplitude update             ... OFF
Natural orbital iterations                 ... OFF
Perturbative natural orbital generation    ... OFF
Printlevel                                 ... 2

Memory handling:
----------------
Maximum memory for working arrays          ...   2500 MB
Data storage in matrix containers          ... UNCOMPRESSED
Data type for integral storage             ... DOUBLE
In-Core Storage of quantities:
   Amplitudes+Sigma Vector      ... YES
   J+K operators                ... YES
   DIIS vectors                 ... YES
   3-external integrals         ... YES
   4-external integrals         ... YES


Initializing the integral package          ... done
Warning: reference  - re-canonicalizations have been set to INT 1 VIRT 1

--------------------------
UNRESTRICTED FOCK OPERATOR
--------------------------

<ss|ss>:         1953 b           21 skpd (  1.1%)    0.001 s ( 0.000 ms/b)
<ss|sp>:         5332 b           57 skpd (  1.1%)    0.001 s ( 0.000 ms/b)
<ss|sd>:         4092 b           97 skpd (  2.4%)    0.001 s ( 0.000 ms/b)
<ss|sf>:         1984 b           45 skpd (  2.3%)    0.000 s ( 0.000 ms/b)
<ss|sg>:          682 b           50 skpd (  7.3%)    0.000 s ( 0.001 ms/b)
<ss|pp>:         2232 b           13 skpd (  0.6%)    0.001 s ( 0.001 ms/b)
<ss|pd>:         2976 b           39 skpd (  1.3%)    0.001 s ( 0.000 ms/b)
<ss|pf>:         1488 b           23 skpd (  1.5%)    0.000 s ( 0.000 ms/b)
<ss|pg>:          496 b            8 skpd (  1.6%)    0.001 s ( 0.001 ms/b)
<ss|dd>:         1302 b           16 skpd (  1.2%)    0.001 s ( 0.001 ms/b)
<ss|df>:         1116 b           19 skpd (  1.7%)    0.000 s ( 0.000 ms/b)
<ss|dg>:          372 b            6 skpd (  1.6%)    0.001 s ( 0.002 ms/b)
<ss|ff>:          372 b            7 skpd (  1.9%)    0.000 s ( 0.001 ms/b)
<ss|fg>:          186 b            3 skpd (  1.6%)    0.000 s ( 0.002 ms/b)
<ss|gg>:           62 b            1 skpd (  1.6%)    0.001 s ( 0.009 ms/b)
<sp|sp>:         3741 b           17 skpd (  0.5%)    0.002 s ( 0.000 ms/b)
<sp|sd>:         5676 b          138 skpd (  2.4%)    0.002 s ( 0.000 ms/b)
<sp|sf>:         2752 b           63 skpd (  2.3%)    0.001 s ( 0.000 ms/b)
<sp|sg>:          946 b           95 skpd ( 10.0%)    0.001 s ( 0.001 ms/b)
<sp|pp>:         3096 b            3 skpd (  0.1%)    0.002 s ( 0.001 ms/b)
<sp|pd>:         4128 b            6 skpd (  0.1%)    0.003 s ( 0.001 ms/b)
<sp|pf>:         2064 b            4 skpd (  0.2%)    0.001 s ( 0.001 ms/b)
<sp|pg>:          688 b            1 skpd (  0.1%)    0.002 s ( 0.002 ms/b)
<sp|dd>:         1806 b            1 skpd (  0.1%)    0.003 s ( 0.001 ms/b)
<sp|df>:         1548 b            4 skpd (  0.3%)    0.001 s ( 0.001 ms/b)
<sp|dg>:          516 b            3 skpd (  0.6%)    0.002 s ( 0.004 ms/b)
<sp|ff>:          516 b            1 skpd (  0.2%)    0.001 s ( 0.002 ms/b)
<sp|fg>:          258 b            1 skpd (  0.4%)    0.001 s ( 0.005 ms/b)
<sp|gg>:           86 b            0 skpd (  0.0%)    0.002 s ( 0.019 ms/b)
<sd|sd>:         2211 b          103 skpd (  4.7%)    0.001 s ( 0.001 ms/b)
<sd|sf>:         2112 b          101 skpd (  4.8%)    0.001 s ( 0.000 ms/b)
<sd|sg>:          726 b           94 skpd ( 12.9%)    0.001 s ( 0.002 ms/b)
<sd|pp>:         2376 b           38 skpd (  1.6%)    0.003 s ( 0.001 ms/b)
<sd|pd>:         3168 b           69 skpd (  2.2%)    0.003 s ( 0.001 ms/b)
<sd|pf>:         1584 b           49 skpd (  3.1%)    0.001 s ( 0.001 ms/b)
<sd|pg>:          528 b           16 skpd (  3.0%)    0.002 s ( 0.004 ms/b)
<sd|dd>:         1386 b           26 skpd (  1.9%)    0.004 s ( 0.003 ms/b)
<sd|df>:         1188 b           33 skpd (  2.8%)    0.002 s ( 0.002 ms/b)
<sd|dg>:          396 b           11 skpd (  2.8%)    0.003 s ( 0.008 ms/b)
<sd|ff>:          396 b           14 skpd (  3.5%)    0.001 s ( 0.004 ms/b)
<sd|fg>:          198 b            6 skpd (  3.0%)    0.002 s ( 0.010 ms/b)
<sd|gg>:           66 b            2 skpd (  3.0%)    0.003 s ( 0.040 ms/b)
<sf|sf>:          528 b           28 skpd (  5.3%)    0.000 s ( 0.001 ms/b)
<sf|sg>:          352 b           46 skpd ( 13.1%)    0.001 s ( 0.003 ms/b)
<sf|pp>:         1152 b           17 skpd (  1.5%)    0.002 s ( 0.002 ms/b)
<sf|pd>:         1536 b           49 skpd (  3.2%)    0.003 s ( 0.002 ms/b)
<sf|pf>:          768 b           23 skpd (  3.0%)    0.001 s ( 0.001 ms/b)
<sf|pg>:          256 b            8 skpd (  3.1%)    0.002 s ( 0.007 ms/b)
<sf|dd>:          672 b           15 skpd (  2.2%)    0.003 s ( 0.004 ms/b)
<sf|df>:          576 b           20 skpd (  3.5%)    0.002 s ( 0.003 ms/b)
<sf|dg>:          192 b            6 skpd (  3.1%)    0.002 s ( 0.012 ms/b)
<sf|ff>:          192 b            6 skpd (  3.1%)    0.001 s ( 0.006 ms/b)
<sf|fg>:           96 b            3 skpd (  3.1%)    0.002 s ( 0.017 ms/b)
<sf|gg>:           32 b            1 skpd (  3.1%)    0.002 s ( 0.067 ms/b)
<sg|sg>:           66 b           13 skpd ( 19.7%)    0.000 s ( 0.004 ms/b)
<sg|pp>:          396 b           27 skpd (  6.8%)    0.001 s ( 0.003 ms/b)
<sg|pd>:          528 b           52 skpd (  9.8%)    0.001 s ( 0.003 ms/b)
<sg|pf>:          264 b           26 skpd (  9.8%)    0.001 s ( 0.002 ms/b)
<sg|pg>:           88 b            8 skpd (  9.1%)    0.001 s ( 0.014 ms/b)
<sg|dd>:          231 b           19 skpd (  8.2%)    0.002 s ( 0.008 ms/b)
<sg|df>:          198 b           19 skpd (  9.6%)    0.001 s ( 0.005 ms/b)
<sg|dg>:           66 b            7 skpd ( 10.6%)    0.001 s ( 0.024 ms/b)
<sg|ff>:           66 b            7 skpd ( 10.6%)    0.001 s ( 0.009 ms/b)
<sg|fg>:           33 b            4 skpd ( 12.1%)    0.001 s ( 0.030 ms/b)
<sg|gg>:           11 b            1 skpd (  9.1%)    0.001 s ( 0.119 ms/b)
<pp|pp>:          666 b            0 skpd (  0.0%)    0.002 s ( 0.003 ms/b)
<pp|pd>:         1728 b            1 skpd (  0.1%)    0.003 s ( 0.002 ms/b)
<pp|pf>:          864 b            0 skpd (  0.0%)    0.001 s ( 0.001 ms/b)
<pp|pg>:          288 b            0 skpd (  0.0%)    0.002 s ( 0.006 ms/b)
<pp|dd>:          756 b            0 skpd (  0.0%)    0.003 s ( 0.004 ms/b)
<pp|df>:          648 b            0 skpd (  0.0%)    0.002 s ( 0.002 ms/b)
<pp|dg>:          216 b            0 skpd (  0.0%)    0.002 s ( 0.011 ms/b)
<pp|ff>:          216 b            0 skpd (  0.0%)    0.001 s ( 0.006 ms/b)
<pp|fg>:          108 b            0 skpd (  0.0%)    0.002 s ( 0.015 ms/b)
<pp|gg>:           36 b            0 skpd (  0.0%)    0.002 s ( 0.061 ms/b)
<pd|pd>:         1176 b            1 skpd (  0.1%)    0.005 s ( 0.004 ms/b)
<pd|pf>:         1152 b            1 skpd (  0.1%)    0.002 s ( 0.002 ms/b)
<pd|pg>:          384 b            0 skpd (  0.0%)    0.004 s ( 0.011 ms/b)
<pd|dd>:         1008 b            1 skpd (  0.1%)    0.006 s ( 0.006 ms/b)
<pd|df>:          864 b            1 skpd (  0.1%)    0.004 s ( 0.004 ms/b)
<pd|dg>:          288 b            2 skpd (  0.7%)    0.005 s ( 0.019 ms/b)
<pd|ff>:          288 b            1 skpd (  0.3%)    0.003 s ( 0.009 ms/b)
<pd|fg>:          144 b            0 skpd (  0.0%)    0.004 s ( 0.027 ms/b)
<pd|gg>:           48 b            0 skpd (  0.0%)    0.005 s ( 0.110 ms/b)
<pf|pf>:          300 b            0 skpd (  0.0%)    0.001 s ( 0.004 ms/b)
<pf|pg>:          192 b            0 skpd (  0.0%)    0.003 s ( 0.015 ms/b)
<pf|dd>:          504 b            0 skpd (  0.0%)    0.004 s ( 0.008 ms/b)
<pf|df>:          432 b            0 skpd (  0.0%)    0.003 s ( 0.006 ms/b)
<pf|dg>:          144 b            0 skpd (  0.0%)    0.004 s ( 0.027 ms/b)
<pf|ff>:          144 b            0 skpd (  0.0%)    0.002 s ( 0.016 ms/b)
<pf|fg>:           72 b            0 skpd (  0.0%)    0.003 s ( 0.041 ms/b)
<pf|gg>:           24 b            0 skpd (  0.0%)    0.004 s ( 0.161 ms/b)
<pg|pg>:           36 b            0 skpd (  0.0%)    0.001 s ( 0.031 ms/b)
<pg|dd>:          168 b            0 skpd (  0.0%)    0.003 s ( 0.016 ms/b)
<pg|df>:          144 b            0 skpd (  0.0%)    0.002 s ( 0.011 ms/b)
<pg|dg>:           48 b            0 skpd (  0.0%)    0.003 s ( 0.053 ms/b)
<pg|ff>:           48 b            0 skpd (  0.0%)    0.001 s ( 0.021 ms/b)
<pg|fg>:           24 b            0 skpd (  0.0%)    0.002 s ( 0.075 ms/b)
<pg|gg>:            8 b            0 skpd (  0.0%)    0.002 s ( 0.274 ms/b)
<dd|dd>:          231 b            0 skpd (  0.0%)    0.004 s ( 0.017 ms/b)
<dd|df>:          378 b            0 skpd (  0.0%)    0.003 s ( 0.007 ms/b)
<dd|dg>:          126 b            0 skpd (  0.0%)    0.004 s ( 0.031 ms/b)
<dd|ff>:          126 b            0 skpd (  0.0%)    0.002 s ( 0.016 ms/b)
<dd|fg>:           63 b            0 skpd (  0.0%)    0.003 s ( 0.046 ms/b)
<dd|gg>:           21 b            0 skpd (  0.0%)    0.004 s ( 0.191 ms/b)
<df|df>:          171 b            1 skpd (  0.6%)    0.003 s ( 0.017 ms/b)
<df|dg>:          108 b            1 skpd (  0.9%)    0.004 s ( 0.041 ms/b)
<df|ff>:          108 b            0 skpd (  0.0%)    0.003 s ( 0.027 ms/b)
<df|fg>:           54 b            0 skpd (  0.0%)    0.004 s ( 0.069 ms/b)
<df|gg>:           18 b            0 skpd (  0.0%)    0.005 s ( 0.276 ms/b)
<dg|dg>:           21 b            0 skpd (  0.0%)    0.003 s ( 0.121 ms/b)
<dg|ff>:           36 b            0 skpd (  0.0%)    0.001 s ( 0.035 ms/b)
<dg|fg>:           18 b            0 skpd (  0.0%)    0.002 s ( 0.119 ms/b)
<dg|gg>:            6 b            0 skpd (  0.0%)    0.003 s ( 0.431 ms/b)
<ff|ff>:           21 b            0 skpd (  0.0%)    0.001 s ( 0.053 ms/b)
<ff|fg>:           18 b            0 skpd (  0.0%)    0.002 s ( 0.111 ms/b)
<ff|gg>:            6 b            0 skpd (  0.0%)    0.003 s ( 0.499 ms/b)
<fg|fg>:            6 b            0 skpd (  0.0%)    0.001 s ( 0.243 ms/b)
<fg|gg>:            3 b            0 skpd (  0.0%)    0.002 s ( 0.688 ms/b)
<gg|gg>:            1 b            0 skpd (  0.0%)    0.001 s ( 1.168 ms/b)
Recanonicalizing the internal orbitals
Recanonicalizing the virtual orbitals
Time needed for Fock operator              ...            0.304 sec
Reference energy                           ...  -1713.674834846
Warning: for UHF the TrafoType has to be JK
Warning: for UHF the K(C)-option cannot be MO but must be AOX

-------------------------------
PARTIAL EXCHANGE TRANSFORMATION
-------------------------------

Transformation type                        ... two-operators
Generation of integrals (i,mue|j,nue)      ... ON
Generation of integrals (mue,kappa|nue,tau)... ON
Generation of integrals (i,mue|a,nue)      ... ON
Dimension of the basis                     ...   95
Number of internal alpha-MOs               ...   13 (   6-  18)
Number of internal beta-MOs                ...   12 (   6-  17)
Number of external alpha-MOs               ...   76 (  19-  94)
Number of external beta-MOs                ...   77 (  18-  94)
Pair cutoff                                ... 0.000e+00 Eh
Number of AO pairs in the trafo            ... 4560
Total Number of distinct AO pairs          ... 4560
Memory devoted for trafo                   ... 2500.0 MB 
Max. Number of MO pairs treated together   ... 36308      
Number Format for Storage                  ... Double (8 Byte)
Integral package used                      ... LIBINT

Starting integral evaluation:
    ... done with AO integral generation
Closing buffer AOK[aa] ( 0.00 GB; CompressionRatio= 0.99)
Closing buffer AOK[bb] ( 0.00 GB; CompressionRatio= 0.99)
Closing buffer AOK[ab] ( 0.00 GB; CompressionRatio= 0.99)
Closing buffer AOK[ba] ( 0.00 GB; CompressionRatio= 0.99)
Collecting buffer AOK 
Closing buffer IAAO1[aa] ( 0.00 GB; CompressionRatio= 1.00)
Closing buffer IAAO1[bb] ( 0.00 GB; CompressionRatio= 1.00)
Closing buffer IAAO1[ab] ( 0.00 GB; CompressionRatio= 1.00)
Closing buffer IAAO1[ba] ( 0.00 GB; CompressionRatio= 1.00)
Closing buffer IAAO2[aa] ( 0.00 GB; CompressionRatio= 1.00)
Closing buffer IAAO2[bb] ( 0.00 GB; CompressionRatio= 1.00)
Closing buffer IAAO2[ab] ( 0.00 GB; CompressionRatio= 1.00)
Closing buffer IAAO2[ba] ( 0.00 GB; CompressionRatio= 1.00)
Collecting buffer IAAO 
Closing buffer PRQS    ( 0.00 GB; CompressionRatio= 1.00)
Collecting buffer PRQS 
Number of alpha/alpha MO pairs in trafo    ...   91
Number of beta /beta  MO pairs in trafo    ...   78
Number of alpha/ beta MO pairs in trafo    ...  156
------------------------
SORTING OF (i,mue|j,nue)
------------------------

SORTING OF ALPHA/ALPHA PAIRS
IBATCH = 1 of  1
Closing buffer KAO[aa] ( 0.00 GB; CompressionRatio= 1.00)
Collecting buffer KAO 
SORTING OF BETA /BETA  PAIRS
IBATCH = 1 of  1
Closing buffer KAO[bb] ( 0.00 GB; CompressionRatio= 1.00)
Collecting buffer KAO 
SORTING OF ALPHA/BETA  PAIRS
IBATCH = 1 of  1
Closing buffer KAO[ab] ( 0.00 GB; CompressionRatio= 0.999833822633)
Collecting buffer KAO[ab] 
------------------------
SORTING OF (i,mue|a,nue)
------------------------

Number of alpha/alpha (i,a) pairs in trafo  ...  988
Number of beta /beta  (i,a) pairs in trafo  ...  924
Number of alpha/ beta (i,a) pairs in trafo  ... 1001
Number of beta /alpha (i,a) pairs in trafo  ...  912
Setting up the alpha/alpha list             ... done
Setting up the beta /beta  list             ... done
Setting up the alpha/beta  list             ... done
Setting up the beta /alpha list             ... done
    ... Now sorting (i,mue|a,nue)integrals
    ... Integrals (i,b|a,c) will be made on the fly
SORTING OF ALPHA/ALPHA PAIRS
IBATCH = 1 of  1
Closing buffer IPAQ[aa]  0.00 GB; CompressionRatio= 1.00)
SORTING OF BETA /BETA  PAIRS
IBATCH = 1 of  1
Closing buffer IPAQ[bb]( 0.00 GB; CompressionRatio= 1.00)
SORTING OF ALPHA/BETA  PAIRS (NMatSort_ab=42)
IBATCH = 1 of  1
Closing buffer IPAQ[ab]( 0.00 GB; CompressionRatio= 1.00)
SORTING OF BETA/ALPHA  PAIRS
IBATCH = 1 of  1
Closing buffer IPAQ[ba]( 0.00 GB; CompressionRatio= 1.00)
N(AO-Batches) Done                         ...      4930 
N(AO-Batches) Skipped                      ...         0 
N(IJ)-pairs Skipped                        ...         0 
TOTAL TIME for half transformation         ...     1.212 sec
AO-integral generation                     ...     0.022 sec
Half transformation                        ...     0.005 sec
K-integral sorting                         ...     0.735 sec
<ss|**>: 
------------------------------
PARTIAL COULOMB TRANSFORMATION
------------------------------

Transformation type                        ... two-operators
Dimension of the basis                     ...   95
Number of internal alpha-MOs               ...   13 (6-18)
Number of internal beta-MOs                ...   12 (6-17)
Pair cutoff                                ... 0.000e+00 Eh
Number of AO pairs included in the trafo   ... 4560
Total Number of distinct AO pairs          ... 4560
Memory devoted for trafo                   ... 2500.0 MB 
Max. Number of MO pairs treated together   ... 71859      
Max. Number of MOs treated per batch       ...  756      
Number Format for Storage                  ... Double (8 Byte)
AO-integral source                         ... DIRECT
Integral package used                      ... LIBINT

Starting integral evaluation:
       26536 b        0 skpd     0.007 s (  0.000 ms/b)
<sp|**>: <sd|**>:        36808 b        0 skpd     0.017 s (  0.000 ms/b)
       28248 b        0 skpd     0.020 s (  0.001 ms/b)
<sf|**>:        13696 b        0 skpd     0.011 s (  0.001 ms/b)
<sg|**>:         4708 b        0 skpd     0.017 s (  0.004 ms/b)
<pp|**>:        15408 b        0 skpd     0.026 s (  0.002 ms/b)
<pd|**>:        20544 b        0 skpd     0.038 s (  0.002 ms/b)
<pf|**>:        10272 b        0 skpd     0.018 s (  0.002 ms/b)
<pg|**>:         3424 b        0 skpd     0.028 s (  0.008 ms/b)
<dd|**>:         8988 b        0 skpd     0.041 s (  0.005 ms/b)
<df|**>:         7704 b        0 skpd     0.023 s (  0.003 ms/b)
<dg|**>:         2568 b        0 skpd     0.034 s (  0.013 ms/b)
<ff|**>:         2568 b        0 skpd     0.015 s (  0.006 ms/b)
<fg|**>:         1284 b        0 skpd     0.022 s (  0.017 ms/b)
<gg|**>:          428 b        0 skpd     0.032 s (  0.075 ms/b)
Closing buffer AOJ[aa] ( 0.00 GB; CompressionRatio= 0.98)
Closing buffer AOJ[bb] ( 0.00 GB; CompressionRatio= 0.00)
Collecting buffer AOJ 
    ... done with AO integral generation
Number of Alpha-MO pairs included          ...   91
Number of Beta-MO pairs included           ...   78
    ... Now sorting integrals
SORTING ALPHA/ALPHA PAIRS
IBATCH = 1 of  1
Closing buffer JAO[aa] ( 0.00 GB; CompressionRatio= 1.00)
SORTING BETA/BETA PAIRS
IBATCH = 1 of  1
Closing buffer JAO[bb] ( 0.00 GB; CompressionRatio= 1.00)
Collecting buffer JAO 
TOTAL TIME for half transformation         ...     0.377 sec
AO-integral generation                     ...     0.346 sec
Half transformation                        ...     0.009 sec
J-integral sorting                         ...     0.014 sec

-------------------------- SECOND HALF TRANSFORMATION -------------------------
Formation of (ij|kl),(ij|ka), (ij|ab)      ... ok (     0.055 sec)
Formation of (ik|jl),(ik|ja), (ia|jb)      ... ok (     0.098 sec)


-----------------------
SPIN UNRESTRICTED GUESS
-----------------------

Entering MDCI_UHF_Guess, Tailored=0
Spin-components of the MP2 energy:
EMP2(aa)=     -0.173101200
EMP2(bb)=     -0.156163718
EMP2(ab)=     -0.704748176

Initial guess performed in     0.046 sec
E(0)                                       ...  -1713.674834846
E(MP2)                                     ...     -1.034013094
Initial E(tot)                             ...  -1714.708847940
<T|T>                                      ...      0.214249382
Number of pairs included                   ... 300

------------------------------------------------
                  UHF COUPLED CLUSTER ITERATIONS
------------------------------------------------

Number of amplitudes to be optimized       ...      1334756

Iter       E(tot)           E(Corr)          Delta-E          Residual     Time      <S|S>**1/2
  0  -1714.708847940     -1.034013094      0.000000000      0.047433623    1.02      0.000000093
                           *** Turning on DIIS ***
  1  -1714.572466893     -0.897632047      0.136381047      0.017983027    1.08      0.124589770
  2  -1714.619908262     -0.945073416     -0.047441369      0.022581674    1.16      0.121549195
  3  -1714.624106884     -0.949272038     -0.004198622      0.018650682    1.16      0.167553489
  4  -1714.630455338     -0.955620492     -0.006348454      0.017703688    1.18      0.208807226
  5  -1714.637428223     -0.962593377     -0.006972885      0.014700307    1.20      0.273737082
  6  -1714.648374815     -0.973539969     -0.010946592      0.009033909    1.18      0.388326761
  7  -1714.655328778     -0.980493932     -0.006953963      0.003879366    1.22      0.472036417
  8  -1714.658506841     -0.983671995     -0.003178063      0.002475066    1.23      0.501033131
  9  -1714.659643127     -0.984808281     -0.001136287      0.002509160    1.18      0.511686729
 10  -1714.659781214     -0.984946368     -0.000138087      0.001773147    1.19      0.510832020
 11  -1714.660296292     -0.985461446     -0.000515078      0.001422801    1.17      0.513115944
 12  -1714.660663253     -0.985828407     -0.000366960      0.000928492    1.17      0.514942747
 13  -1714.660778997     -0.985944151     -0.000115744      0.000452473    1.18      0.514365530
 14  -1714.660848562     -0.986013716     -0.000069565      0.000364641    1.16      0.514011910
 15  -1714.660824150     -0.985989304      0.000024412      0.000250545    1.19      0.513560240
 16  -1714.660860428     -0.986025582     -0.000036278      0.000167242    1.17      0.513118644
 17  -1714.660847867     -0.986013021      0.000012562      0.000085706    1.21      0.512893244
 18  -1714.660854529     -0.986019683     -0.000006662      0.000040262    1.21      0.512799620
 19  -1714.660853377     -0.986018531      0.000001152      0.000018165    1.19      0.512788833
 20  -1714.660855067     -0.986020221     -0.000001690      0.000008490    1.20      0.512808277
 21  -1714.660857668     -0.986022822     -0.000002601      0.000004581    1.21      0.512836163
 22  -1714.660859474     -0.986024628     -0.000001806      0.000003244    1.19      0.512850417
 23  -1714.660859411     -0.986024565      0.000000063      0.000001739    1.16      0.512857129
 24  -1714.660859947     -0.986025101     -0.000000536      0.000001510    1.15      0.512861096
 25  -1714.660859842     -0.986024996      0.000000105      0.000000728    1.18      0.512864231
               --- The Coupled-Cluster iterations have converged ---

----------------------
COUPLED CLUSTER ENERGY
----------------------

E(0)                                       ...  -1713.674834846
E(CORR)                                    ...     -0.986024996
E(TOT)                                     ...  -1714.660859842
[...]
 19  -1714.751367964     -1.026674377      0.000001634      0.000019152    5.81      0.505123668
 20  -1714.751369061     -1.026675473     -0.000001097      0.000012108    5.88      0.505115738
 21  -1714.751367373     -1.026673786      0.000001687      0.000006558    5.90      0.505112762
 22  -1714.751366866     -1.026673279      0.000000507      0.000003350    5.86      0.505105815
 23  -1714.751365166     -1.026671579      0.000001699      0.000002541    5.83      0.505100830
 24  -1714.751364546     -1.026670958      0.000000621      0.000001802    5.83      0.505094718
 25  -1714.751363507     -1.026669920      0.000001039      0.000001350    5.77      0.505087767
 26  -1714.751363098     -1.026669511      0.000000408      0.000001025    5.79      0.505083211
 27  -1714.751362493     -1.026668906      0.000000605      0.000000601    5.78      0.505077399
               --- The Coupled-Cluster iterations have converged ---

----------------------
COUPLED CLUSTER ENERGY
----------------------

E(0)                                       ...  -1713.724693587
E(CORR)                                    ...     -1.026668906
E(TOT)                                     ...  -1714.751362493
Singles norm <S|S>**1/2                    ...      0.505077399 ( 0.133895735, 0.371181664)  
T1 diagnostic                              ...      0.101015480                              

------------------
LARGEST AMPLITUDES
------------------
  15b-> 23b  -1b-> -1b       0.459947
  15b-> 21b  -1b-> -1b       0.366771
  15b-> 18b  -1b-> -1b       0.298428
  15b-> 30b  -1b-> -1b       0.287626
  16a-> 19a  -1a-> -1a       0.161254
  15b-> 22b  -1b-> -1b       0.161085
  15b-> 31b  -1b-> -1b       0.123962
  15b-> 40b  -1b-> -1b       0.118810
  11a-> 19a  -1a-> -1a       0.087472
  16a-> 19a  15b-> 23b       0.078996
  16a-> 19a  15b-> 30b       0.072125
  15b-> 32b  -1b-> -1b       0.068350
  15b-> 61b  -1b-> -1b       0.062998
  16a-> 19a  15b-> 22b       0.062524
  16a-> 22a  -1a-> -1a       0.059329
  16a-> 19a  15b-> 21b       0.052802

----------------------
UHF TRIPLES CORRECTION (Algorithm 1)
----------------------

Multiplier for the singles contribution    ...      1.000000000

SPIN-CASE Alpha-Alpha-Alpha:
10% done
20% done
30% done
40% done
50% done
60% done
70% done
80% done
90% done


SPIN-CASE Beta-Beta-Beta:
10% done
20% done
30% done
40% done
50% done
60% done
70% done
80% done
90% done


SPIN-CASE Alpha-Alpha-Beta:
10% done
20% done
30% done
40% done
50% done
60% done
70% done
80% done
90% done


SPIN-CASE Beta-Beta-Alpha:
10% done
20% done
30% done
40% done
50% done
60% done
70% done
80% done
90% done


Triples Correction (T)                     ...     -0.046043021
    alpha-alpha-alpha ... -0.000960061 (  2.1%)
    alpha-alpha-beta  ... -0.022677012 ( 49.3%)
    alpha-beta -beta  ... -0.021622627 ( 47.0%)
    beta -beta -beta  ... -0.000783321 (  1.7%)
Scaling of triples based on CCSD energies (Peterson et al. Molecular Physics 113, 1551 (2015))
E(T*) = f*E(T) where f = E(F12-CCSD)/E(CCSD) 
f = CCSD (with F12)/ CCSD (without F12)    ...      1.000000000
Scaled triples correction (T)              ...     -0.046043021

Final correlation energy                   ...     -1.072711927
E(CCSD)                                    ...  -1714.751362493
E(CCSD(T))                                 ...  -1714.797405514



        !!!!!!!!!!!!!!!!!!!!!!!!!!!!!!!!!!!!!!!!!!!!!!!!!!!!!!!!!!!!!!!!!!!!!!!!!! 
        !  Warning: Densities are linearized densities                           !
        !!!!!!!!!!!!!!!!!!!!!!!!!!!!!!!!!!!!!!!!!!!!!!!!!!!!!!!!!!!!!!!!!!!!!!!!!! 

NORM  =      1.919118074 sqrt=     1.385322372
W(HF) =      0.521072681
------------------------------------------------------------------------------
                           ORCA POPULATION ANALYSIS
------------------------------------------------------------------------------
Input electron density              ... 53_CuO.mdcip
Input spin density                  ... 53_CuO.mdcir
BaseName (.gbw .S,...)              ... 53_CuO

                    ********************************
                    * MULLIKEN POPULATION ANALYSIS *
                    ********************************

------------------------------------------
MULLIKEN ATOMIC CHARGES AND SPIN DENSITIES
------------------------------------------
   0 Cu:    0.356096    0.418705
   1 O :   -0.356096    0.581295
Sum of atomic charges       :   -0.0000000
Sum of atomic spin densities:    1.0000000

---------------------------------------------------
MULLIKEN REDUCED ORBITAL CHARGES AND SPIN DENSITIES
---------------------------------------------------
CHARGE
  0 Cus       :     6.250208  s :     6.250208
      pz      :     4.042151  p :    12.374061
      px      :     4.165955
      py      :     4.165955
      dz2     :     1.983130  d :     9.956819
      dxz     :     1.996208
      dyz     :     1.996208
      dx2y2   :     1.990637
      dxy     :     1.990637
      f0      :     0.008579  f :     0.057883
      f+1     :     0.013557
      f-1     :     0.013557
      f+2     :     0.005728
      f-2     :     0.005728
      f+3     :     0.005367
      f-3     :     0.005367
      g0      :     0.000609  g :     0.004934
      g+1     :     0.000581
      g-1     :     0.000581
      g+2     :     0.000534
      g-2     :     0.000534
      g+3     :     0.000522
      g-3     :     0.000522
      g+4     :     0.000526
      g-4     :     0.000526
  1 O s       :     3.925327  s :     3.925327
      pz      :     0.771654  p :     4.373769
      px      :     1.801057
      py      :     1.801057
      dz2     :     0.011798  d :     0.049032
      dxz     :     0.011676
      dyz     :     0.011676
      dx2y2   :     0.006941
      dxy     :     0.006941
      f0      :     0.002092  f :     0.007383
      f+1     :     0.001337
      f-1     :     0.001337
      f+2     :     0.000731
      f-2     :     0.000731
      f+3     :     0.000578
      f-3     :     0.000578
      g0      :     0.000111  g :     0.000585
      g+1     :     0.000077
      g-1     :     0.000077
      g+2     :     0.000052
      g-2     :     0.000052
      g+3     :     0.000051
      g-3     :     0.000051
      g+4     :     0.000058
      g-4     :     0.000058

SPIN
  0 Cus       :     0.539153  s :     0.539153
      pz      :     0.016294  p :     0.045803
      px      :     0.014755
      py      :     0.014755
      dz2     :    -0.170379  d :    -0.165136
      dxz     :     0.001919
      dyz     :     0.001919
      dx2y2   :     0.000702
      dxy     :     0.000702
      f0      :    -0.000505  f :    -0.001152
      f+1     :    -0.000309
      f-1     :    -0.000309
      f+2     :    -0.000053
      f-2     :    -0.000053
      f+3     :     0.000038
      f-3     :     0.000038
      g0      :    -0.000011  g :     0.000037
      g+1     :    -0.000003
      g-1     :    -0.000003
      g+2     :     0.000002
      g-2     :     0.000002
      g+3     :     0.000001
      g-3     :     0.000001
      g+4     :     0.000023
      g-4     :     0.000023
  1 O s       :     0.005125  s :     0.005125
      pz      :     0.599427  p :     0.573733
      px      :    -0.012847
      py      :    -0.012847
      dz2     :     0.000786  d :     0.002188
      dxz     :     0.000787
      dyz     :     0.000787
      dx2y2   :    -0.000086
      dxy     :    -0.000086
      f0      :    -0.000161  f :     0.000251
      f+1     :     0.000150
      f-1     :     0.000150
      f+2     :     0.000062
      f-2     :     0.000062
      f+3     :    -0.000005
      f-3     :    -0.000005
      g0      :    -0.000007  g :    -0.000002
      g+1     :     0.000002
      g-1     :     0.000002
      g+2     :     0.000001
      g-2     :     0.000001
      g+3     :     0.000000
      g-3     :     0.000000
      g+4     :    -0.000000
      g-4     :    -0.000000


                     *******************************
                     * LOEWDIN POPULATION ANALYSIS *
                     *******************************

-----------------------------------------
LOEWDIN ATOMIC CHARGES AND SPIN DENSITIES
-----------------------------------------
   0 Cu:   -0.202888    0.352205
   1 O :    0.202888    0.647795

--------------------------------------------------
LOEWDIN REDUCED ORBITAL CHARGES AND SPIN DENSITIES
--------------------------------------------------
CHARGE
  0 Cus       :     6.263860  s :     6.263860
      pz      :     4.179986  p :    12.566455
      px      :     4.193235
      py      :     4.193235
      dz2     :     2.106830  d :    10.153370
      dxz     :     2.033362
      dyz     :     2.033362
      dx2y2   :     1.989908
      dxy     :     1.989908
      f0      :     0.077835  f :     0.213971
      f+1     :     0.056861
      f-1     :     0.056861
      f+2     :     0.005841
      f-2     :     0.005841
      f+3     :     0.005367
      f-3     :     0.005367
      g0      :     0.000769  g :     0.005231
      g+1     :     0.000649
      g-1     :     0.000649
      g+2     :     0.000534
      g-2     :     0.000534
      g+3     :     0.000522
      g-3     :     0.000522
      g+4     :     0.000526
      g-4     :     0.000526
  1 O s       :     3.527812  s :     3.527812
      pz      :     0.798810  p :     4.166880
      px      :     1.684035
      py      :     1.684035
      dz2     :     0.031632  d :     0.082953
      dxz     :     0.018366
      dyz     :     0.018366
      dx2y2   :     0.007294
      dxy     :     0.007294
      f0      :     0.007847  f :     0.018517
      f+1     :     0.003775
      f-1     :     0.003775
      f+2     :     0.000981
      f-2     :     0.000981
      f+3     :     0.000578
      f-3     :     0.000578
      g0      :     0.000279  g :     0.000951
      g+1     :     0.000164
      g-1     :     0.000164
      g+2     :     0.000063
      g-2     :     0.000063
      g+3     :     0.000051
      g-3     :     0.000051
      g+4     :     0.000058
      g-4     :     0.000058

SPIN
  0 Cus       :     0.450938  s :     0.450938
      pz      :     0.024265  p :     0.049069
      px      :     0.012402
      py      :     0.012402
      dz2     :    -0.147169  d :    -0.146717
      dxz     :    -0.000448
      dyz     :    -0.000448
      dx2y2   :     0.000674
      dxy     :     0.000674
      f0      :     0.001363  f :    -0.001152
      f+1     :    -0.001241
      f-1     :    -0.001241
      f+2     :    -0.000054
      f-2     :    -0.000054
      f+3     :     0.000038
      f-3     :     0.000038
      g0      :     0.000018  g :     0.000067
      g+1     :    -0.000002
      g-1     :    -0.000002
      g+2     :     0.000003
      g-2     :     0.000003
      g+3     :     0.000001
      g-3     :     0.000001
      g+4     :     0.000023
      g-4     :     0.000023
  1 O s       :     0.013199  s :     0.013199
      pz      :     0.648625  p :     0.633951
      px      :    -0.007337
      py      :    -0.007337
      dz2     :    -0.001050  d :     0.000774
      dxz     :     0.000975
      dyz     :     0.000975
      dx2y2   :    -0.000063
      dxy     :    -0.000063
      f0      :    -0.000457  f :    -0.000123
      f+1     :     0.000103
      f-1     :     0.000103
      f+2     :     0.000069
      f-2     :     0.000069
      f+3     :    -0.000005
      f-3     :    -0.000005
      g0      :    -0.000011  g :    -0.000006
      g+1     :     0.000001
      g-1     :     0.000001
      g+2     :     0.000001
      g-2     :     0.000001
      g+3     :     0.000000
      g-3     :     0.000000
      g+4     :    -0.000000
      g-4     :    -0.000000


                      *****************************
                      * MAYER POPULATION ANALYSIS *
                      *****************************

  NA   - Mulliken gross atomic population
  ZA   - Total nuclear charge
  QA   - Mulliken gross atomic charge
  VA   - Mayer's total valence
  BVA  - Mayer's bonded valence
  FA   - Mayer's free valence

  ATOM       NA         ZA         QA         VA         BVA        FA
  0 Cu    28.6439    29.0000     0.3561     1.7000     1.4616     0.2383
  1 O      8.3561     8.0000    -0.3561     2.1038     1.4616     0.6422

  Mayer bond orders larger than 0.100000
B(  0-Cu,  1-O ) :   1.4616 



------------------------------------------------------------------------------- 
                                     TIMINGS                                   
------------------------------------------------------------------------------- 


Total execution time                   ...      199.072 sec

Fock Matrix Formation                  ...        1.087 sec (  0.5%)
Initial Guess                          ...        0.133 sec (  0.1%)
DIIS Solver                            ...       12.062 sec (  6.1%)
State Vector Update                    ...        0.520 sec (  0.3%)
Sigma-vector construction              ...      149.189 sec ( 74.9%)
  <0|H|D>                              ...        0.026 sec (  0.0% of sigma)
  <D|H|D>(0-ext Fock)                  ...        0.265 sec (  0.2% of sigma)
  <D|H|D>(0-ext)                       ...        1.430 sec (  1.0% of sigma)
  <D|H|D>(2-ext Fock)                  ...        0.075 sec (  0.1% of sigma)
  <D|H|D>(2-ext)                       ...        4.786 sec (  3.2% of sigma)
  <D|H|D>(4-ext)                       ...       71.811 sec ( 48.1% of sigma)
  <S|H|0>                              ...       15.641 sec ( 10.5% of sigma)
  <S|H|S>                              ...        0.009 sec (  0.0% of sigma)
  <S|H|D>(1-ext)                       ...        0.055 sec (  0.0% of sigma)
  <D|H|S>(1-ext)                       ...        0.825 sec (  0.6% of sigma)
  Fock-dressing                        ...       23.595 sec ( 15.8% of sigma)
  (ik|jl)-dressing                     ...        1.669 sec (  1.1% of sigma)
  (ij|ab),(ia|jb)-dressing             ...       23.943 sec ( 16.0% of sigma)
  Pair energies                        ...        0.048 sec (  0.0% of sigma)
Total Time for computing (T)           ...       25.171 sec ( 12.6% of ALL)
  I/O of integral and amplitudes       ...        4.327 sec ( 17.2% of (T))
  External N**7 contributions          ...        9.092 sec ( 36.1% of (T))
  Internal N**7 contributions          ...        3.097 sec ( 12.3% of (T))
  N**6 triples energy contributions    ...        8.491 sec ( 33.7% of (T))


-------------------
EXTRAPOLATED ENERGY
-------------------


-----------------------------------------------------------------
                      EP1 - MDCI extrapolation:
-----------------------------------------------------------------
NOTE: We use as reference SCF energy, for the extrapolation, the one from the MDCI module and not the one 
from the SCF calculation. In case the first step is a DFT calculation these two might be different.

NOTE: For the SCF part we extrapolate based on the scheme proposed in J. Chem. Phys. 2008, 129, 184116
using the exponents from J. Chem. Theory Comput., 7, 33-43 (2011)

NOTE: For the correlation part we extrapolate based on the scheme proposed in J. Chem. Phys. 1997, 106, 9639
using the exponents from J. Chem. Theory Comput., 7, 33-43 (2011)


Alpha(3/4)     :  7.880 (SCF Extrapolation)
Beta(3/4)      :  2.970 (correlation extrapolation)

SCF energy with basis def2-TZVPP:                     -1713.674834846
SCF energy with basis def2-QZVPP:                     -1713.724693587
Extrapolated CBS SCF energy (3/4) :                   -1713.731561065 (-0.006867478) 

MDCI energy with basis def2-TZVPP:                       -1.023827218
MDCI energy with basis def2-QZVPP:                       -1.072711927
Extrapolated CBS correlation energy (3/4) :              -1.108922796 (-0.036210869)

Estimated CBS total energy (3/4) :                    -1714.840483860



-------------------------   --------------------
FINAL SINGLE POINT ENERGY     -1714.840483860474
-------------------------   --------------------


                            ***************************************
                            *     ORCA property calculations      *
                            ***************************************

                                    ---------------------
                                    Active property flags
                                    ---------------------
   (+) Dipole Moment


------------------------------------------------------------------------------
                       ORCA ELECTRIC PROPERTIES CALCULATION
------------------------------------------------------------------------------

Dipole Moment Calculation                       ... on
Quadrupole Moment Calculation                   ... off
Polarizability Calculation                      ... off
GBWName                                         ... 53_CuO.gbw
Electron density file                           ... 53_CuO.scfp
The origin for moment calculation is the CENTER OF MASS  = ( 0.000000,  0.000000  0.916815)

-------------
DIPOLE MOMENT
-------------
                                X             Y             Z
Electronic contribution:     -0.00000      -0.00000      -5.04396
Nuclear contribution   :      0.00000       0.00000       1.81807
                        -----------------------------------------
Total Dipole Moment    :     -0.00000      -0.00000      -3.22589
                        -----------------------------------------
Magnitude (a.u.)       :      3.22589
Magnitude (Debye)      :      8.19957



--------------------
Rotational spectrum 
--------------------
 
Rotational constants in cm-1:     0.000000     0.444492     0.444492 
Rotational constants in MHz :     0.000000 13325.547784 13325.547784 

 Dipole components along the rotational axes: 
x,y,z [a.u.] :    -3.225893    -0.000000    -0.000000 
x,y,z [Debye]:    -8.199568    -0.000000    -0.000000 

 

                           *** MDCI DENSITY ***

------------------------------------------------------------------------------
                       ORCA ELECTRIC PROPERTIES CALCULATION
------------------------------------------------------------------------------

Dipole Moment Calculation                       ... on
Quadrupole Moment Calculation                   ... off
Polarizability Calculation                      ... off
GBWName                                         ... 53_CuO.gbw
Electron density file                           ... 53_CuO.mdcip
The origin for moment calculation is the CENTER OF MASS  = ( 0.000000,  0.000000  0.916815)

-------------
DIPOLE MOMENT
-------------
                                X             Y             Z
Electronic contribution:      0.00000       0.00000      -3.12715
Nuclear contribution   :      0.00000       0.00000       1.81807
                        -----------------------------------------
Total Dipole Moment    :      0.00000       0.00000      -1.30908
                        -----------------------------------------
Magnitude (a.u.)       :      1.30908
Magnitude (Debye)      :      3.32743



--------------------
Rotational spectrum 
--------------------
 
Rotational constants in cm-1:     0.000000     0.444492     0.444492 
Rotational constants in MHz :     0.000000 13325.547784 13325.547784 

 Dipole components along the rotational axes: 
x,y,z [a.u.] :    -1.309084     0.000000     0.000000 
x,y,z [Debye]:    -3.327428     0.000000     0.000000 

 

Timings for individual modules:

Sum of individual times         ...      345.860 sec (=   5.764 min)
GTO integral calculation        ...        1.823 sec (=   0.030 min)   0.5 %
SCF iterations                  ...      106.351 sec (=   1.773 min)  30.7 %
MDCI module                     ...      237.685 sec (=   3.961 min)  68.7 %
                             ****ORCA TERMINATED NORMALLY****
TOTAL RUN TIME: 0 days 0 hours 5 minutes 46 seconds 944 msec
