
                                 *****************
                                 * O   R   C   A *
                                 *****************

           --- An Ab Initio, DFT and Semiempirical electronic structure package ---

                  #######################################################
                  #                        -***-                        #
                  #          Department of theory and spectroscopy      #
                  #               Directorship: Frank Neese             #
                  #        Max Planck Institute fuer Kohlenforschung    #
                  #                Kaiser Wilhelm Platz 1               #
                  #                 D-45470 Muelheim/Ruhr               #
                  #                      Germany                        #
                  #                                                     #
                  #                  All rights reserved                #
                  #                        -***-                        #
                  #######################################################


                         Program Version 4.2.0 -  RELEASE  -


 With contributions from (in alphabetic order):
   Daniel Aravena         : Magnetic Suceptibility
   Michael Atanasov       : Ab Initio Ligand Field Theory (pilot matlab implementation)
   Alexander A. Auer      : GIAO ZORA, VPT2
   Ute Becker             : Parallelization
   Giovanni Bistoni       : ED, misc. LED, open-shell LED, HFLED
   Martin Brehm           : Molecular dynamics
   Dmytro Bykov           : SCF Hessian
   Vijay G. Chilkuri      : MRCI spin determinant printing, contributions to CSF-ICE
   Dipayan Datta          : RHF DLPNO-CCSD density
   Achintya Kumar Dutta   : EOM-CC, STEOM-CC
   Dmitry Ganyushin       : Spin-Orbit,Spin-Spin,Magnetic field MRCI
   Miquel Garcia          : C-PCM Hessian, Gaussian charge scheme
   Yang Guo               : DLPNO-NEVPT2, CIM, IAO-localization
   Andreas Hansen         : Spin unrestricted coupled pair/coupled cluster methods
   Benjamin Helmich-Paris : CASSCF linear response (MC-RPA)
   Lee Huntington         : MR-EOM, pCC
   Robert Izsak           : Overlap fitted RIJCOSX, COSX-SCS-MP3, EOM
   Christian Kollmar      : KDIIS, OOCD, Brueckner-CCSD(T), CCSD density
   Simone Kossmann        : Meta GGA functionals, TD-DFT gradient, OOMP2, MP2 Hessian
   Martin Krupicka        : AUTO-CI
   Lucas Lang             : DCDCAS
   Dagmar Lenk            : GEPOL surface, SMD
   Dimitrios Liakos       : Extrapolation schemes; Compound Job, initial MDCI parallelization
   Dimitrios Manganas     : Further ROCIS development; embedding schemes
   Dimitrios Pantazis     : SARC Basis sets
   Taras Petrenko         : DFT Hessian,TD-DFT gradient, ASA, ECA, R-Raman, ABS, FL, XAS/XES, NRVS
   Peter Pinski           : DLPNO-MP2, DLPNO-MP2 Gradient
   Christoph Reimann      : Effective Core Potentials
   Marius Retegan         : Local ZFS, SOC
   Christoph Riplinger    : Optimizer, TS searches, QM/MM, DLPNO-CCSD(T), (RO)-DLPNO pert. Triples
   Tobias Risthaus        : Range-separated hybrids, TD-DFT gradient, RPA, STAB
   Michael Roemelt        : Original ROCIS implementation
   Masaaki Saitow         : Open-shell DLPNO-CCSD energy and density
   Barbara Sandhoefer     : DKH picture change effects
   Avijit Sen             : IP-ROCIS
   Kantharuban Sivalingam : CASSCF convergence, NEVPT2, FIC-MRCI
   Bernardo de Souza      : ESD, SOC TD-DFT
   Georgi Stoychev        : AutoAux, RI-MP2 NMR
   Willem Van den Heuvel  : Paramagnetic NMR
   Boris Wezisla          : Elementary symmetry handling
   Frank Wennmohs         : Technical directorship


 We gratefully acknowledge several colleagues who have allowed us to
 interface, adapt or use parts of their codes:
   Stefan Grimme, W. Hujo, H. Kruse,             : VdW corrections, initial TS optimization,
                  C. Bannwarth                     DFT functionals, gCP, sTDA/sTD-DF
   Ed Valeev, F. Pavosevic, A. Kumar             : LibInt (2-el integral package), F12 methods
   Garnet Chan, S. Sharma, J. Yang, R. Olivares  : DMRG
   Ulf Ekstrom                                   : XCFun DFT Library
   Mihaly Kallay                                 : mrcc  (arbitrary order and MRCC methods)
   Andreas Klamt, Michael Diedenhofen            : otool_cosmo (COSMO solvation model)
   Jiri Pittner, Ondrej Demel                    : Mk-CCSD
   Frank Weinhold                                : gennbo (NPA and NBO analysis)
   Christopher J. Cramer and Donald G. Truhlar   : smd solvation model
   Lars Goerigk                                  : TD-DFT with DH, B97 family of functionals
   V. Asgeirsson, H. Jonsson                     : NEB implementation
   FAccTs GmbH                                   : IRC, NEB, NEB-TS, Multilevel, MM, QM/MM, CI optimization
   S Lehtola, MJT Oliveira, MAL Marques          : LibXC Library


 Your calculation uses the libint2 library for the computation of 2-el integrals
 For citations please refer to: http://libint.valeyev.net

 Your ORCA version has been built with support for libXC version: 4.2.3
 For citations please refer to: https://tddft.org/programs/libxc/

 This ORCA versions uses:
   CBLAS   interface :  Fast vector & matrix operations
   LAPACKE interface :  Fast linear algebra routines
   SCALAPACK package :  Parallel linear algebra routines


----- Orbital basis set information -----
Your calculation utilizes the basis: def2-TZVPP
   F. Weigend and R. Ahlrichs, Phys. Chem. Chem. Phys. 7, 3297 (2005).

================================================================================
                                        WARNINGS
                       Please study these warnings very carefully!
================================================================================


WARNING: your system is open-shell and RHF/RKS was chosen
  ===> : WILL SWITCH to UHF/UKS


WARNING: MDCI localization with Augmented Hessian Foster-Boys
  ===> : Switching off randomization!

WARNING: Post HF methods need fully converged wavefunctions
  ===> : Setting SCFConvForced true
         You can overwrite this default with %scf ConvForced false 


INFO   : the flag for use of LIBINT has been found!

================================================================================
                                       INPUT FILE
================================================================================
NAME = 54_CuS.in
|  1> #
|  2> # 54_CuS ccsd(t)/cbs
|  3> #
|  4> ! ccsd(t) extrapolate(3/4,def2) verytightscf
|  5> 
|  6> *xyz 0 2
|  7>   Cu  0.00000000000000      0.00000000000000     -0.02892798555449
|  8>   S   0.00000000000000      0.00000000000000      2.02892798555449
|  9> *
| 10> 
| 11> %maxcore 5000
| 12> %pal
| 13> nprocs 24
| 14> end
| 15> 
| 16> 
| 17>                          ****END OF INPUT****
================================================================================

                   *****************************************
                   * Extrapolated Single Point Calculation *
                   *****************************************

----- Orbital basis set information -----
Your calculation utilizes the basis: def2-TZVPP
   F. Weigend and R. Ahlrichs, Phys. Chem. Chem. Phys. 7, 3297 (2005).

----- AuxJ basis set information -----
Your calculation utilizes the auxiliary basis: def2/J
   F. Weigend, Phys. Chem. Chem. Phys. 8, 1057 (2006).

----- AuxC basis set information -----
Your calculation utilizes the auxiliary basis: def2-TZVPP/C
  H-La, Hf-Rn : A. Hellweg, C. Hattig, S. Hofener and W. Klopper, Theor. Chem. Acc. 117, 587 (2007).
        Ce-Lu : J. Chmela and M. E. Harding, Mol. Phys. (2018).

----- AuxJK basis set information -----
Your calculation utilizes the auxiliary basis: def2/JK
   H-Ba, Hf-Rn: F. Weigend, J. Comput. Chem. 29, 167 (2008).

All done

                     -----------------------------------------
                     Extrapolated Energy 1 Basis=  def2-TZVPP
                     -----------------------------------------

---------------------------------
CARTESIAN COORDINATES (ANGSTROEM)
---------------------------------
  Cu     0.000000    0.000000   -0.028928
  S      0.000000    0.000000    2.028928

----------------------------
CARTESIAN COORDINATES (A.U.)
----------------------------
  NO LB      ZA    FRAG     MASS         X           Y           Z
   0 Cu   29.0000    0    63.550    0.000000    0.000000   -0.054666
   1 S    16.0000    0    32.060    0.000000    0.000000    3.834118

--------------------------------
INTERNAL COORDINATES (ANGSTROEM)
--------------------------------
 Cu     0   0   0     0.000000000000     0.00000000     0.00000000
 S      1   0   0     2.057855971109     0.00000000     0.00000000

---------------------------
INTERNAL COORDINATES (A.U.)
---------------------------
 Cu     0   0   0     0.000000000000     0.00000000     0.00000000
 S      1   0   0     3.888784208451     0.00000000     0.00000000

---------------------
BASIS SET INFORMATION
---------------------
There are 2 groups of distinct atoms

 Group   1 Type Cu  : 17s12p7d2f1g contracted to 6s5p4d2f1g pattern {842111/63111/4111/11/1}
 Group   2 Type S   : 14s9p3d1f contracted to 5s5p3d1f pattern {73211/51111/111/1}

Atom   0Cu   basis set group =>   1
Atom   1S    basis set group =>   2
---------------------------------
AUXILIARY/J BASIS SET INFORMATION
---------------------------------
There are 2 groups of distinct atoms

 Group   1 Type Cu  : 19s5p5d3f3g contracted to 8s5p4d3f3g pattern {121111111/11111/2111/111/111}
 Group   2 Type S   : 14s5p5d2f1g contracted to 8s4p3d1f1g pattern {71111111/2111/311/2/1}

Atom   0Cu   basis set group =>   1
Atom   1S    basis set group =>   2
---------------------------------
AUXILIARY/C BASIS SET INFORMATION
---------------------------------
There are 2 groups of distinct atoms

 Group   1 Type Cu  : 9s9p8d7f5g3h1i contracted to 9s9p8d7f5g3h1i pattern {111111111/111111111/11111111/1111111/11111/111/1}
 Group   2 Type S   : 11s8p7d5f2g contracted to 11s8p7d5f2g pattern {11111111111/11111111/1111111/11111/11}

Atom   0Cu   basis set group =>   1
Atom   1S    basis set group =>   2
----------------------------------
AUXILIARY/JK BASIS SET INFORMATION
----------------------------------
There are 2 groups of distinct atoms

 Group   1 Type Cu  : 19s14p12d10f7g3h1i contracted to 16s13p11d9f5g3h1i pattern {4111111111111111/2111111111111/21111111111/211111111/31111/111/1}
 Group   2 Type S   : 16s12p10d4f1g contracted to 13s11p9d4f1g pattern {4111111111111/21111111111/211111111/1111/1}

Atom   0Cu   basis set group =>   1
Atom   1S    basis set group =>   2


           ************************************************************
           *        Program running with 24 parallel MPI-processes    *
           *              working on a common directory               *
           ************************************************************
------------------------------------------------------------------------------
                           ORCA GTO INTEGRAL CALCULATION
------------------------------------------------------------------------------

                         BASIS SET STATISTICS AND STARTUP INFO

 # of primitive gaussian shells          ...   66
 # of primitive gaussian functions       ...  174
 # of contracted shells                  ...   32
 # of contracted basis functions         ...  106
 Highest angular momentum                ...    4
 Maximum contraction depth               ...    8
 Integral package used                   ... LIBINT
 Integral threshhold            Thresh   ...  1.000e-12
 Primitive cut-off              TCut     ...  1.000e-14


------------------------------ INTEGRAL EVALUATION ----------------------------


 * One electron integrals 
 Pre-screening matrix                    ... done
 Shell pair data                         ... done (   0.000 sec)



           ************************************************************
           *        Program running with 24 parallel MPI-processes    *
           *              working on a common directory               *
           ************************************************************
-------------------------------------------------------------------------------
                                 ORCA SCF
-------------------------------------------------------------------------------

------------
SCF SETTINGS
------------
Hamiltonian:
 Ab initio Hamiltonian  Method          .... Hartree-Fock(GTOs)


General Settings:
 Integral files         IntName         .... 54_CuS
 Hartree-Fock type      HFTyp           .... UHF
 Total Charge           Charge          ....    0
 Multiplicity           Mult            ....    2
 Number of Electrons    NEL             ....   45
 Basis Dimension        Dim             ....  106
 Nuclear Repulsion      ENuc            ....    119.3174974820 Eh

Convergence Acceleration:
 DIIS                   CNVDIIS         .... on
   Start iteration      DIISMaxIt       ....    12
   Startup error        DIISStart       ....  0.200000
   # of expansion vecs  DIISMaxEq       ....     5
   Bias factor          DIISBfac        ....   1.050
   Max. coefficient     DIISMaxC        ....  10.000
 Newton-Raphson         CNVNR           .... off
 SOSCF                  CNVSOSCF        .... off
 Level Shifting         CNVShift        .... on
   Level shift para.    LevelShift      ....    0.2500
   Turn off err/grad.   ShiftErr        ....    0.0010
 Zerner damping         CNVZerner       .... off
 Static damping         CNVDamp         .... on
   Fraction old density DampFac         ....    0.7000
   Max. Damping (<1)    DampMax         ....    0.9800
   Min. Damping (>=0)   DampMin         ....    0.0000
   Turn off err/grad.   DampErr         ....    0.1000
 Fernandez-Rico         CNVRico         .... off

SCF Procedure:
 Maximum # iterations   MaxIter         ....   125
 SCF integral mode      SCFMode         .... Direct
   Integral package                     .... LIBINT
 Reset frequency        DirectResetFreq ....    20
 Integral Threshold     Thresh          ....  1.000e-12 Eh
 Primitive CutOff       TCut            ....  1.000e-14 Eh

Convergence Tolerance:
 Convergence Check Mode ConvCheckMode   .... Total+1el-Energy
 Convergence forced     ConvForced      .... 1
 Energy Change          TolE            ....  1.000e-09 Eh
 1-El. energy change                    ....  1.000e-06 Eh
 DIIS Error             TolErr          ....  1.000e-08


Diagonalization of the overlap matrix:
Smallest eigenvalue                        ... 5.758e-03
Time for diagonalization                   ...    0.003 sec
Threshold for overlap eigenvalues          ... 1.000e-08
Number of eigenvalues below threshold      ... 0
Time for construction of square roots      ...    0.002 sec
Total time needed                          ...    0.005 sec

-------------------
DFT GRID GENERATION
-------------------

General Integration Accuracy     IntAcc      ...  4.340
Radial Grid Type                 RadialGrid  ... Gauss-Chebyshev
Angular Grid (max. acc.)         AngularGrid ... Lebedev-110
Angular grid pruning method      GridPruning ... 3 (G Style)
Weight generation scheme         WeightScheme... Becke
Basis function cutoff            BFCut       ...    1.0000e-12
Integration weight cutoff        WCut        ...    1.0000e-14
Grids for H and He will be reduced by one unit

# of grid points (after initial pruning)     ...   4718 (   0.0 sec)
# of grid points (after weights+screening)   ...   4694 (   0.0 sec)
nearest neighbour list constructed           ...    0.0 sec
Grid point re-assignment to atoms done       ...    0.0 sec
Grid point division into batches done        ...    0.0 sec
Reduced shell lists constructed in    0.0 sec

Total number of grid points                  ...     4694
Total number of batches                      ...       74
Average number of points per batch           ...       63
Average number of grid points per atom       ...     2347
Average number of shells per batch           ...     9.60 (30.00%)
Average number of basis functions per batch  ...    30.40 (28.68%)
Average number of large shells per batch     ...     7.20 (75.00%)
Average number of large basis fcns per batch ...    21.60 (71.05%)
Maximum spatial batch extension              ...  17.39, 26.34, 14.87 au
Average spatial batch extension              ...   0.86,  1.19,  0.80 au

Time for grid setup =    0.024 sec

------------------------------
INITIAL GUESS: MODEL POTENTIAL
------------------------------
Loading Hartree-Fock densities                     ... done
Calculating cut-offs                               ... done
Setting up the integral package                    ... done
Initializing the effective Hamiltonian             ... done
Starting the Coulomb interaction                   ... done (   0.0 sec)
Reading the grid                                   ... done
Mapping shells                                     ... done
Starting the XC term evaluation                    ... done (   0.0 sec)
Transforming the Hamiltonian                       ... done (   0.0 sec)
Diagonalizing the Hamiltonian                      ... done (   0.0 sec)
Back transforming the eigenvectors                 ... done (   0.0 sec)
Now organizing SCF variables                       ... done
                      ------------------
                      INITIAL GUESS DONE (   0.1 sec)
                      ------------------
--------------
SCF ITERATIONS
--------------
ITER       Energy         Delta-E        Max-DP      RMS-DP      [F,P]     Damp
               ***  Starting incremental Fock matrix formation  ***
  0  -2036.3685209920   0.000000000000 0.02991591  0.00056282  0.1381143 0.7000
  1  -2036.3944758870  -0.025954895056 0.02206357  0.00049942  0.0964856 0.7000
                               ***Turning on DIIS***
  2  -2036.4128139100  -0.018338023023 0.05980803  0.00131499  0.0683871 0.0000
  3  -2036.4415747787  -0.028760868682 0.03142970  0.00050588  0.0334255 0.0000
  4  -2036.4472497336  -0.005674954840 0.01584894  0.00027358  0.0259677 0.0000
  5  -2036.5249674320  -0.077717698463 0.01232567  0.00023757  0.0159268 0.0000
  6  -2036.3481762688   0.176791163226 0.01155502  0.00022379  0.0123345 0.0000
  7  -2036.4181915857  -0.070015316849 0.00563829  0.00009813  0.0054932 0.0000
  8  -2036.4432923602  -0.025100774543 0.00182366  0.00003875  0.0020958 0.0000
  9  -2036.4631596746  -0.019867314446 0.00098122  0.00002043  0.0010271 0.0000
 10  -2036.4668372675  -0.003677592874 0.00084048  0.00001882  0.0005825 0.0000
 11  -2036.4708926041  -0.004055336592 0.00024764  0.00000546  0.0002411 0.0000
 12  -2036.4700427910   0.000849813136 0.00014508  0.00000247  0.0001196 0.0000
 13  -2036.4715535627  -0.001510771683 0.00014353  0.00000216  0.0000652 0.0000
 14  -2036.4706977117   0.000855850918 0.00010380  0.00000136  0.0000295 0.0000
 15  -2036.4707979371  -0.000100225395 0.00005366  0.00000073  0.0000087 0.0000
 16  -2036.4708073898  -0.000009452631 0.00002029  0.00000033  0.0000024 0.0000
 17  -2036.4708137784  -0.000006388634 0.00001231  0.00000023  0.0000009 0.0000
 18  -2036.4708199623  -0.000006183897 0.00000765  0.00000015  0.0000003 0.0000
 19  -2036.4708203240  -0.000000361679 0.00000523  0.00000010  0.0000003 0.0000
               *** Restarting incremental Fock matrix formation ***
                                   *** Resetting DIIS ***
 20  -2036.4708221502  -0.000001826186 0.00000366  0.00000007  0.0000002 0.0000
 21  -2036.4708190824   0.000003067800 0.00000143  0.00000003  0.0000002 0.0000
 22  -2036.4708231363  -0.000004053989 0.00000663  0.00000013  0.0000002 0.0000
 23  -2036.4708223714   0.000000764913 0.00000556  0.00000010  0.0000001 0.0000
 24  -2036.4708222778   0.000000093600 0.00000228  0.00000004  0.0000000 0.0000
                            ***DIIS convergence achieved***

               *****************************************************
               *                     SUCCESS                       *
               *           SCF CONVERGED AFTER  25 CYCLES          *
               *****************************************************


----------------
TOTAL SCF ENERGY
----------------

Total Energy       :        -2036.47082210 Eh          -55415.18832 eV

Components:
Nuclear Repulsion  :          119.31749748 Eh            3246.79417 eV
Electronic Energy  :        -2155.78831958 Eh          -58661.98249 eV
One Electron Energy:        -3077.77853354 Eh          -83750.61170 eV
Two Electron Energy:          921.99021396 Eh           25088.62920 eV

Virial components:
Potential Energy   :        -4073.00900976 Eh         -110832.20976 eV
Kinetic Energy     :         2036.53818766 Eh           55417.02143 eV
Virial Ratio       :            1.99996692


---------------
SCF CONVERGENCE
---------------

  Last Energy change         ...    1.7829e-07  Tolerance :   1.0000e-09
  Last MAX-Density change    ...    3.0018e-07  Tolerance :   1.0000e-08
  Last RMS-Density change    ...    5.1661e-09  Tolerance :   1.0000e-09
  Last DIIS Error            ...    1.5254e-08  Tolerance :   1.0000e-08

             **** THE GBW FILE WAS UPDATED (54_CuS.gbw) ****
             **** DENSITY FILE WAS UPDATED (54_CuS.scfp) ****
             **** ENERGY FILE WAS UPDATED (54_CuS.en.tmp) ****
----------------------
UHF SPIN CONTAMINATION
----------------------

Expectation value of <S**2>     :     0.762770
Ideal value S*(S+1) for S=0.5   :     0.750000
Deviation                       :     0.012770

             **** THE GBW FILE WAS UPDATED (54_CuS.gbw) ****
             **** DENSITY FILE WAS UPDATED (54_CuS.scfp) ****
----------------
ORBITAL ENERGIES
----------------
                 SPIN UP ORBITALS
  NO   OCC          E(Eh)            E(eV) 
   0   1.0000    -328.841446     -8948.2307 
   1   1.0000     -91.908935     -2500.9693 
   2   1.0000     -40.871884     -1112.1805 
   3   1.0000     -35.671656      -970.6751 
   4   1.0000     -35.670153      -970.6342 
   5   1.0000     -35.669727      -970.6226 
   6   1.0000      -8.913508      -242.5489 
   7   1.0000      -6.608831      -179.8354 
   8   1.0000      -6.591480      -179.3633 
   9   1.0000      -6.590363      -179.3329 
  10   1.0000      -5.062918      -137.7690 
  11   1.0000      -3.379799       -91.9690 
  12   1.0000      -3.374755       -91.8318 
  13   1.0000      -3.371919       -91.7546 
  14   1.0000      -0.891605       -24.2618 
  15   1.0000      -0.554207       -15.0807 
  16   1.0000      -0.547806       -14.9066 
  17   1.0000      -0.538301       -14.6479 
  18   1.0000      -0.537083       -14.6148 
  19   1.0000      -0.536999       -14.6125 
  20   1.0000      -0.396908       -10.8004 
  21   1.0000      -0.363161        -9.8821 
  22   1.0000      -0.333954        -9.0873 
  23   0.0000       0.005400         0.1469 
  24   0.0000       0.136177         3.7056 
  25   0.0000       0.143586         3.9072 
  26   0.0000       0.175411         4.7732 
  27   0.0000       0.224679         6.1138 
  28   0.0000       0.245847         6.6898 
  29   0.0000       0.246032         6.6949 
  30   0.0000       0.282787         7.6950 
  31   0.0000       0.294491         8.0135 
  32   0.0000       0.316251         8.6056 
  33   0.0000       0.437950        11.9172 
  34   0.0000       0.468507        12.7487 
  35   0.0000       0.506350        13.7785 
  36   0.0000       0.571484        15.5509 
  37   0.0000       0.576929        15.6990 
  38   0.0000       0.610489        16.6123 
  39   0.0000       0.673539        18.3279 
  40   0.0000       0.704712        19.1762 
  41   0.0000       0.761770        20.7288 
  42   0.0000       0.771261        20.9871 
  43   0.0000       0.914586        24.8872 
  44   0.0000       1.072390        29.1812 
  45   0.0000       1.072415        29.1819 
  46   0.0000       1.083065        29.4717 
  47   0.0000       1.142754        31.0959 
  48   0.0000       1.155171        31.4338 
  49   0.0000       1.394968        37.9590 
  50   0.0000       1.793414        48.8013 
  51   0.0000       1.794891        48.8415 
  52   0.0000       1.856098        50.5070 
  53   0.0000       1.865739        50.7693 
  54   0.0000       1.890219        51.4355 
  55   0.0000       1.965131        53.4739 
  56   0.0000       1.965399        53.4812 
  57   0.0000       1.982857        53.9563 
  58   0.0000       1.984010        53.9877 
  59   0.0000       2.089615        56.8613 
  60   0.0000       2.109848        57.4119 
  61   0.0000       2.148067        58.4519 
  62   0.0000       2.161958        58.8299 
  63   0.0000       2.202331        59.9285 
  64   0.0000       2.523803        68.6762 
  65   0.0000       3.374767        91.8321 
  66   0.0000       3.379238        91.9537 
  67   0.0000       3.461537        94.1932 
  68   0.0000       3.621955        98.5584 
  69   0.0000       3.800375       103.4135 
  70   0.0000       3.800375       103.4135 
  71   0.0000       3.805848       103.5624 
  72   0.0000       3.805851       103.5625 
  73   0.0000       3.928680       106.9048 
  74   0.0000       3.933796       107.0440 
  75   0.0000       4.186420       113.9183 
  76   0.0000       4.186433       113.9186 
  77   0.0000       4.229019       115.0775 
  78   0.0000       4.233020       115.1863 
  79   0.0000       4.300022       117.0095 
  80   0.0000       4.376625       119.0940 
  81   0.0000       7.268161       197.7767 
  82   0.0000       7.269280       197.8072 
  83   0.0000       7.331836       199.5094 
  84   0.0000       7.352250       200.0649 
  85   0.0000       7.385392       200.9667 
  86   0.0000       9.566566       260.3195 
  87   0.0000       9.596618       261.1372 
  88   0.0000       9.862273       268.3661 
  89   0.0000      13.726516       373.5175 
  90   0.0000      13.726862       373.5269 
  91   0.0000      13.727036       373.5316 
  92   0.0000      13.728406       373.5689 
  93   0.0000      13.729056       373.5866 
  94   0.0000      13.730039       373.6134 
  95   0.0000      13.730982       373.6390 
  96   0.0000      13.730995       373.6394 
  97   0.0000      13.731642       373.6570 
  98   0.0000      13.977113       380.3366 
  99   0.0000      13.977114       380.3366 
 100   0.0000      13.978644       380.3782 
 101   0.0000      13.978655       380.3785 
 102   0.0000      14.017670       381.4402 
 103   0.0000      14.020638       381.5210 
 104   0.0000      14.158599       385.2751 
 105   0.0000      19.158206       521.3213 

                 SPIN DOWN ORBITALS
  NO   OCC          E(Eh)            E(eV) 
   0   1.0000    -328.841464     -8948.2312 
   1   1.0000     -91.899551     -2500.7139 
   2   1.0000     -40.870512     -1112.1432 
   3   1.0000     -35.669782      -970.6241 
   4   1.0000     -35.669563      -970.6182 
   5   1.0000     -35.667725      -970.5681 
   6   1.0000      -8.904445      -242.3023 
   7   1.0000      -6.585855      -179.2102 
   8   1.0000      -6.585025      -179.1876 
   9   1.0000      -6.569942      -178.7772 
  10   1.0000      -5.060188      -137.6947 
  11   1.0000      -3.375134       -91.8421 
  12   1.0000      -3.370614       -91.7191 
  13   1.0000      -3.369923       -91.7003 
  14   1.0000      -0.792748       -21.5718 
  15   1.0000      -0.546137       -14.8611 
  16   1.0000      -0.535872       -14.5818 
  17   1.0000      -0.535700       -14.5771 
  18   1.0000      -0.530560       -14.4373 
  19   1.0000      -0.529351       -14.4044 
  20   1.0000      -0.346226        -9.4213 
  21   1.0000      -0.314393        -8.5551 
  22   0.0000       0.007524         0.2047 
  23   0.0000       0.042011         1.1432 
  24   0.0000       0.142122         3.8673 
  25   0.0000       0.156871         4.2687 
  26   0.0000       0.177633         4.8336 
  27   0.0000       0.227720         6.1966 
  28   0.0000       0.250104         6.8057 
  29   0.0000       0.250362         6.8127 
  30   0.0000       0.294702         8.0193 
  31   0.0000       0.302081         8.2201 
  32   0.0000       0.323847         8.8123 
  33   0.0000       0.474683        12.9168 
  34   0.0000       0.506413        13.7802 
  35   0.0000       0.519385        14.1332 
  36   0.0000       0.614411        16.7190 
  37   0.0000       0.645695        17.5703 
  38   0.0000       0.652614        17.7585 
  39   0.0000       0.707714        19.2579 
  40   0.0000       0.724731        19.7209 
  41   0.0000       0.771036        20.9810 
  42   0.0000       0.772584        21.0231 
  43   0.0000       0.922044        25.0901 
  44   0.0000       1.073096        29.2004 
  45   0.0000       1.073163        29.2022 
  46   0.0000       1.103383        30.0246 
  47   0.0000       1.155701        31.4482 
  48   0.0000       1.156181        31.4613 
  49   0.0000       1.399703        38.0878 
  50   0.0000       1.827528        49.7296 
  51   0.0000       1.827657        49.7331 
  52   0.0000       1.878250        51.1098 
  53   0.0000       1.890364        51.4394 
  54   0.0000       1.895127        51.5690 
  55   0.0000       2.010070        54.6968 
  56   0.0000       2.010076        54.6969 
  57   0.0000       2.014054        54.8052 
  58   0.0000       2.014334        54.8128 
  59   0.0000       2.097846        57.0853 
  60   0.0000       2.146184        58.4006 
  61   0.0000       2.151538        58.5463 
  62   0.0000       2.209569        60.1254 
  63   0.0000       2.217174        60.3324 
  64   0.0000       2.530667        68.8629 
  65   0.0000       3.375886        91.8625 
  66   0.0000       3.379087        91.9496 
  67   0.0000       3.462585        94.2217 
  68   0.0000       3.623356        98.5965 
  69   0.0000       3.800071       103.4052 
  70   0.0000       3.800071       103.4052 
  71   0.0000       3.806458       103.5790 
  72   0.0000       3.806466       103.5792 
  73   0.0000       3.931209       106.9736 
  74   0.0000       3.933861       107.0458 
  75   0.0000       4.186933       113.9323 
  76   0.0000       4.186934       113.9323 
  77   0.0000       4.233496       115.1993 
  78   0.0000       4.234670       115.2312 
  79   0.0000       4.301375       117.0464 
  80   0.0000       4.378533       119.1459 
  81   0.0000       7.278732       198.0644 
  82   0.0000       7.279169       198.0763 
  83   0.0000       7.341765       199.7796 
  84   0.0000       7.353667       200.1035 
  85   0.0000       7.388860       201.0611 
  86   0.0000       9.601479       261.2695 
  87   0.0000       9.602117       261.2869 
  88   0.0000       9.867759       268.5154 
  89   0.0000      13.728171       373.5625 
  90   0.0000      13.728340       373.5671 
  91   0.0000      13.728770       373.5788 
  92   0.0000      13.729580       373.6009 
  93   0.0000      13.730310       373.6207 
  94   0.0000      13.730734       373.6323 
  95   0.0000      13.731449       373.6517 
  96   0.0000      13.731463       373.6521 
  97   0.0000      13.732529       373.6811 
  98   0.0000      13.978351       380.3703 
  99   0.0000      13.978351       380.3703 
 100   0.0000      13.982158       380.4739 
 101   0.0000      13.982158       380.4739 
 102   0.0000      14.021813       381.5529 
 103   0.0000      14.022521       381.5722 
 104   0.0000      14.161066       385.3422 
 105   0.0000      19.170858       521.6656 

                    ********************************
                    * MULLIKEN POPULATION ANALYSIS *
                    ********************************

--------------------------------------------
MULLIKEN ATOMIC CHARGES AND SPIN POPULATIONS
--------------------------------------------
   0 Cu:    0.524088   -0.028281
   1 S :   -0.524088    1.028281
Sum of atomic charges         :   -0.0000000
Sum of atomic spin populations:    1.0000000

-----------------------------------------------------
MULLIKEN REDUCED ORBITAL CHARGES AND SPIN POPULATIONS
-----------------------------------------------------
CHARGE
  0 Cus       :     6.349090  s :     6.349090
      pz      :     4.078325  p :    12.175236
      px      :     4.020949
      py      :     4.075962
      dz2     :     1.957095  d :     9.950919
      dxz     :     1.990079
      dyz     :     2.004605
      dx2y2   :     1.999608
      dxy     :     1.999533
      f0      :     0.000312  f :     0.000665
      f+1     :     0.000093
      f-1     :     0.000202
      f+2     :     0.000029
      f-2     :     0.000029
      f+3     :     0.000000
      f-3     :     0.000000
      g0      :     0.000001  g :     0.000002
      g+1     :     0.000000
      g-1     :     0.000000
      g+2     :     0.000000
      g-2     :     0.000000
      g+3     :     0.000000
      g-3     :     0.000000
      g+4     :     0.000000
      g-4     :     0.000000
  1 S s       :     5.915605  s :     5.915605
      pz      :     3.677813  p :    10.571335
      px      :     2.981725
      py      :     3.911797
      dz2     :     0.015982  d :     0.032312
      dxz     :     0.005931
      dyz     :     0.006305
      dx2y2   :     0.003736
      dxy     :     0.000358
      f0      :     0.002182  f :     0.004836
      f+1     :     0.001003
      f-1     :     0.000890
      f+2     :     0.000224
      f-2     :     0.000080
      f+3     :     0.000219
      f-3     :     0.000238

SPIN
  0 Cus       :    -0.038206  s :    -0.038206
      pz      :    -0.010841  p :     0.002035
      px      :     0.020875
      py      :    -0.007999
      dz2     :    -0.001190  d :     0.007810
      dxz     :     0.009997
      dyz     :    -0.000770
      dx2y2   :    -0.000125
      dxy     :    -0.000102
      f0      :    -0.000005  f :     0.000080
      f+1     :     0.000087
      f-1     :    -0.000003
      f+2     :     0.000001
      f-2     :     0.000001
      f+3     :     0.000000
      f-3     :     0.000000
      g0      :    -0.000000  g :     0.000000
      g+1     :     0.000000
      g-1     :    -0.000000
      g+2     :     0.000000
      g-2     :     0.000000
      g+3     :     0.000000
      g-3     :     0.000000
      g+4     :     0.000000
      g-4     :     0.000000
  1 S s       :     0.029242  s :     0.029242
      pz      :     0.021792  p :     0.998265
      px      :     0.967983
      py      :     0.008490
      dz2     :    -0.000129  d :     0.000547
      dxz     :     0.000936
      dyz     :     0.000154
      dx2y2   :    -0.000504
      dxy     :     0.000091
      f0      :    -0.000167  f :     0.000226
      f+1     :    -0.000097
      f-1     :    -0.000082
      f+2     :     0.000134
      f-2     :     0.000010
      f+3     :     0.000219
      f-3     :     0.000210


                     *******************************
                     * LOEWDIN POPULATION ANALYSIS *
                     *******************************

-------------------------------------------
LOEWDIN ATOMIC CHARGES AND SPIN POPULATIONS
-------------------------------------------
   0 Cu:   -0.047038    0.067076
   1 S :    0.047038    0.932924

----------------------------------------------------
LOEWDIN REDUCED ORBITAL CHARGES AND SPIN POPULATIONS
----------------------------------------------------
CHARGE
  0 Cus       :     6.426610  s :     6.426610
      pz      :     4.250850  p :    12.409212
      px      :     4.040492
      py      :     4.117869
      dz2     :     2.097025  d :    10.209304
      dxz     :     2.025088
      dyz     :     2.089061
      dx2y2   :     1.999113
      dxy     :     1.999017
      f0      :     0.001092  f :     0.001907
      f+1     :     0.000258
      f-1     :     0.000496
      f+2     :     0.000030
      f-2     :     0.000030
      f+3     :     0.000000
      f-3     :     0.000000
      g0      :     0.000003  g :     0.000005
      g+1     :     0.000001
      g-1     :     0.000001
      g+2     :     0.000000
      g-2     :     0.000000
      g+3     :     0.000000
      g-3     :     0.000000
      g+4     :     0.000000
      g-4     :     0.000000
  1 S s       :     5.555336  s :     5.555336
      pz      :     3.634909  p :    10.331801
      px      :     2.918481
      py      :     3.778411
      dz2     :     0.024732  d :     0.052103
      dxz     :     0.011921
      dyz     :     0.010761
      dx2y2   :     0.004023
      dxy     :     0.000666
      f0      :     0.005845  f :     0.013722
      f+1     :     0.003540
      f-1     :     0.003163
      f+2     :     0.000430
      f-2     :     0.000287
      f+3     :     0.000219
      f-3     :     0.000238

SPIN
  0 Cus       :    -0.027410  s :    -0.027410
      pz      :     0.001536  p :     0.034401
      px      :     0.040921
      py      :    -0.008056
      dz2     :     0.003962  d :     0.059836
      dxz     :     0.056746
      dyz     :    -0.000689
      dx2y2   :    -0.000106
      dxy     :    -0.000076
      f0      :     0.000014  f :     0.000248
      f+1     :     0.000231
      f-1     :     0.000002
      f+2     :     0.000001
      f-2     :     0.000001
      f+3     :     0.000000
      f-3     :     0.000000
      g0      :    -0.000000  g :     0.000001
      g+1     :     0.000001
      g-1     :     0.000000
      g+2     :     0.000000
      g-2     :     0.000000
      g+3     :     0.000000
      g-3     :     0.000000
      g+4     :     0.000000
      g-4     :     0.000000
  1 S s       :     0.010008  s :     0.010008
      pz      :     0.011636  p :     0.922316
      px      :     0.902177
      py      :     0.008503
      dz2     :     0.000710  d :     0.000057
      dxz     :    -0.000247
      dyz     :     0.000047
      dx2y2   :    -0.000521
      dxy     :     0.000068
      f0      :     0.000039  f :     0.000542
      f+1     :    -0.000046
      f-1     :    -0.000017
      f+2     :     0.000130
      f-2     :     0.000007
      f+3     :     0.000219
      f-3     :     0.000210


                      *****************************
                      * MAYER POPULATION ANALYSIS *
                      *****************************

  NA   - Mulliken gross atomic population
  ZA   - Total nuclear charge
  QA   - Mulliken gross atomic charge
  VA   - Mayer's total valence
  BVA  - Mayer's bonded valence
  FA   - Mayer's free valence

  ATOM       NA         ZA         QA         VA         BVA        FA
  0 Cu    28.4759    29.0000     0.5241     0.9342     0.9272     0.0069
  1 S     16.5241    16.0000    -0.5241     1.8878     0.9272     0.9606

  Mayer bond orders larger than 0.100000
B(  0-Cu,  1-S ) :   0.9272 

-------
TIMINGS
-------

Total SCF time: 0 days 0 hours 0 min 4 sec 

Total time                  ....       4.156 sec
Sum of individual times     ....       3.922 sec  ( 94.4%)

Fock matrix formation       ....       3.654 sec  ( 87.9%)
Diagonalization             ....       0.079 sec  (  1.9%)
Density matrix formation    ....       0.013 sec  (  0.3%)
Population analysis         ....       0.005 sec  (  0.1%)
Initial guess               ....       0.107 sec  (  2.6%)
Orbital Transformation      ....       0.000 sec  (  0.0%)
Orbital Orthonormalization  ....       0.000 sec  (  0.0%)
DIIS solution               ....       0.040 sec  (  1.0%)


           ************************************************************
           *        Program running with 24 parallel MPI-processes    *
           *              working on a common directory               *
           ************************************************************


------------------------------------------------------------------------------- 
                              ORCA-MATRIX DRIVEN CI                            
------------------------------------------------------------------------------- 

--------------------------------
AUTOMATIC CHOICE OF INCORE LEVEL
--------------------------------

Memory available                           ...   2500.00 MB
Memory needed for S+T                      ...     14.35 MB
Memory needed for J+K                      ...     28.81 MB
Memory needed for DIIS                     ...    200.88 MB
Memory needed for 3-ext                    ...     56.71 MB
Memory needed for 4-ext                    ...    183.22 MB
Memory needed for triples                  ...     21.81 MB
 -> Final InCoreLevel    ... 5
 -> check shows that triples correction can be computed


Wavefunction type
-----------------
Correlation treatment                      ...      CCSD     
Single excitations                         ... ON
Orbital optimization                       ... OFF
Calculation of Z vector                    ... OFF
Calculation of Brueckner orbitals          ... OFF
Perturbative triple excitations            ... ON
Calculation of F12 correction              ... OFF
Frozen core treatment                      ... chemical core (20 el)
Reference Wavefunction                     ... UHF
  Alpha-MOs occ    :    10 ...   22 ( 13 MO's/ 13 electrons)
  Beta-MOs occ     :    10 ...   21 ( 12 MO's/ 12 electrons)
  Alpha-MOs virt   :    23 ...  105 ( 83 MO's              )
  Beta-MOs virt    :    22 ...  105 ( 84 MO's              )
Number of AO's                             ...    106
Number of electrons                        ...     45
Number of correlated electrons             ...     25

Algorithmic settings
--------------------
Integral transformation                    ... AO direct full transformation
K(C) Formation                             ... FULL-MO TRAFO
Maximum number of iterations               ...        50
Convergence tolerance (max. residuum)      ... 1.000e-06
Level shift for amplitude update           ... 2.000e-01
Maximum number of DIIS vectors             ...         7
DIIS turned on at iteration                ...         0
Damping before turning on DIIS             ...     0.500
Damping after turning on DIIS              ...     0.000
Pair specific amplitude update             ... OFF
Natural orbital iterations                 ... OFF
Perturbative natural orbital generation    ... OFF
Printlevel                                 ... 2

Memory handling:
----------------
Maximum memory for working arrays          ...   2500 MB
Data storage in matrix containers          ... UNCOMPRESSED
Data type for integral storage             ... DOUBLE
In-Core Storage of quantities:
   Amplitudes+Sigma Vector      ... YES
   J+K operators                ... YES
   DIIS vectors                 ... YES
   3-external integrals         ... YES
   4-external integrals         ... YES


Initializing the integral package          ... done
Warning: reference  - re-canonicalizations have been set to INT 1 VIRT 1

--------------------------
UNRESTRICTED FOCK OPERATOR
--------------------------

<ss|ss>:         1891 b           91 skpd (  4.8%)    0.001 s ( 0.000 ms/b)
<ss|sp>:         6405 b          383 skpd (  6.0%)    0.002 s ( 0.000 ms/b)
<ss|sd>:         4514 b          220 skpd (  4.9%)    0.001 s ( 0.000 ms/b)
<ss|sf>:         1891 b           80 skpd (  4.2%)    0.001 s ( 0.000 ms/b)
<ss|sg>:          610 b           67 skpd ( 11.0%)    0.000 s ( 0.001 ms/b)
<ss|pp>:         3294 b          174 skpd (  5.3%)    0.001 s ( 0.000 ms/b)
<ss|pd>:         4209 b          224 skpd (  5.3%)    0.001 s ( 0.000 ms/b)
<ss|pf>:         1769 b           95 skpd (  5.4%)    0.001 s ( 0.000 ms/b)
<ss|pg>:          610 b           71 skpd ( 11.6%)    0.001 s ( 0.001 ms/b)
<ss|dd>:         1708 b           69 skpd (  4.0%)    0.002 s ( 0.001 ms/b)
<ss|df>:         1281 b           97 skpd (  7.6%)    0.001 s ( 0.001 ms/b)
<ss|dg>:          427 b           30 skpd (  7.0%)    0.001 s ( 0.002 ms/b)
<ss|ff>:          366 b           14 skpd (  3.8%)    0.000 s ( 0.001 ms/b)
<ss|fg>:          183 b            8 skpd (  4.4%)    0.000 s ( 0.003 ms/b)
<ss|gg>:           61 b            2 skpd (  3.3%)    0.001 s ( 0.011 ms/b)
<sp|sp>:         5565 b          345 skpd (  6.2%)    0.002 s ( 0.000 ms/b)
<sp|sd>:         7770 b          409 skpd (  5.3%)    0.002 s ( 0.000 ms/b)
<sp|sf>:         3255 b          141 skpd (  4.3%)    0.001 s ( 0.000 ms/b)
<sp|sg>:         1050 b          144 skpd ( 13.7%)    0.001 s ( 0.001 ms/b)
<sp|pp>:         5670 b          270 skpd (  4.8%)    0.003 s ( 0.000 ms/b)
<sp|pd>:         7245 b          346 skpd (  4.8%)    0.003 s ( 0.001 ms/b)
<sp|pf>:         3045 b          130 skpd (  4.3%)    0.002 s ( 0.001 ms/b)
<sp|pg>:         1050 b          136 skpd ( 13.0%)    0.002 s ( 0.002 ms/b)
<sp|dd>:         2940 b          120 skpd (  4.1%)    0.004 s ( 0.001 ms/b)
<sp|df>:         2205 b          196 skpd (  8.9%)    0.001 s ( 0.001 ms/b)
<sp|dg>:          735 b           52 skpd (  7.1%)    0.002 s ( 0.003 ms/b)
<sp|ff>:          630 b           20 skpd (  3.2%)    0.001 s ( 0.002 ms/b)
<sp|fg>:          315 b           13 skpd (  4.1%)    0.001 s ( 0.005 ms/b)
<sp|gg>:          105 b            2 skpd (  1.9%)    0.002 s ( 0.018 ms/b)
<sd|sd>:         2775 b           89 skpd (  3.2%)    0.001 s ( 0.001 ms/b)
<sd|sf>:         2294 b           59 skpd (  2.6%)    0.001 s ( 0.000 ms/b)
<sd|sg>:          740 b           89 skpd ( 12.0%)    0.001 s ( 0.002 ms/b)
<sd|pp>:         3996 b          159 skpd (  4.0%)    0.003 s ( 0.001 ms/b)
<sd|pd>:         5106 b          155 skpd (  3.0%)    0.004 s ( 0.001 ms/b)
<sd|pf>:         2146 b           63 skpd (  2.9%)    0.002 s ( 0.001 ms/b)
<sd|pg>:          740 b           94 skpd ( 12.7%)    0.002 s ( 0.004 ms/b)
<sd|dd>:         2072 b           39 skpd (  1.9%)    0.005 s ( 0.002 ms/b)
<sd|df>:         1554 b           96 skpd (  6.2%)    0.002 s ( 0.001 ms/b)
<sd|dg>:          518 b           34 skpd (  6.6%)    0.003 s ( 0.007 ms/b)
<sd|ff>:          444 b            7 skpd (  1.6%)    0.001 s ( 0.003 ms/b)
<sd|fg>:          222 b            4 skpd (  1.8%)    0.002 s ( 0.009 ms/b)
<sd|gg>:           74 b            1 skpd (  1.4%)    0.003 s ( 0.039 ms/b)
<sf|sf>:          496 b           10 skpd (  2.0%)    0.000 s ( 0.001 ms/b)
<sf|sg>:          310 b           37 skpd ( 11.9%)    0.001 s ( 0.003 ms/b)
<sf|pp>:         1674 b           52 skpd (  3.1%)    0.002 s ( 0.001 ms/b)
<sf|pd>:         2139 b           52 skpd (  2.4%)    0.003 s ( 0.001 ms/b)
<sf|pf>:          899 b           20 skpd (  2.2%)    0.002 s ( 0.002 ms/b)
<sf|pg>:          310 b           36 skpd ( 11.6%)    0.002 s ( 0.007 ms/b)
<sf|dd>:          868 b           11 skpd (  1.3%)    0.004 s ( 0.004 ms/b)
<sf|df>:          651 b           33 skpd (  5.1%)    0.002 s ( 0.003 ms/b)
<sf|dg>:          217 b           17 skpd (  7.8%)    0.002 s ( 0.012 ms/b)
<sf|ff>:          186 b            0 skpd (  0.0%)    0.001 s ( 0.006 ms/b)
<sf|fg>:           93 b            0 skpd (  0.0%)    0.002 s ( 0.017 ms/b)
<sf|gg>:           31 b            0 skpd (  0.0%)    0.002 s ( 0.068 ms/b)
<sg|sg>:           55 b           11 skpd ( 20.0%)    0.000 s ( 0.005 ms/b)
<sg|pp>:          540 b           62 skpd ( 11.5%)    0.001 s ( 0.002 ms/b)
<sg|pd>:          690 b           82 skpd ( 11.9%)    0.002 s ( 0.003 ms/b)
<sg|pf>:          290 b           36 skpd ( 12.4%)    0.001 s ( 0.003 ms/b)
<sg|pg>:          100 b           21 skpd ( 21.0%)    0.001 s ( 0.013 ms/b)
<sg|dd>:          280 b           28 skpd ( 10.0%)    0.002 s ( 0.007 ms/b)
<sg|df>:          210 b           30 skpd ( 14.3%)    0.001 s ( 0.004 ms/b)
<sg|dg>:           70 b           13 skpd ( 18.6%)    0.001 s ( 0.023 ms/b)
<sg|ff>:           60 b            6 skpd ( 10.0%)    0.000 s ( 0.009 ms/b)
<sg|fg>:           30 b            3 skpd ( 10.0%)    0.001 s ( 0.031 ms/b)
<sg|gg>:           10 b            1 skpd ( 10.0%)    0.001 s ( 0.124 ms/b)
<pp|pp>:         1485 b           54 skpd (  3.6%)    0.002 s ( 0.002 ms/b)
<pp|pd>:         3726 b          109 skpd (  2.9%)    0.004 s ( 0.001 ms/b)
<pp|pf>:         1566 b           38 skpd (  2.4%)    0.002 s ( 0.001 ms/b)
<pp|pg>:          540 b           44 skpd (  8.1%)    0.002 s ( 0.004 ms/b)
<pp|dd>:         1512 b           36 skpd (  2.4%)    0.005 s ( 0.003 ms/b)
<pp|df>:         1134 b           61 skpd (  5.4%)    0.002 s ( 0.002 ms/b)
<pp|dg>:          378 b           15 skpd (  4.0%)    0.003 s ( 0.008 ms/b)
<pp|ff>:          324 b            7 skpd (  2.2%)    0.002 s ( 0.005 ms/b)
<pp|fg>:          162 b            4 skpd (  2.5%)    0.002 s ( 0.013 ms/b)
<pp|gg>:           54 b            1 skpd (  1.9%)    0.003 s ( 0.055 ms/b)
<pd|pd>:         2415 b           46 skpd (  1.9%)    0.006 s ( 0.003 ms/b)
<pd|pf>:         2001 b           42 skpd (  2.1%)    0.005 s ( 0.002 ms/b)
<pd|pg>:          690 b           70 skpd ( 10.1%)    0.005 s ( 0.008 ms/b)
<pd|dd>:         1932 b           23 skpd (  1.2%)    0.010 s ( 0.005 ms/b)
<pd|df>:         1449 b           85 skpd (  5.9%)    0.004 s ( 0.003 ms/b)
<pd|dg>:          483 b           21 skpd (  4.3%)    0.007 s ( 0.014 ms/b)
<pd|ff>:          414 b            6 skpd (  1.4%)    0.003 s ( 0.008 ms/b)
<pd|fg>:          207 b            3 skpd (  1.4%)    0.005 s ( 0.023 ms/b)
<pd|gg>:           69 b            1 skpd (  1.4%)    0.007 s ( 0.098 ms/b)
<pf|pf>:          435 b            5 skpd (  1.1%)    0.002 s ( 0.004 ms/b)
<pf|pg>:          290 b           31 skpd ( 10.7%)    0.003 s ( 0.012 ms/b)
<pf|dd>:          812 b            9 skpd (  1.1%)    0.006 s ( 0.007 ms/b)
<pf|df>:          609 b           36 skpd (  5.9%)    0.003 s ( 0.005 ms/b)
<pf|dg>:          203 b           14 skpd (  6.9%)    0.004 s ( 0.022 ms/b)
<pf|ff>:          174 b            2 skpd (  1.1%)    0.003 s ( 0.015 ms/b)
<pf|fg>:           87 b            3 skpd (  3.4%)    0.003 s ( 0.039 ms/b)
<pf|gg>:           29 b            1 skpd (  3.4%)    0.004 s ( 0.150 ms/b)
<pg|pg>:           55 b           11 skpd ( 20.0%)    0.001 s ( 0.024 ms/b)
<pg|dd>:          280 b           25 skpd (  8.9%)    0.003 s ( 0.014 ms/b)
<pg|df>:          210 b           31 skpd ( 14.8%)    0.001 s ( 0.008 ms/b)
<pg|dg>:           70 b           12 skpd ( 17.1%)    0.002 s ( 0.040 ms/b)
<pg|ff>:           60 b            6 skpd ( 10.0%)    0.001 s ( 0.019 ms/b)
<pg|fg>:           30 b            3 skpd ( 10.0%)    0.002 s ( 0.068 ms/b)
<pg|gg>:           10 b            1 skpd ( 10.0%)    0.002 s ( 0.234 ms/b)
<dd|dd>:          406 b            1 skpd (  0.2%)    0.005 s ( 0.012 ms/b)
<dd|df>:          588 b           25 skpd (  4.3%)    0.003 s ( 0.005 ms/b)
<dd|dg>:          196 b            4 skpd (  2.0%)    0.005 s ( 0.024 ms/b)
<dd|ff>:          168 b            0 skpd (  0.0%)    0.003 s ( 0.015 ms/b)
<dd|fg>:           84 b            0 skpd (  0.0%)    0.003 s ( 0.042 ms/b)
<dd|gg>:           28 b            0 skpd (  0.0%)    0.005 s ( 0.173 ms/b)
<df|df>:          231 b           21 skpd (  9.1%)    0.003 s ( 0.015 ms/b)
<df|dg>:          147 b           16 skpd ( 10.9%)    0.005 s ( 0.036 ms/b)
<df|ff>:          126 b            6 skpd (  4.8%)    0.003 s ( 0.026 ms/b)
<df|fg>:           63 b            3 skpd (  4.8%)    0.004 s ( 0.067 ms/b)
<df|gg>:           21 b            1 skpd (  4.8%)    0.005 s ( 0.265 ms/b)
<dg|dg>:           28 b            4 skpd ( 14.3%)    0.003 s ( 0.116 ms/b)
<dg|ff>:           42 b            5 skpd ( 11.9%)    0.001 s ( 0.036 ms/b)
<dg|fg>:           21 b            3 skpd ( 14.3%)    0.002 s ( 0.116 ms/b)
<dg|gg>:            7 b            1 skpd ( 14.3%)    0.003 s ( 0.419 ms/b)
<ff|ff>:           21 b            0 skpd (  0.0%)    0.001 s ( 0.052 ms/b)
<ff|fg>:           18 b            0 skpd (  0.0%)    0.002 s ( 0.106 ms/b)
<ff|gg>:            6 b            0 skpd (  0.0%)    0.003 s ( 0.486 ms/b)
<fg|fg>:            6 b            0 skpd (  0.0%)    0.001 s ( 0.238 ms/b)
<fg|gg>:            3 b            0 skpd (  0.0%)    0.002 s ( 0.663 ms/b)
<gg|gg>:            1 b            0 skpd (  0.0%)    0.001 s ( 1.125 ms/b)
Recanonicalizing the internal orbitals
Recanonicalizing the virtual orbitals
Time needed for Fock operator              ...            0.298 sec
Reference energy                           ...  -2036.470822151
Warning: for UHF the TrafoType has to be JK
Warning: for UHF the K(C)-option cannot be MO but must be AOX

-------------------------------
PARTIAL EXCHANGE TRANSFORMATION
-------------------------------

Transformation type                        ... two-operators
Generation of integrals (i,mue|j,nue)      ... ON
Generation of integrals (mue,kappa|nue,tau)... ON
Generation of integrals (i,mue|a,nue)      ... ON
Dimension of the basis                     ...  106
Number of internal alpha-MOs               ...   13 (  10-  22)
Number of internal beta-MOs                ...   12 (  10-  21)
Number of external alpha-MOs               ...   83 (  23- 105)
Number of external beta-MOs                ...   84 (  22- 105)
Pair cutoff                                ... 0.000e+00 Eh
Number of AO pairs in the trafo            ... 5671
Total Number of distinct AO pairs          ... 5671
Memory devoted for trafo                   ... 2500.0 MB 
Max. Number of MO pairs treated together   ... 29163      
Number Format for Storage                  ... Double (8 Byte)
Integral package used                      ... LIBINT

Starting integral evaluation:
    ... done with AO integral generation
Closing buffer AOK[aa] ( 0.00 GB; CompressionRatio= 0.99)
Closing buffer AOK[bb] ( 0.00 GB; CompressionRatio= 0.99)
Closing buffer AOK[ab] ( 0.00 GB; CompressionRatio= 0.99)
Closing buffer AOK[ba] ( 0.00 GB; CompressionRatio= 0.99)
Collecting buffer AOK 
Closing buffer IAAO1[aa] ( 0.00 GB; CompressionRatio= 1.00)
Closing buffer IAAO1[bb] ( 0.00 GB; CompressionRatio= 1.00)
Closing buffer IAAO1[ab] ( 0.00 GB; CompressionRatio= 1.00)
Closing buffer IAAO1[ba] ( 0.00 GB; CompressionRatio= 1.00)
Closing buffer IAAO2[aa] ( 0.00 GB; CompressionRatio= 1.00)
Closing buffer IAAO2[bb] ( 0.00 GB; CompressionRatio= 1.00)
Closing buffer IAAO2[ab] ( 0.00 GB; CompressionRatio= 1.00)
Closing buffer IAAO2[ba] ( 0.00 GB; CompressionRatio= 1.00)
Collecting buffer IAAO 
Closing buffer PRQS    ( 0.01 GB; CompressionRatio= 1.00)
Collecting buffer PRQS 
Number of alpha/alpha MO pairs in trafo    ...   91
Number of beta /beta  MO pairs in trafo    ...   78
Number of alpha/ beta MO pairs in trafo    ...  156
------------------------
SORTING OF (i,mue|j,nue)
------------------------

SORTING OF ALPHA/ALPHA PAIRS
IBATCH = 1 of  1
Closing buffer KAO[aa] ( 0.00 GB; CompressionRatio= 1.00)
Collecting buffer KAO 
SORTING OF BETA /BETA  PAIRS
IBATCH = 1 of  1
Closing buffer KAO[bb] ( 0.00 GB; CompressionRatio= 1.00)
Collecting buffer KAO 
SORTING OF ALPHA/BETA  PAIRS
IBATCH = 1 of  1
Closing buffer KAO[ab] ( 0.00 GB; CompressionRatio= 0.999866518354)
Collecting buffer KAO[ab] 
------------------------
SORTING OF (i,mue|a,nue)
------------------------

Number of alpha/alpha (i,a) pairs in trafo  ... 1079
Number of beta /beta  (i,a) pairs in trafo  ... 1008
Number of alpha/ beta (i,a) pairs in trafo  ... 1092
Number of beta /alpha (i,a) pairs in trafo  ...  996
Setting up the alpha/alpha list             ... done
Setting up the beta /beta  list             ... done
Setting up the alpha/beta  list             ... done
Setting up the beta /alpha list             ... done
    ... Now sorting (i,mue|a,nue)integrals
    ... Integrals (i,b|a,c) will be made on the fly
SORTING OF ALPHA/ALPHA PAIRS
IBATCH = 1 of  1
Closing buffer IPAQ[aa]  0.00 GB; CompressionRatio= 1.00)
SORTING OF BETA /BETA  PAIRS
IBATCH = 1 of  1
Closing buffer IPAQ[bb]( 0.00 GB; CompressionRatio= 1.00)
SORTING OF ALPHA/BETA  PAIRS (NMatSort_ab=46)
IBATCH = 1 of  1
Closing buffer IPAQ[ab]( 0.00 GB; CompressionRatio= 1.00)
SORTING OF BETA/ALPHA  PAIRS
IBATCH = 1 of  1
Closing buffer IPAQ[ba]( 0.00 GB; CompressionRatio= 1.00)
N(AO-Batches) Done                         ...      8536 
N(AO-Batches) Skipped                      ...         0 
N(IJ)-pairs Skipped                        ...         0 
TOTAL TIME for half transformation         ...     1.549 sec
AO-integral generation                     ...     0.049 sec
Half transformation                        ...     0.017 sec
K-integral sorting                         ...     0.972 sec
<ss|**>: 
------------------------------
PARTIAL COULOMB TRANSFORMATION
------------------------------

Transformation type                        ... two-operators
Dimension of the basis                     ...  106
Number of internal alpha-MOs               ...   13 (10-22)
Number of internal beta-MOs                ...   12 (10-21)
Pair cutoff                                ... 0.000e+00 Eh
Number of AO pairs included in the trafo   ... 5671
Total Number of distinct AO pairs          ... 5671
Memory devoted for trafo                   ... 2500.0 MB 
Max. Number of MO pairs treated together   ... 57781      
Max. Number of MOs treated per batch       ...  545      
Number Format for Storage                  ... Double (8 Byte)
AO-integral source                         ... DIRECT
Integral package used                      ... LIBINT

Starting integral evaluation:
<sp|**>:        31049 b        0 skpd     0.008 s (  0.000 ms/b)
<sd|**>:        53445 b        0 skpd     0.019 s (  0.000 ms/b)
<sf|**>:        37666 b        0 skpd     0.025 s (  0.001 ms/b)
       15779 b        0 skpd     0.013 s (  0.001 ms/b)
<sg|**>:         5090 b        0 skpd     0.019 s (  0.004 ms/b)
<pp|**>:        27486 b        0 skpd     0.027 s (  0.001 ms/b)
<pd|**>:        35121 b        0 skpd     0.044 s (  0.001 ms/b)
<pf|**>:        14761 b        0 skpd     0.025 s (  0.002 ms/b)
<pg|**>:         5090 b        0 skpd     0.029 s (  0.006 ms/b)
<dd|**>:        14252 b        0 skpd     0.056 s (  0.004 ms/b)
<df|**>:        10689 b        0 skpd     0.024 s (  0.002 ms/b)
<dg|**>:         3563 b        0 skpd     0.037 s (  0.010 ms/b)
<ff|**>:         3054 b        0 skpd     0.016 s (  0.005 ms/b)
<fg|**>:         1527 b        0 skpd     0.024 s (  0.016 ms/b)
<gg|**>:          509 b        0 skpd     0.036 s (  0.070 ms/b)
Closing buffer AOJ[aa] ( 0.00 GB; CompressionRatio= 0.98)
Closing buffer AOJ[bb] ( 0.00 GB; CompressionRatio= 0.00)
Collecting buffer AOJ 
    ... done with AO integral generation
Number of Alpha-MO pairs included          ...   91
Number of Beta-MO pairs included           ...   78
    ... Now sorting integrals
SORTING ALPHA/ALPHA PAIRS
IBATCH = 1 of  1
Closing buffer JAO[aa] ( 0.00 GB; CompressionRatio= 1.00)
SORTING BETA/BETA PAIRS
IBATCH = 1 of  1
Closing buffer JAO[bb] ( 0.00 GB; CompressionRatio= 1.00)
Collecting buffer JAO 
TOTAL TIME for half transformation         ...     0.452 sec
AO-integral generation                     ...     0.400 sec
Half transformation                        ...     0.013 sec
J-integral sorting                         ...     0.032 sec

-------------------------- SECOND HALF TRANSFORMATION -------------------------
Formation of (ij|kl),(ij|ka), (ij|ab)      ... ok (     0.066 sec)
Formation of (ik|jl),(ik|ja), (ia|jb)      ... ok (     0.115 sec)


-----------------------
SPIN UNRESTRICTED GUESS
-----------------------

Entering MDCI_UHF_Guess, Tailored=0
Spin-components of the MP2 energy:
EMP2(aa)=     -0.170126571
EMP2(bb)=     -0.159661797
EMP2(ab)=     -0.670563181

Initial guess performed in     0.050 sec
E(0)                                       ...  -2036.470822151
E(MP2)                                     ...     -1.000351549
Initial E(tot)                             ...  -2037.471173699
<T|T>                                      ...      0.191561062
Number of pairs included                   ... 300

------------------------------------------------
                  UHF COUPLED CLUSTER ITERATIONS
------------------------------------------------

Number of amplitudes to be optimized       ...      1590155

Iter       E(tot)           E(Corr)          Delta-E          Residual     Time      <S|S>**1/2
  0  -2037.471173699     -1.000351549      0.000000000      0.044424382    1.40      0.000000032
                           *** Turning on DIIS ***
  1  -2037.313857692     -0.843035542      0.157316007      0.025151843    1.51      0.102133502
  2  -2037.372352429     -0.901530278     -0.058494736      0.012116699    1.56      0.072592737
  3  -2037.371901876     -0.901079725      0.000450553      0.004324304    1.57      0.093804655
  4  -2037.374041210     -0.903219059     -0.002139334      0.004822026    1.57      0.104648359
  5  -2037.375613128     -0.904790977     -0.001571918      0.003078898    1.62      0.118080853
  6  -2037.376343042     -0.905520892     -0.000729914      0.002539272    1.62      0.131644332
  7  -2037.376503309     -0.905681159     -0.000160267      0.000846923    1.72      0.144760505
  8  -2037.376670062     -0.905847911     -0.000166753      0.000725351    1.60      0.150248459
  9  -2037.376769685     -0.905947534     -0.000099623      0.000341633    1.64      0.153356820
 10  -2037.376709073     -0.905886922      0.000060612      0.000189751    1.64      0.154474909
 11  -2037.376783874     -0.905961723     -0.000074801      0.000109925    1.59      0.154950473
 12  -2037.376766521     -0.905944371      0.000017352      0.000095827    1.58      0.154955316
 13  -2037.376760014     -0.905937863      0.000006508      0.000071413    1.58      0.155011550
 14  -2037.376753991     -0.905931840      0.000006023      0.000044599    1.61      0.155069714
 15  -2037.376753607     -0.905931456      0.000000384      0.000029108    1.59      0.155122289
 16  -2037.376755075     -0.905932924     -0.000001468      0.000013080    1.60      0.155174719
 17  -2037.376756064     -0.905933914     -0.000000989      0.000008012    1.60      0.155175807
 18  -2037.376755238     -0.905933087      0.000000826      0.000004679    1.59      0.155172493
 19  -2037.376755231     -0.905933080      0.000000007      0.000002334    1.59      0.155160002
 20  -2037.376754582     -0.905932432      0.000000649      0.000001620    1.66      0.155146976
 21  -2037.376754603     -0.905932453     -0.000000021      0.000000982    1.58      0.155141489
               --- The Coupled-Cluster iterations have converged ---

----------------------
COUPLED CLUSTER ENERGY
----------------------

E(0)                                       ...  -2036.470822151
E(CORR)                                    ...     -0.905932453
E(TOT)                                     ...  -2037.376754603
Singles norm <S|S>**1/2                    ...      0.155141489 ( 0.072099963, 0.083041526)  
T1 diagnostic                              ...      0.031028298                              

------------------
LARGEST AMPLITUDES
------------------
  18b-> 23b  -1b-> -1b       0.093617
  20b-> 22b  -1b-> -1b       0.089563
  21a-> 23a  -1a-> -1a       0.085454
  17a-> 23a  -1a-> -1a       0.052466
  19b-> 22b  -1b-> -1b       0.052013
  22a-> 37a  21b-> 37b       0.039597
  20b-> 27b  -1b-> -1b       0.039000
  21a-> 27a  -1a-> -1a       0.037830
  20a-> 36a  14b-> 23b       0.037294
  22a-> 37a  14b-> 23b       0.035784
  18b-> 25b  -1b-> -1b       0.035625
  22a-> 34a  21b-> 33b       0.034227
  17a-> 27a  -1a-> -1a       0.031960
  22a-> 37a  20a-> 36a       0.030526
  22a-> 36a  20a-> 37a       0.030526
  19b-> 27b  -1b-> -1b       0.029906

----------------------
UHF TRIPLES CORRECTION (Algorithm 1)
----------------------

Multiplier for the singles contribution    ...      1.000000000

SPIN-CASE Alpha-Alpha-Alpha:
10% done
20% done
30% done
40% done
50% done
60% done
70% done
80% done
90% done


SPIN-CASE Beta-Beta-Beta:
10% done
20% done
30% done
40% done
50% done
60% done
70% done
80% done
90% done


SPIN-CASE Alpha-Alpha-Beta:
10% done
20% done
30% done
40% done
50% done
60% done
70% done
80% done
90% done


SPIN-CASE Beta-Beta-Alpha:
10% done
20% done
30% done
40% done
50% done
60% done
70% done
80% done
90% done


Triples Correction (T)                     ...     -0.030851982
    alpha-alpha-alpha ... -0.001282737 (  4.2%)
    alpha-alpha-beta  ... -0.014824401 ( 48.1%)
    alpha-beta -beta  ... -0.013542395 ( 43.9%)
    beta -beta -beta  ... -0.001202450 (  3.9%)
Scaling of triples based on CCSD energies (Peterson et al. Molecular Physics 113, 1551 (2015))
E(T*) = f*E(T) where f = E(F12-CCSD)/E(CCSD) 
f = CCSD (with F12)/ CCSD (without F12)    ...      1.000000000
Scaled triples correction (T)              ...     -0.030851982

Final correlation energy                   ...     -0.936784435
E(CCSD)                                    ...  -2037.376754603
E(CCSD(T))                                 ...  -2037.407606585



        !!!!!!!!!!!!!!!!!!!!!!!!!!!!!!!!!!!!!!!!!!!!!!!!!!!!!!!!!!!!!!!!!!!!!!!!!! 
        !  Warning: Densities are linearized densities                           !
        !!!!!!!!!!!!!!!!!!!!!!!!!!!!!!!!!!!!!!!!!!!!!!!!!!!!!!!!!!!!!!!!!!!!!!!!!! 

NORM  =      1.231625987 sqrt=     1.109786460
W(HF) =      0.811934800
------------------------------------------------------------------------------
                           ORCA POPULATION ANALYSIS
------------------------------------------------------------------------------
Input electron density              ... 54_CuS.mdcip
Input spin density                  ... 54_CuS.mdcir
BaseName (.gbw .S,...)              ... 54_CuS

                    ********************************
                    * MULLIKEN POPULATION ANALYSIS *
                    ********************************

------------------------------------------
MULLIKEN ATOMIC CHARGES AND SPIN DENSITIES
------------------------------------------
   0 Cu:    0.388256    0.010921
   1 S :   -0.388256    0.989079
Sum of atomic charges       :   -0.0000000
Sum of atomic spin densities:    1.0000000

---------------------------------------------------
MULLIKEN REDUCED ORBITAL CHARGES AND SPIN DENSITIES
---------------------------------------------------
CHARGE
  0 Cus       :     6.561054  s :     6.561054
      pz      :     4.069384  p :    12.210381
      px      :     4.038064
      py      :     4.102933
      dz2     :     1.886265  d :     9.805936
      dxz     :     1.947399
      dyz     :     1.989550
      dx2y2   :     1.991360
      dxy     :     1.991362
      f0      :     0.004638  f :     0.031292
      f+1     :     0.004460
      f-1     :     0.004585
      f+2     :     0.004412
      f-2     :     0.004412
      f+3     :     0.004392
      f-3     :     0.004392
      g0      :     0.000344  g :     0.003080
      g+1     :     0.000343
      g-1     :     0.000344
      g+2     :     0.000343
      g-2     :     0.000343
      g+3     :     0.000342
      g-3     :     0.000342
      g+4     :     0.000340
      g-4     :     0.000340
  1 S s       :     5.887854  s :     5.887854
      pz      :     3.501309  p :    10.352363
      px      :     2.998339
      py      :     3.852716
      dz2     :     0.036186  d :     0.132275
      dxz     :     0.027042
      dyz     :     0.029737
      dx2y2   :     0.019684
      dxy     :     0.019626
      f0      :     0.004016  f :     0.015764
      f+1     :     0.002763
      f-1     :     0.002818
      f+2     :     0.001647
      f-2     :     0.001641
      f+3     :     0.001442
      f-3     :     0.001436

SPIN
  0 Cus       :    -0.040560  s :    -0.040560
      pz      :    -0.007172  p :     0.013007
      px      :     0.029461
      py      :    -0.009283
      dz2     :    -0.001062  d :     0.038233
      dxz     :     0.040039
      dyz     :    -0.000665
      dx2y2   :    -0.000035
      dxy     :    -0.000044
      f0      :     0.000020  f :     0.000222
      f+1     :     0.000133
      f-1     :    -0.000000
      f+2     :     0.000032
      f-2     :     0.000032
      f+3     :     0.000002
      f-3     :     0.000002
      g0      :     0.000002  g :     0.000020
      g+1     :     0.000004
      g-1     :     0.000001
      g+2     :     0.000003
      g-2     :     0.000003
      g+3     :     0.000003
      g-3     :     0.000003
      g+4     :     0.000000
      g-4     :     0.000000
  1 S s       :     0.029348  s :     0.029348
      pz      :     0.029571  p :     0.938769
      px      :     0.899442
      py      :     0.009756
      dz2     :     0.001649  d :     0.019412
      dxz     :     0.005925
      dyz     :    -0.000396
      dx2y2   :     0.006230
      dxy     :     0.006005
      f0      :    -0.000084  f :     0.001550
      f+1     :     0.000030
      f-1     :    -0.000035
      f+2     :     0.000319
      f-2     :     0.000319
      f+3     :     0.000500
      f-3     :     0.000501


                     *******************************
                     * LOEWDIN POPULATION ANALYSIS *
                     *******************************

-----------------------------------------
LOEWDIN ATOMIC CHARGES AND SPIN DENSITIES
-----------------------------------------
   0 Cu:   -0.085246    0.098056
   1 S :    0.085246    0.901944

--------------------------------------------------
LOEWDIN REDUCED ORBITAL CHARGES AND SPIN DENSITIES
--------------------------------------------------
CHARGE
  0 Cus       :     6.577666  s :     6.577666
      pz      :     4.218427  p :    12.416539
      px      :     4.056638
      py      :     4.141474
      dz2     :     2.028609  d :    10.055388
      dxz     :     1.980396
      dyz     :     2.064757
      dx2y2   :     1.990812
      dxy     :     1.990814
      f0      :     0.005438  f :     0.032570
      f+1     :     0.004636
      f-1     :     0.004881
      f+2     :     0.004415
      f-2     :     0.004415
      f+3     :     0.004392
      f-3     :     0.004392
      g0      :     0.000346  g :     0.003084
      g+1     :     0.000343
      g-1     :     0.000345
      g+2     :     0.000343
      g-2     :     0.000343
      g+3     :     0.000342
      g-3     :     0.000342
      g+4     :     0.000340
      g-4     :     0.000340
  1 S s       :     5.543892  s :     5.543892
      pz      :     3.522534  p :    10.191660
      px      :     2.937925
      py      :     3.731201
      dz2     :     0.046822  d :     0.154643
      dxz     :     0.033121
      dyz     :     0.034795
      dx2y2   :     0.019981
      dxy     :     0.019924
      f0      :     0.007317  f :     0.024560
      f+1     :     0.005350
      f-1     :     0.005231
      f+2     :     0.001894
      f-2     :     0.001889
      f+3     :     0.001442
      f-3     :     0.001436

SPIN
  0 Cus       :    -0.029108  s :    -0.029108
      pz      :     0.002287  p :     0.041788
      px      :     0.048817
      py      :    -0.009316
      dz2     :     0.003522  d :     0.084970
      dxz     :     0.081973
      dyz     :    -0.000572
      dx2y2   :     0.000029
      dxy     :     0.000019
      f0      :     0.000042  f :     0.000385
      f+1     :     0.000269
      f-1     :     0.000004
      f+2     :     0.000033
      f-2     :     0.000033
      f+3     :     0.000002
      f-3     :     0.000002
      g0      :     0.000002  g :     0.000020
      g+1     :     0.000005
      g-1     :     0.000001
      g+2     :     0.000003
      g-2     :     0.000003
      g+3     :     0.000003
      g-3     :     0.000003
      g+4     :     0.000000
      g-4     :     0.000000
  1 S s       :     0.013865  s :     0.013865
      pz      :     0.019133  p :     0.867664
      px      :     0.838875
      py      :     0.009656
      dz2     :     0.001943  d :     0.018603
      dxz     :     0.004946
      dyz     :    -0.000400
      dx2y2   :     0.006170
      dxy     :     0.005946
      f0      :     0.000027  f :     0.001813
      f+1     :     0.000150
      f-1     :     0.000006
      f+2     :     0.000315
      f-2     :     0.000315
      f+3     :     0.000500
      f-3     :     0.000501


                      *****************************
                      * MAYER POPULATION ANALYSIS *
                      *****************************

  NA   - Mulliken gross atomic population
  ZA   - Total nuclear charge
  QA   - Mulliken gross atomic charge
  VA   - Mayer's total valence
  BVA  - Mayer's bonded valence
  FA   - Mayer's free valence

  ATOM       NA         ZA         QA         VA         BVA        FA
  0 Cu    28.6117    29.0000     0.3883     1.9024     1.1078     0.7946
  1 S     16.3883    16.0000    -0.3883     2.5863     1.1078     1.4786

  Mayer bond orders larger than 0.100000
B(  0-Cu,  1-S ) :   1.1078 



------------------------------------------------------------------------------- 
                                     TIMINGS                                   
------------------------------------------------------------------------------- 


Total execution time                   ...       42.587 sec

Fock Matrix Formation                  ...        0.298 sec (  0.7%)
Initial Guess                          ...        0.050 sec (  0.1%)
DIIS Solver                            ...        3.709 sec (  8.7%)
State Vector Update                    ...        0.167 sec (  0.4%)
Sigma-vector construction              ...       31.152 sec ( 73.1%)
  <0|H|D>                              ...        0.009 sec (  0.0% of sigma)
  <D|H|D>(0-ext Fock)                  ...        0.066 sec (  0.2% of sigma)
  <D|H|D>(0-ext)                       ...        0.342 sec (  1.1% of sigma)
  <D|H|D>(2-ext Fock)                  ...        0.017 sec (  0.1% of sigma)
  <D|H|D>(2-ext)                       ...        0.994 sec (  3.2% of sigma)
  <D|H|D>(4-ext)                       ...       14.306 sec ( 45.9% of sigma)
  <S|H|0>                              ...        2.091 sec (  6.7% of sigma)
  <S|H|S>                              ...        0.003 sec (  0.0% of sigma)
  <S|H|D>(1-ext)                       ...        0.017 sec (  0.1% of sigma)
  <D|H|S>(1-ext)                       ...        0.235 sec (  0.8% of sigma)
  Fock-dressing                        ...        5.014 sec ( 16.1% of sigma)
  (ik|jl)-dressing                     ...        0.468 sec (  1.5% of sigma)
  (ij|ab),(ia|jb)-dressing             ...        6.007 sec ( 19.3% of sigma)
  Pair energies                        ...        0.010 sec (  0.0% of sigma)
Total Time for computing (T)           ...        4.320 sec ( 10.1% of ALL)
  I/O of integral and amplitudes       ...        0.751 sec ( 17.4% of (T))
  External N**7 contributions          ...        1.249 sec ( 28.9% of (T))
  Internal N**7 contributions          ...        0.653 sec ( 15.1% of (T))
  N**6 triples energy contributions    ...        1.634 sec ( 37.8% of (T))

----- Orbital basis set information -----
Your calculation utilizes the basis: def2-QZVPP
   F. Weigend and R. Ahlrichs, Phys. Chem. Chem. Phys. 7, 3297 (2005).

----- AuxJ basis set information -----
Your calculation utilizes the auxiliary basis: def2/J
   F. Weigend, Phys. Chem. Chem. Phys. 8, 1057 (2006).

----- AuxC basis set information -----
Your calculation utilizes the auxiliary basis: def2-QZVPP/C
  H-La, Hf-Rn : A. Hellweg, C. Hattig, S. Hofener and W. Klopper, Theor. Chem. Acc. 117, 587 (2007).
        Ce-Lu : J. Chmela and M. E. Harding, Mol. Phys. (2018).

----- AuxJK basis set information -----
Your calculation utilizes the auxiliary basis: def2/JK
   H-Ba, Hf-Rn: F. Weigend, J. Comput. Chem. 29, 167 (2008).

All done

                     -----------------------------------------
                     Extrapolated Energy 2 Basis=  def2-QZVPP
                     -----------------------------------------

---------------------------------
CARTESIAN COORDINATES (ANGSTROEM)
---------------------------------
  Cu     0.000000    0.000000   -0.028928
  S      0.000000    0.000000    2.028928

----------------------------
CARTESIAN COORDINATES (A.U.)
----------------------------
  NO LB      ZA    FRAG     MASS         X           Y           Z
   0 Cu   29.0000    0    63.550    0.000000    0.000000   -0.054666
   1 S    16.0000    0    32.060    0.000000    0.000000    3.834118

--------------------------------
INTERNAL COORDINATES (ANGSTROEM)
--------------------------------
 Cu     0   0   0     0.000000000000     0.00000000     0.00000000
 S      1   0   0     2.057855971109     0.00000000     0.00000000

---------------------------
INTERNAL COORDINATES (A.U.)
---------------------------
 Cu     0   0   0     0.000000000000     0.00000000     0.00000000
 S      1   0   0     3.888784208451     0.00000000     0.00000000

---------------------
BASIS SET INFORMATION
---------------------
There are 2 groups of distinct atoms

 Group   1 Type Cu  : 24s18p10d4f2g contracted to 11s6p5d4f2g pattern {114111111111/951111/61111/1111/11}
 Group   2 Type S   : 20s14p4d2f1g contracted to 9s6p4d2f1g pattern {1031111111/821111/1111/11/1}

Atom   0Cu   basis set group =>   1
Atom   1S    basis set group =>   2
---------------------------------
AUXILIARY/J BASIS SET INFORMATION
---------------------------------
There are 2 groups of distinct atoms

 Group   1 Type Cu  : 19s5p5d3f3g contracted to 8s5p4d3f3g pattern {121111111/11111/2111/111/111}
 Group   2 Type S   : 14s5p5d2f1g contracted to 8s4p3d1f1g pattern {71111111/2111/311/2/1}

Atom   0Cu   basis set group =>   1
Atom   1S    basis set group =>   2
---------------------------------
AUXILIARY/C BASIS SET INFORMATION
---------------------------------
There are 2 groups of distinct atoms

 Group   1 Type Cu  : 15s13p11d9f7g5h2i contracted to 15s13p11d9f7g5h2i pattern {111111111111111/1111111111111/11111111111/111111111/1111111/11111/11}
 Group   2 Type S   : 12s10p9d6f3g1h contracted to 12s10p9d6f3g1h pattern {111111111111/1111111111/111111111/111111/111/1}

Atom   0Cu   basis set group =>   1
Atom   1S    basis set group =>   2
----------------------------------
AUXILIARY/JK BASIS SET INFORMATION
----------------------------------
There are 2 groups of distinct atoms

 Group   1 Type Cu  : 19s14p12d10f7g3h1i contracted to 16s13p11d9f5g3h1i pattern {4111111111111111/2111111111111/21111111111/211111111/31111/111/1}
 Group   2 Type S   : 16s12p10d4f1g contracted to 13s11p9d4f1g pattern {4111111111111/21111111111/211111111/1111/1}

Atom   0Cu   basis set group =>   1
Atom   1S    basis set group =>   2

Checking for AutoStart:
The File: 54_CuS.gbw exists
Trying to determine its content:
     ... Fine, the file contains calculation information
     ... Fine, the calculation information was read
     ... Fine, the file contains a basis set
     ... Fine, the basis set was read
     ... Fine, the file contains a geometry
     ... Fine, the geometry was read
     ... Fine, the file contains a set of orbitals
     ... Fine, the orbitals can be read
     => possible old guess file was deleted
     => GBW file was renamed to GES file
     => GES file is set as startup file
     => Guess is set to MORead
     ... now leaving AutoStart



           ************************************************************
           *        Program running with 24 parallel MPI-processes    *
           *              working on a common directory               *
           ************************************************************
------------------------------------------------------------------------------
                           ORCA GTO INTEGRAL CALCULATION
------------------------------------------------------------------------------

                         BASIS SET STATISTICS AND STARTUP INFO

 # of primitive gaussian shells          ...   99
 # of primitive gaussian functions       ...  279
 # of contracted shells                  ...   50
 # of contracted basis functions         ...  170
 Highest angular momentum                ...    4
 Maximum contraction depth               ...   11
 Integral package used                   ... LIBINT
 Integral threshhold            Thresh   ...  1.000e-12
[...]
 14  -2037.470136959     -0.946810443      0.000003873      0.000042483    6.83      0.160199221
 15  -2037.470135047     -0.946808530      0.000001913      0.000025023    6.90      0.160258098
 16  -2037.470136932     -0.946810415     -0.000001885      0.000016237    6.94      0.160318253
 17  -2037.470138052     -0.946811535     -0.000001120      0.000008218    6.93      0.160340395
 18  -2037.470137903     -0.946811386      0.000000148      0.000006696    6.88      0.160349027
 19  -2037.470138356     -0.946811839     -0.000000453      0.000003623    6.88      0.160342453
 20  -2037.470137608     -0.946811091      0.000000748      0.000002425    6.82      0.160332187
 21  -2037.470137591     -0.946811074      0.000000018      0.000001666    6.79      0.160323354
 22  -2037.470137361     -0.946810844      0.000000230      0.000000966    6.88      0.160316096
               --- The Coupled-Cluster iterations have converged ---

----------------------
COUPLED CLUSTER ENERGY
----------------------

E(0)                                       ...  -2036.523326517
E(CORR)                                    ...     -0.946810844
E(TOT)                                     ...  -2037.470137361
Singles norm <S|S>**1/2                    ...      0.160316096 ( 0.074480170, 0.085835925)  
T1 diagnostic                              ...      0.032063219                              

------------------
LARGEST AMPLITUDES
------------------
  20b-> 22b  -1b-> -1b       0.080354
  21a-> 23a  -1a-> -1a       0.077851
  18b-> 23b  -1b-> -1b       0.075989
  18b-> 25b  -1b-> -1b       0.068820
  20b-> 27b  -1b-> -1b       0.051044
  21a-> 27a  -1a-> -1a       0.048042
  19b-> 22b  -1b-> -1b       0.045030
  17a-> 23a  -1a-> -1a       0.043774
  22a-> 40a  21b-> 40b       0.033973
  22a-> 41a  21b-> 41b       0.032035
  18b-> 37b  -1b-> -1b       0.030282
  20b-> 26b  -1b-> -1b       0.030150
  21a-> 26a  -1a-> -1a       0.029824
  22a-> 41a  20a-> 40a       0.026150
  22a-> 40a  20a-> 41a       0.026150
  20b-> 39b  -1b-> -1b       0.025420

----------------------
UHF TRIPLES CORRECTION (Algorithm 1)
----------------------

Multiplier for the singles contribution    ...      1.000000000

SPIN-CASE Alpha-Alpha-Alpha:
10% done
20% done
30% done
40% done
50% done
60% done
70% done
80% done
90% done


SPIN-CASE Beta-Beta-Beta:
10% done
20% done
30% done
40% done
50% done
60% done
70% done
80% done
90% done


SPIN-CASE Alpha-Alpha-Beta:
10% done
20% done
30% done
40% done
50% done
60% done
70% done
80% done
90% done


SPIN-CASE Beta-Beta-Alpha:
10% done
20% done
30% done
40% done
50% done
60% done
70% done
80% done
90% done


Triples Correction (T)                     ...     -0.038383987
    alpha-alpha-alpha ... -0.001620965 (  4.2%)
    alpha-alpha-beta  ... -0.018468158 ( 48.1%)
    alpha-beta -beta  ... -0.016796250 ( 43.8%)
    beta -beta -beta  ... -0.001498614 (  3.9%)
Scaling of triples based on CCSD energies (Peterson et al. Molecular Physics 113, 1551 (2015))
E(T*) = f*E(T) where f = E(F12-CCSD)/E(CCSD) 
f = CCSD (with F12)/ CCSD (without F12)    ...      1.000000000
Scaled triples correction (T)              ...     -0.038383987

Final correlation energy                   ...     -0.985194831
E(CCSD)                                    ...  -2037.470137361
E(CCSD(T))                                 ...  -2037.508521348



        !!!!!!!!!!!!!!!!!!!!!!!!!!!!!!!!!!!!!!!!!!!!!!!!!!!!!!!!!!!!!!!!!!!!!!!!!! 
        !  Warning: Densities are linearized densities                           !
        !!!!!!!!!!!!!!!!!!!!!!!!!!!!!!!!!!!!!!!!!!!!!!!!!!!!!!!!!!!!!!!!!!!!!!!!!! 

NORM  =      1.241847420 sqrt=     1.114382080
W(HF) =      0.805251905
------------------------------------------------------------------------------
                           ORCA POPULATION ANALYSIS
------------------------------------------------------------------------------
Input electron density              ... 54_CuS.mdcip
Input spin density                  ... 54_CuS.mdcir
BaseName (.gbw .S,...)              ... 54_CuS

                    ********************************
                    * MULLIKEN POPULATION ANALYSIS *
                    ********************************

------------------------------------------
MULLIKEN ATOMIC CHARGES AND SPIN DENSITIES
------------------------------------------
   0 Cu:    0.328528    0.025026
   1 S :   -0.328528    0.974974
Sum of atomic charges       :   -0.0000000
Sum of atomic spin densities:    1.0000000

---------------------------------------------------
MULLIKEN REDUCED ORBITAL CHARGES AND SPIN DENSITIES
---------------------------------------------------
CHARGE
  0 Cus       :     6.603746  s :     6.603746
      pz      :     4.092504  p :    12.235600
      px      :     4.037787
      py      :     4.105309
      dz2     :     1.882498  d :     9.780922
      dxz     :     1.936828
      dyz     :     1.983551
      dx2y2   :     1.989021
      dxy     :     1.989024
      f0      :     0.008737  f :     0.046625
      f+1     :     0.006588
      f-1     :     0.009174
      f+2     :     0.005645
      f-2     :     0.005643
      f+3     :     0.005419
      f-3     :     0.005419
      g0      :     0.000529  g :     0.004579
      g+1     :     0.000517
      g-1     :     0.000521
      g+2     :     0.000507
      g-2     :     0.000507
      g+3     :     0.000502
      g-3     :     0.000502
      g+4     :     0.000497
      g-4     :     0.000497
  1 S s       :     5.881715  s :     5.881715
      pz      :     3.441052  p :    10.281675
      px      :     2.998525
      py      :     3.842099
      dz2     :     0.032778  d :     0.138518
      dxz     :     0.031173
      dyz     :     0.034199
      dx2y2   :     0.020236
      dxy     :     0.020131
      f0      :     0.004060  f :     0.023357
      f+1     :     0.005321
      f-1     :     0.005243
      f+2     :     0.002511
      f-2     :     0.002496
      f+3     :     0.001868
      f-3     :     0.001857
      g0      :     0.000730  g :     0.003263
      g+1     :     0.000595
      g-1     :     0.000657
      g+2     :     0.000306
      g-2     :     0.000304
      g+3     :     0.000185
      g-3     :     0.000185
      g+4     :     0.000150
      g-4     :     0.000150

SPIN
  0 Cus       :    -0.035449  s :    -0.035449
      pz      :    -0.004460  p :     0.016245
      px      :     0.030475
      py      :    -0.009770
      dz2     :    -0.000234  d :     0.042552
      dxz     :     0.043867
      dyz     :    -0.000827
      dx2y2   :    -0.000123
      dxy     :    -0.000131
      f0      :    -0.000165  f :     0.001655
      f+1     :     0.001857
      f-1     :    -0.000151
      f+2     :     0.000047
      f-2     :     0.000044
      f+3     :     0.000012
      f-3     :     0.000012
      g0      :     0.000002  g :     0.000024
      g+1     :     0.000006
      g-1     :     0.000001
      g+2     :     0.000004
      g-2     :     0.000004
      g+3     :     0.000004
      g-3     :     0.000004
      g+4     :     0.000000
      g-4     :     0.000000
  1 S s       :     0.024487  s :     0.024487
      pz      :     0.025764  p :     0.928745
      px      :     0.892310
      py      :     0.010670
      dz2     :     0.001847  d :     0.019680
      dxz     :     0.005929
      dyz     :    -0.000379
      dx2y2   :     0.006242
      dxy     :     0.006041
      f0      :     0.000053  f :     0.002151
      f+1     :    -0.000069
      f-1     :    -0.000062
      f+2     :     0.000441
      f-2     :     0.000434
      f+3     :     0.000679
      f-3     :     0.000677
      g0      :    -0.000013  g :    -0.000090
      g+1     :    -0.000049
      g-1     :    -0.000009
      g+2     :     0.000001
      g-2     :    -0.000001
      g+3     :    -0.000003
      g-3     :    -0.000003
      g+4     :    -0.000007
      g-4     :    -0.000007


                     *******************************
                     * LOEWDIN POPULATION ANALYSIS *
                     *******************************

-----------------------------------------
LOEWDIN ATOMIC CHARGES AND SPIN DENSITIES
-----------------------------------------
   0 Cu:   -0.331674    0.154197
   1 S :    0.331674    0.845803

--------------------------------------------------
LOEWDIN REDUCED ORBITAL CHARGES AND SPIN DENSITIES
--------------------------------------------------
CHARGE
  0 Cus       :     6.576376  s :     6.576376
      pz      :     4.267394  p :    12.513995
      px      :     4.069964
      py      :     4.176637
      dz2     :     2.047701  d :    10.073004
      dxz     :     1.977270
      dyz     :     2.073910
      dx2y2   :     1.987061
      dxy     :     1.987062
      f0      :     0.051109  f :     0.163616
      f+1     :     0.033434
      f-1     :     0.056313
      f+2     :     0.005960
      f-2     :     0.005958
      f+3     :     0.005422
      f-3     :     0.005421
      g0      :     0.000587  g :     0.004684
      g+1     :     0.000534
      g-1     :     0.000551
      g+2     :     0.000507
      g-2     :     0.000507
      g+3     :     0.000502
      g-3     :     0.000502
      g+4     :     0.000497
      g-4     :     0.000497
  1 S s       :     5.427259  s :     5.427259
      pz      :     3.497067  p :    10.000898
      px      :     2.884118
      py      :     3.619713
      dz2     :     0.056374  d :     0.172730
      dxz     :     0.036726
      dyz     :     0.038675
      dx2y2   :     0.020528
      dxy     :     0.020426
      f0      :     0.021166  f :     0.058514
      f+1     :     0.013358
      f-1     :     0.012928
      f+2     :     0.003679
      f-2     :     0.003663
      f+3     :     0.001866
      f-3     :     0.001854
      g0      :     0.003316  g :     0.008926
      g+1     :     0.001930
      g-1     :     0.002028
      g+2     :     0.000491
      g-2     :     0.000489
      g+3     :     0.000185
      g-3     :     0.000185
      g+4     :     0.000150
      g-4     :     0.000150

SPIN
  0 Cus       :    -0.026652  s :    -0.026652
      pz      :     0.002130  p :     0.054883
      px      :     0.063802
      py      :    -0.011049
      dz2     :     0.004080  d :     0.097779
      dxz     :     0.094188
      dyz     :    -0.000454
      dx2y2   :    -0.000012
      dxy     :    -0.000022
      f0      :     0.000871  f :     0.028146
      f+1     :     0.026244
      f-1     :     0.000769
      f+2     :     0.000120
      f-2     :     0.000115
      f+3     :     0.000013
      f-3     :     0.000013
      g0      :     0.000003  g :     0.000041
      g+1     :     0.000022
      g-1     :     0.000001
      g+2     :     0.000004
      g-2     :     0.000004
      g+3     :     0.000004
      g-3     :     0.000004
      g+4     :     0.000000
      g-4     :     0.000000
  1 S s       :     0.012078  s :     0.012078
      pz      :     0.017362  p :     0.811803
      px      :     0.783988
      py      :     0.010453
      dz2     :     0.001790  d :     0.018836
      dxz     :     0.005387
      dyz     :    -0.000322
      dx2y2   :     0.006089
      dxy     :     0.005891
      f0      :     0.000174  f :     0.003128
      f+1     :     0.000698
      f-1     :     0.000087
      f+2     :     0.000412
      f-2     :     0.000405
      f+3     :     0.000678
      f-3     :     0.000675
      g0      :    -0.000005  g :    -0.000042
      g+1     :    -0.000002
      g-1     :    -0.000012
      g+2     :    -0.000001
      g-2     :    -0.000003
      g+3     :    -0.000003
      g-3     :    -0.000003
      g+4     :    -0.000007
      g-4     :    -0.000007


                      *****************************
                      * MAYER POPULATION ANALYSIS *
                      *****************************

  NA   - Mulliken gross atomic population
  ZA   - Total nuclear charge
  QA   - Mulliken gross atomic charge
  VA   - Mayer's total valence
  BVA  - Mayer's bonded valence
  FA   - Mayer's free valence

  ATOM       NA         ZA         QA         VA         BVA        FA
  0 Cu    28.6715    29.0000     0.3285     2.0618     1.2301     0.8318
  1 S     16.3285    16.0000    -0.3285     2.7127     1.2301     1.4826

  Mayer bond orders larger than 0.100000
B(  0-Cu,  1-S ) :   1.2301 



------------------------------------------------------------------------------- 
                                     TIMINGS                                   
------------------------------------------------------------------------------- 


Total execution time                   ...      201.730 sec

Fock Matrix Formation                  ...        1.290 sec (  0.6%)
Initial Guess                          ...        0.147 sec (  0.1%)
DIIS Solver                            ...       11.908 sec (  5.9%)
State Vector Update                    ...        0.534 sec (  0.3%)
Sigma-vector construction              ...      144.468 sec ( 71.6%)
  <0|H|D>                              ...        0.029 sec (  0.0% of sigma)
  <D|H|D>(0-ext Fock)                  ...        0.242 sec (  0.2% of sigma)
  <D|H|D>(0-ext)                       ...        1.265 sec (  0.9% of sigma)
  <D|H|D>(2-ext Fock)                  ...        0.076 sec (  0.1% of sigma)
  <D|H|D>(2-ext)                       ...        4.508 sec (  3.1% of sigma)
  <D|H|D>(4-ext)                       ...       72.808 sec ( 50.4% of sigma)
  <S|H|0>                              ...       12.704 sec (  8.8% of sigma)
  <S|H|S>                              ...        0.010 sec (  0.0% of sigma)
  <S|H|D>(1-ext)                       ...        0.052 sec (  0.0% of sigma)
  <D|H|S>(1-ext)                       ...        0.748 sec (  0.5% of sigma)
  Fock-dressing                        ...       23.081 sec ( 16.0% of sigma)
  (ik|jl)-dressing                     ...        1.468 sec (  1.0% of sigma)
  (ij|ab),(ia|jb)-dressing             ...       22.529 sec ( 15.6% of sigma)
  Pair energies                        ...        0.030 sec (  0.0% of sigma)
Total Time for computing (T)           ...       30.329 sec ( 15.0% of ALL)
  I/O of integral and amplitudes       ...        4.485 sec ( 14.8% of (T))
  External N**7 contributions          ...       11.674 sec ( 38.5% of (T))
  Internal N**7 contributions          ...        3.817 sec ( 12.6% of (T))
  N**6 triples energy contributions    ...       10.165 sec ( 33.5% of (T))


-------------------
EXTRAPOLATED ENERGY
-------------------


-----------------------------------------------------------------
                      EP1 - MDCI extrapolation:
-----------------------------------------------------------------
NOTE: We use as reference SCF energy, for the extrapolation, the one from the MDCI module and not the one 
from the SCF calculation. In case the first step is a DFT calculation these two might be different.

NOTE: For the SCF part we extrapolate based on the scheme proposed in J. Chem. Phys. 2008, 129, 184116
using the exponents from J. Chem. Theory Comput., 7, 33-43 (2011)

NOTE: For the correlation part we extrapolate based on the scheme proposed in J. Chem. Phys. 1997, 106, 9639
using the exponents from J. Chem. Theory Comput., 7, 33-43 (2011)


Alpha(3/4)     :  7.880 (SCF Extrapolation)
Beta(3/4)      :  2.970 (correlation extrapolation)

SCF energy with basis def2-TZVPP:                     -2036.470822150
SCF energy with basis def2-QZVPP:                     -2036.523326517
Extrapolated CBS SCF energy (3/4) :                   -2036.530558399 (-0.007231883) 

MDCI energy with basis def2-TZVPP:                       -0.936784435
MDCI energy with basis def2-QZVPP:                       -0.985194831
Extrapolated CBS correlation energy (3/4) :              -1.021054357 (-0.035859526)

Estimated CBS total energy (3/4) :                    -2037.551612756



-------------------------   --------------------
FINAL SINGLE POINT ENERGY     -2037.551612756400
-------------------------   --------------------


                            ***************************************
                            *     ORCA property calculations      *
                            ***************************************

                                    ---------------------
                                    Active property flags
                                    ---------------------
   (+) Dipole Moment


------------------------------------------------------------------------------
                       ORCA ELECTRIC PROPERTIES CALCULATION
------------------------------------------------------------------------------

Dipole Moment Calculation                       ... on
Quadrupole Moment Calculation                   ... off
Polarizability Calculation                      ... off
GBWName                                         ... 54_CuS.gbw
Electron density file                           ... 54_CuS.scfp
The origin for moment calculation is the CENTER OF MASS  = ( 0.000000,  0.000000  1.249323)

-------------
DIPOLE MOMENT
-------------
                                X             Y             Z
Electronic contribution:     -0.00000       0.00000      -5.77301
Nuclear contribution   :      0.00000       0.00000       3.54103
                        -----------------------------------------
Total Dipole Moment    :     -0.00000       0.00000      -2.23198
                        -----------------------------------------
Magnitude (a.u.)       :      2.23198
Magnitude (Debye)      :      5.67325



--------------------
Rotational spectrum 
--------------------
 
Rotational constants in cm-1:     0.000000     0.186806     0.186806 
Rotational constants in MHz :     0.000000  5600.307820  5600.307820 

 Dipole components along the rotational axes: 
x,y,z [a.u.] :    -2.231983     0.000000    -0.000000 
x,y,z [Debye]:    -5.673250     0.000000    -0.000000 

 

                           *** MDCI DENSITY ***

------------------------------------------------------------------------------
                       ORCA ELECTRIC PROPERTIES CALCULATION
------------------------------------------------------------------------------

Dipole Moment Calculation                       ... on
Quadrupole Moment Calculation                   ... off
Polarizability Calculation                      ... off
GBWName                                         ... 54_CuS.gbw
Electron density file                           ... 54_CuS.mdcip
The origin for moment calculation is the CENTER OF MASS  = ( 0.000000,  0.000000  1.249323)

-------------
DIPOLE MOMENT
-------------
                                X             Y             Z
Electronic contribution:     -0.00000       0.00000      -5.31441
Nuclear contribution   :      0.00000       0.00000       3.54103
                        -----------------------------------------
Total Dipole Moment    :     -0.00000       0.00000      -1.77338
                        -----------------------------------------
Magnitude (a.u.)       :      1.77338
Magnitude (Debye)      :      4.50758



--------------------
Rotational spectrum 
--------------------
 
Rotational constants in cm-1:     0.000000     0.186806     0.186806 
Rotational constants in MHz :     0.000000  5600.307820  5600.307820 

 Dipole components along the rotational axes: 
x,y,z [a.u.] :    -1.773382     0.000000    -0.000000 
x,y,z [Debye]:    -4.507578     0.000000    -0.000000 

 

Timings for individual modules:

Sum of individual times         ...      260.935 sec (=   4.349 min)
GTO integral calculation        ...        1.566 sec (=   0.026 min)   0.6 %
SCF iterations                  ...       12.870 sec (=   0.215 min)   4.9 %
MDCI module                     ...      246.499 sec (=   4.108 min)  94.5 %
                             ****ORCA TERMINATED NORMALLY****
TOTAL RUN TIME: 0 days 0 hours 4 minutes 21 seconds 892 msec
