
                                 *****************
                                 * O   R   C   A *
                                 *****************

           --- An Ab Initio, DFT and Semiempirical electronic structure package ---

                  #######################################################
                  #                        -***-                        #
                  #          Department of theory and spectroscopy      #
                  #               Directorship: Frank Neese             #
                  #        Max Planck Institute fuer Kohlenforschung    #
                  #                Kaiser Wilhelm Platz 1               #
                  #                 D-45470 Muelheim/Ruhr               #
                  #                      Germany                        #
                  #                                                     #
                  #                  All rights reserved                #
                  #                        -***-                        #
                  #######################################################


                         Program Version 4.2.0 -  RELEASE  -


 With contributions from (in alphabetic order):
   Daniel Aravena         : Magnetic Suceptibility
   Michael Atanasov       : Ab Initio Ligand Field Theory (pilot matlab implementation)
   Alexander A. Auer      : GIAO ZORA, VPT2
   Ute Becker             : Parallelization
   Giovanni Bistoni       : ED, misc. LED, open-shell LED, HFLED
   Martin Brehm           : Molecular dynamics
   Dmytro Bykov           : SCF Hessian
   Vijay G. Chilkuri      : MRCI spin determinant printing, contributions to CSF-ICE
   Dipayan Datta          : RHF DLPNO-CCSD density
   Achintya Kumar Dutta   : EOM-CC, STEOM-CC
   Dmitry Ganyushin       : Spin-Orbit,Spin-Spin,Magnetic field MRCI
   Miquel Garcia          : C-PCM Hessian, Gaussian charge scheme
   Yang Guo               : DLPNO-NEVPT2, CIM, IAO-localization
   Andreas Hansen         : Spin unrestricted coupled pair/coupled cluster methods
   Benjamin Helmich-Paris : CASSCF linear response (MC-RPA)
   Lee Huntington         : MR-EOM, pCC
   Robert Izsak           : Overlap fitted RIJCOSX, COSX-SCS-MP3, EOM
   Christian Kollmar      : KDIIS, OOCD, Brueckner-CCSD(T), CCSD density
   Simone Kossmann        : Meta GGA functionals, TD-DFT gradient, OOMP2, MP2 Hessian
   Martin Krupicka        : AUTO-CI
   Lucas Lang             : DCDCAS
   Dagmar Lenk            : GEPOL surface, SMD
   Dimitrios Liakos       : Extrapolation schemes; Compound Job, initial MDCI parallelization
   Dimitrios Manganas     : Further ROCIS development; embedding schemes
   Dimitrios Pantazis     : SARC Basis sets
   Taras Petrenko         : DFT Hessian,TD-DFT gradient, ASA, ECA, R-Raman, ABS, FL, XAS/XES, NRVS
   Peter Pinski           : DLPNO-MP2, DLPNO-MP2 Gradient
   Christoph Reimann      : Effective Core Potentials
   Marius Retegan         : Local ZFS, SOC
   Christoph Riplinger    : Optimizer, TS searches, QM/MM, DLPNO-CCSD(T), (RO)-DLPNO pert. Triples
   Tobias Risthaus        : Range-separated hybrids, TD-DFT gradient, RPA, STAB
   Michael Roemelt        : Original ROCIS implementation
   Masaaki Saitow         : Open-shell DLPNO-CCSD energy and density
   Barbara Sandhoefer     : DKH picture change effects
   Avijit Sen             : IP-ROCIS
   Kantharuban Sivalingam : CASSCF convergence, NEVPT2, FIC-MRCI
   Bernardo de Souza      : ESD, SOC TD-DFT
   Georgi Stoychev        : AutoAux, RI-MP2 NMR
   Willem Van den Heuvel  : Paramagnetic NMR
   Boris Wezisla          : Elementary symmetry handling
   Frank Wennmohs         : Technical directorship


 We gratefully acknowledge several colleagues who have allowed us to
 interface, adapt or use parts of their codes:
   Stefan Grimme, W. Hujo, H. Kruse,             : VdW corrections, initial TS optimization,
                  C. Bannwarth                     DFT functionals, gCP, sTDA/sTD-DF
   Ed Valeev, F. Pavosevic, A. Kumar             : LibInt (2-el integral package), F12 methods
   Garnet Chan, S. Sharma, J. Yang, R. Olivares  : DMRG
   Ulf Ekstrom                                   : XCFun DFT Library
   Mihaly Kallay                                 : mrcc  (arbitrary order and MRCC methods)
   Andreas Klamt, Michael Diedenhofen            : otool_cosmo (COSMO solvation model)
   Jiri Pittner, Ondrej Demel                    : Mk-CCSD
   Frank Weinhold                                : gennbo (NPA and NBO analysis)
   Christopher J. Cramer and Donald G. Truhlar   : smd solvation model
   Lars Goerigk                                  : TD-DFT with DH, B97 family of functionals
   V. Asgeirsson, H. Jonsson                     : NEB implementation
   FAccTs GmbH                                   : IRC, NEB, NEB-TS, Multilevel, MM, QM/MM, CI optimization
   S Lehtola, MJT Oliveira, MAL Marques          : LibXC Library


 Your calculation uses the libint2 library for the computation of 2-el integrals
 For citations please refer to: http://libint.valeyev.net

 Your ORCA version has been built with support for libXC version: 4.2.3
 For citations please refer to: https://tddft.org/programs/libxc/

 This ORCA versions uses:
   CBLAS   interface :  Fast vector & matrix operations
   LAPACKE interface :  Fast linear algebra routines
   SCALAPACK package :  Parallel linear algebra routines


----- Orbital basis set information -----
Your calculation utilizes the basis: def2-TZVPP
   F. Weigend and R. Ahlrichs, Phys. Chem. Chem. Phys. 7, 3297 (2005).

================================================================================
                                        WARNINGS
                       Please study these warnings very carefully!
================================================================================


WARNING: your system is open-shell and RHF/RKS was chosen
  ===> : WILL SWITCH to UHF/UKS


WARNING: MDCI localization with Augmented Hessian Foster-Boys
  ===> : Switching off randomization!

WARNING: Post HF methods need fully converged wavefunctions
  ===> : Setting SCFConvForced true
         You can overwrite this default with %scf ConvForced false 


INFO   : the flag for use of LIBINT has been found!

================================================================================
                                       INPUT FILE
================================================================================
NAME = 56_ZnF.in
|  1> #
|  2> # 56_ZnF ccsd(t)/cbs
|  3> #
|  4> ! ccsd(t) extrapolate(3/4,def2) verytightscf
|  5> 
|  6> *xyz 0 2
|  7>   Zn  0.00000000000000      0.00000000000000      0.10305473518103
|  8>   F   0.00000000000000      0.00000000000000      1.89694526481897
|  9> *
| 10> 
| 11> %maxcore 5000
| 12> %pal
| 13> nprocs 24
| 14> end
| 15> 
| 16> 
| 17>                          ****END OF INPUT****
================================================================================

                   *****************************************
                   * Extrapolated Single Point Calculation *
                   *****************************************

----- Orbital basis set information -----
Your calculation utilizes the basis: def2-TZVPP
   F. Weigend and R. Ahlrichs, Phys. Chem. Chem. Phys. 7, 3297 (2005).

----- AuxJ basis set information -----
Your calculation utilizes the auxiliary basis: def2/J
   F. Weigend, Phys. Chem. Chem. Phys. 8, 1057 (2006).

----- AuxC basis set information -----
Your calculation utilizes the auxiliary basis: def2-TZVPP/C
  H-La, Hf-Rn : A. Hellweg, C. Hattig, S. Hofener and W. Klopper, Theor. Chem. Acc. 117, 587 (2007).
        Ce-Lu : J. Chmela and M. E. Harding, Mol. Phys. (2018).

----- AuxJK basis set information -----
Your calculation utilizes the auxiliary basis: def2/JK
   H-Ba, Hf-Rn: F. Weigend, J. Comput. Chem. 29, 167 (2008).

All done

                     -----------------------------------------
                     Extrapolated Energy 1 Basis=  def2-TZVPP
                     -----------------------------------------

---------------------------------
CARTESIAN COORDINATES (ANGSTROEM)
---------------------------------
  Zn     0.000000    0.000000    0.103055
  F      0.000000    0.000000    1.896945

----------------------------
CARTESIAN COORDINATES (A.U.)
----------------------------
  NO LB      ZA    FRAG     MASS         X           Y           Z
   0 Zn   30.0000    0    65.380    0.000000    0.000000    0.194745
   1 F     9.0000    0    18.998    0.000000    0.000000    3.584707

--------------------------------
INTERNAL COORDINATES (ANGSTROEM)
--------------------------------
 Zn     0   0   0     0.000000000000     0.00000000     0.00000000
 F      1   0   0     1.793890529638     0.00000000     0.00000000

---------------------------
INTERNAL COORDINATES (A.U.)
---------------------------
 Zn     0   0   0     0.000000000000     0.00000000     0.00000000
 F      1   0   0     3.389961815251     0.00000000     0.00000000

---------------------
BASIS SET INFORMATION
---------------------
There are 2 groups of distinct atoms

 Group   1 Type Zn  : 17s12p7d2f1g contracted to 6s5p4d2f1g pattern {842111/63111/4111/11/1}
 Group   2 Type F   : 11s6p2d1f contracted to 5s3p2d1f pattern {62111/411/11/1}

Atom   0Zn   basis set group =>   1
Atom   1F    basis set group =>   2
---------------------------------
AUXILIARY/J BASIS SET INFORMATION
---------------------------------
There are 2 groups of distinct atoms

 Group   1 Type Zn  : 19s5p5d3f3g contracted to 8s5p5d2f3g pattern {121111111/11111/11111/21/111}
 Group   2 Type F   : 12s5p4d2f1g contracted to 6s4p3d1f1g pattern {711111/2111/211/2/1}

Atom   0Zn   basis set group =>   1
Atom   1F    basis set group =>   2
---------------------------------
AUXILIARY/C BASIS SET INFORMATION
---------------------------------
There are 2 groups of distinct atoms

 Group   1 Type Zn  : 9s10p8d7f5g3h1i contracted to 9s10p8d7f5g3h1i pattern {111111111/1111111111/11111111/1111111/11111/111/1}
 Group   2 Type F   : 8s6p5d3f1g contracted to 8s6p4d3f1g pattern {11111111/111111/2111/111/1}

Atom   0Zn   basis set group =>   1
Atom   1F    basis set group =>   2
----------------------------------
AUXILIARY/JK BASIS SET INFORMATION
----------------------------------
There are 2 groups of distinct atoms

 Group   1 Type Zn  : 19s14p12d10f7g3h1i contracted to 16s13p11d9f5g3h1i pattern {4111111111111111/2111111111111/21111111111/211111111/31111/111/1}
 Group   2 Type F   : 14s10p6d2f1g contracted to 10s8p4d2f1g pattern {5111111111/31111111/3111/11/1}

Atom   0Zn   basis set group =>   1
Atom   1F    basis set group =>   2


           ************************************************************
           *        Program running with 24 parallel MPI-processes    *
           *              working on a common directory               *
           ************************************************************
------------------------------------------------------------------------------
                           ORCA GTO INTEGRAL CALCULATION
------------------------------------------------------------------------------

                         BASIS SET STATISTICS AND STARTUP INFO

 # of primitive gaussian shells          ...   59
 # of primitive gaussian functions       ...  157
 # of contracted shells                  ...   29
 # of contracted basis functions         ...   95
 Highest angular momentum                ...    4
 Maximum contraction depth               ...    8
 Integral package used                   ... LIBINT
 Integral threshhold            Thresh   ...  1.000e-12
 Primitive cut-off              TCut     ...  1.000e-14


------------------------------ INTEGRAL EVALUATION ----------------------------


 * One electron integrals 
 Pre-screening matrix                    ... done
 Shell pair data                         ... done (   0.000 sec)



           ************************************************************
           *        Program running with 24 parallel MPI-processes    *
           *              working on a common directory               *
           ************************************************************
-------------------------------------------------------------------------------
                                 ORCA SCF
-------------------------------------------------------------------------------

------------
SCF SETTINGS
------------
Hamiltonian:
 Ab initio Hamiltonian  Method          .... Hartree-Fock(GTOs)


General Settings:
 Integral files         IntName         .... 56_ZnF
 Hartree-Fock type      HFTyp           .... UHF
 Total Charge           Charge          ....    0
 Multiplicity           Mult            ....    2
 Number of Electrons    NEL             ....   39
 Basis Dimension        Dim             ....   95
 Nuclear Repulsion      ENuc            ....     79.6469148370 Eh

Convergence Acceleration:
 DIIS                   CNVDIIS         .... on
   Start iteration      DIISMaxIt       ....    12
   Startup error        DIISStart       ....  0.200000
   # of expansion vecs  DIISMaxEq       ....     5
   Bias factor          DIISBfac        ....   1.050
   Max. coefficient     DIISMaxC        ....  10.000
 Newton-Raphson         CNVNR           .... off
 SOSCF                  CNVSOSCF        .... off
 Level Shifting         CNVShift        .... on
   Level shift para.    LevelShift      ....    0.2500
   Turn off err/grad.   ShiftErr        ....    0.0010
 Zerner damping         CNVZerner       .... off
 Static damping         CNVDamp         .... on
   Fraction old density DampFac         ....    0.7000
   Max. Damping (<1)    DampMax         ....    0.9800
   Min. Damping (>=0)   DampMin         ....    0.0000
   Turn off err/grad.   DampErr         ....    0.1000
 Fernandez-Rico         CNVRico         .... off

SCF Procedure:
 Maximum # iterations   MaxIter         ....   125
 SCF integral mode      SCFMode         .... Direct
   Integral package                     .... LIBINT
 Reset frequency        DirectResetFreq ....    20
 Integral Threshold     Thresh          ....  1.000e-12 Eh
 Primitive CutOff       TCut            ....  1.000e-14 Eh

Convergence Tolerance:
 Convergence Check Mode ConvCheckMode   .... Total+1el-Energy
 Convergence forced     ConvForced      .... 1
 Energy Change          TolE            ....  1.000e-09 Eh
 1-El. energy change                    ....  1.000e-06 Eh
 DIIS Error             TolErr          ....  1.000e-08


Diagonalization of the overlap matrix:
Smallest eigenvalue                        ... 9.330e-03
Time for diagonalization                   ...    0.003 sec
Threshold for overlap eigenvalues          ... 1.000e-08
Number of eigenvalues below threshold      ... 0
Time for construction of square roots      ...    0.001 sec
Total time needed                          ...    0.005 sec

-------------------
DFT GRID GENERATION
-------------------

General Integration Accuracy     IntAcc      ...  4.340
Radial Grid Type                 RadialGrid  ... Gauss-Chebyshev
Angular Grid (max. acc.)         AngularGrid ... Lebedev-110
Angular grid pruning method      GridPruning ... 3 (G Style)
Weight generation scheme         WeightScheme... Becke
Basis function cutoff            BFCut       ...    1.0000e-12
Integration weight cutoff        WCut        ...    1.0000e-14
Grids for H and He will be reduced by one unit

# of grid points (after initial pruning)     ...   4652 (   0.0 sec)
# of grid points (after weights+screening)   ...   4627 (   0.0 sec)
nearest neighbour list constructed           ...    0.0 sec
Grid point re-assignment to atoms done       ...    0.0 sec
Grid point division into batches done        ...    0.0 sec
Reduced shell lists constructed in    0.0 sec

Total number of grid points                  ...     4627
Total number of batches                      ...       74
Average number of points per batch           ...       62
Average number of grid points per atom       ...     2314
Average number of shells per batch           ...     6.40 (22.07%)
Average number of basis functions per batch  ...    17.60 (18.53%)
Average number of large shells per batch     ...     6.00 (93.75%)
Average number of large basis fcns per batch ...    15.60 (88.64%)
Maximum spatial batch extension              ...  17.39, 26.34, 14.81 au
Average spatial batch extension              ...   0.91,  1.20,  0.80 au

Time for grid setup =    0.022 sec

------------------------------
INITIAL GUESS: MODEL POTENTIAL
------------------------------
Loading Hartree-Fock densities                     ... done
Calculating cut-offs                               ... done
Setting up the integral package                    ... done
Initializing the effective Hamiltonian             ... done
Starting the Coulomb interaction                   ... done (   0.0 sec)
Reading the grid                                   ... done
Mapping shells                                     ... done
Starting the XC term evaluation                    ... done (   0.0 sec)
Transforming the Hamiltonian                       ... done (   0.0 sec)
Diagonalizing the Hamiltonian                      ... done (   0.0 sec)
Back transforming the eigenvectors                 ... done (   0.0 sec)
Now organizing SCF variables                       ... done
                      ------------------
                      INITIAL GUESS DONE (   0.1 sec)
                      ------------------
--------------
SCF ITERATIONS
--------------
ITER       Energy         Delta-E        Max-DP      RMS-DP      [F,P]     Damp
               ***  Starting incremental Fock matrix formation  ***
  0  -1877.0943064670   0.000000000000 0.01918981  0.00083654  0.3713247 0.7000
  1  -1877.1713045942  -0.076998127188 0.01584173  0.00053100  0.2495479 0.7000
                               ***Turning on DIIS***
  2  -1877.2099497833  -0.038645189117 0.01319851  0.00033109  0.1859411 0.7000
  3  -1876.7859874431   0.423962340227 0.01571502  0.00027382  0.1361144 0.7000
  4  -1876.9807096855  -0.194722242354 0.06262381  0.00083662  0.0959565 0.0000
  5  -1877.2528243645  -0.272114679028 0.02042880  0.00021091  0.0077504 0.0000
  6  -1877.2992561265  -0.046431762043 0.01210753  0.00012739  0.0042587 0.0000
  7  -1877.3107554688  -0.011499342276 0.00942583  0.00010623  0.0027075 0.0000
  8  -1877.3029681184   0.007787350449 0.00301330  0.00004090  0.0013486 0.0000
  9  -1877.2988205702   0.004147548160 0.00166583  0.00003178  0.0007052 0.0000
 10  -1877.2984637688   0.000356801436 0.00038094  0.00000787  0.0001821 0.0000
 11  -1877.2957629016   0.002700867195 0.00010151  0.00000325  0.0000644 0.0000
 12  -1877.2961052058  -0.000342304199 0.00007225  0.00000210  0.0000418 0.0000
 13  -1877.2958609924   0.000244213349 0.00002881  0.00000085  0.0000200 0.0000
 14  -1877.2959220976  -0.000061105226 0.00002775  0.00000073  0.0000162 0.0000
 15  -1877.2958894955   0.000032602086 0.00001505  0.00000038  0.0000065 0.0000
 16  -1877.2958925605  -0.000003064908 0.00000595  0.00000014  0.0000022 0.0000
 17  -1877.2958871461   0.000005414362 0.00000164  0.00000003  0.0000012 0.0000
 18  -1877.2959027597  -0.000015613593 0.00000116  0.00000003  0.0000005 0.0000
 19  -1877.2958970808   0.000005678842 0.00000043  0.00000001  0.0000002 0.0000
               *** Restarting incremental Fock matrix formation ***
                                   *** Resetting DIIS ***
 20  -1877.2958974093  -0.000000328452 0.00000011  0.00000000  0.0000001 0.0000
 21  -1877.2958973831   0.000000026201 0.00000007  0.00000000  0.0000001 0.0000
 22  -1877.2958977441  -0.000000361000 0.00000010  0.00000000  0.0000001 0.0000
 23  -1877.2958973690   0.000000375091 0.00000005  0.00000000  0.0000000 0.0000
                            ***DIIS convergence achieved***

               *****************************************************
               *                     SUCCESS                       *
               *           SCF CONVERGED AFTER  24 CYCLES          *
               *****************************************************


----------------
TOTAL SCF ENERGY
----------------

Total Energy       :        -1877.29589745 Eh          -51083.81842 eV

Components:
Nuclear Repulsion  :           79.64691484 Eh            2167.30274 eV
Electronic Energy  :        -1956.94281229 Eh          -53251.12116 eV
One Electron Energy:        -2782.45091648 Eh          -75714.33868 eV
Two Electron Energy:          825.50810419 Eh           22463.21752 eV

Virial components:
Potential Energy   :        -3754.52855169 Eh         -102165.91591 eV
Kinetic Energy     :         1877.23265424 Eh           51082.09749 eV
Virial Ratio       :            2.00003369


---------------
SCF CONVERGENCE
---------------

  Last Energy change         ...   -8.4541e-08  Tolerance :   1.0000e-09
  Last MAX-Density change    ...    2.9651e-08  Tolerance :   1.0000e-08
  Last RMS-Density change    ...    6.7974e-10  Tolerance :   1.0000e-09
  Last DIIS Error            ...    1.1969e-08  Tolerance :   1.0000e-08

             **** THE GBW FILE WAS UPDATED (56_ZnF.gbw) ****
             **** DENSITY FILE WAS UPDATED (56_ZnF.scfp) ****
             **** ENERGY FILE WAS UPDATED (56_ZnF.en.tmp) ****
----------------------
UHF SPIN CONTAMINATION
----------------------

Expectation value of <S**2>     :     0.752911
Ideal value S*(S+1) for S=0.5   :     0.750000
Deviation                       :     0.002911

             **** THE GBW FILE WAS UPDATED (56_ZnF.gbw) ****
             **** DENSITY FILE WAS UPDATED (56_ZnF.scfp) ****
----------------
ORBITAL ENERGIES
----------------
                 SPIN UP ORBITALS
  NO   OCC          E(Eh)            E(eV) 
   0   1.0000    -353.354961     -9615.2773 
   1   1.0000     -44.410889     -1208.4817 
   2   1.0000     -38.975413     -1060.5749 
   3   1.0000     -38.975413     -1060.5749 
   4   1.0000     -38.972651     -1060.4997 
   5   1.0000     -26.188234      -712.6181 
   6   1.0000      -5.692161      -154.8916 
   7   1.0000      -3.896430      -106.0273 
   8   1.0000      -3.896430      -106.0273 
   9   1.0000      -3.892197      -105.9121 
  10   1.0000      -1.461282       -39.7635 
  11   1.0000      -0.840696       -22.8765 
  12   1.0000      -0.840696       -22.8765 
  13   1.0000      -0.840316       -22.8662 
  14   1.0000      -0.838254       -22.8100 
  15   1.0000      -0.838254       -22.8100 
  16   1.0000      -0.578027       -15.7289 
  17   1.0000      -0.543650       -14.7935 
  18   1.0000      -0.543650       -14.7935 
  19   1.0000      -0.332584        -9.0501 
  20   0.0000       0.040526         1.1028 
  21   0.0000       0.040526         1.1028 
  22   0.0000       0.107977         2.9382 
  23   0.0000       0.208829         5.6825 
  24   0.0000       0.287134         7.8133 
  25   0.0000       0.287134         7.8133 
  26   0.0000       0.325031         8.8445 
  27   0.0000       0.325031         8.8445 
  28   0.0000       0.333978         9.0880 
  29   0.0000       0.381399        10.3784 
  30   0.0000       0.381399        10.3784 
  31   0.0000       0.502254        13.6670 
  32   0.0000       0.856260        23.3000 
  33   0.0000       0.895482        24.3673 
  34   0.0000       0.895482        24.3673 
  35   0.0000       1.214932        33.0600 
  36   0.0000       1.373600        37.3776 
  37   0.0000       1.373600        37.3776 
  38   0.0000       1.383381        37.6437 
  39   0.0000       1.383381        37.6437 
  40   0.0000       1.532463        41.7004 
  41   0.0000       2.349087        63.9219 
  42   0.0000       2.349087        63.9219 
  43   0.0000       2.406569        65.4861 
  44   0.0000       2.452197        66.7277 
  45   0.0000       2.452197        66.7277 
  46   0.0000       2.710918        73.7678 
  47   0.0000       2.710918        73.7678 
  48   0.0000       3.065145        83.4068 
  49   0.0000       3.697887       100.6246 
  50   0.0000       3.783282       102.9483 
  51   0.0000       3.783282       102.9483 
  52   0.0000       3.983495       108.3964 
  53   0.0000       4.225702       114.9872 
  54   0.0000       4.225702       114.9872 
  55   0.0000       4.233812       115.2079 
  56   0.0000       4.233812       115.2079 
  57   0.0000       4.275284       116.3364 
  58   0.0000       4.275284       116.3364 
  59   0.0000       4.384137       119.2984 
  60   0.0000       4.677127       127.2711 
  61   0.0000       5.329017       145.0099 
  62   0.0000       5.329017       145.0099 
  63   0.0000       5.375456       146.2736 
  64   0.0000       5.375456       146.2736 
  65   0.0000       5.508075       149.8823 
  66   0.0000       7.477279       203.4671 
  67   0.0000       7.477279       203.4671 
  68   0.0000       7.491202       203.8460 
  69   0.0000       7.491202       203.8460 
  70   0.0000       7.501612       204.1293 
  71   0.0000       7.501612       204.1293 
  72   0.0000       7.512664       204.4300 
  73   0.0000       8.962529       243.8828 
  74   0.0000       8.962529       243.8828 
  75   0.0000       9.039511       245.9776 
  76   0.0000       9.039511       245.9776 
  77   0.0000       9.331231       253.9157 
  78   0.0000      14.993233       407.9866 
  79   0.0000      14.993233       407.9866 
  80   0.0000      14.997919       408.1141 
  81   0.0000      14.997919       408.1141 
  82   0.0000      15.001143       408.2019 
  83   0.0000      15.001143       408.2019 
  84   0.0000      15.003893       408.2767 
  85   0.0000      15.003893       408.2767 
  86   0.0000      15.009948       408.4415 
  87   0.0000      15.847690       431.2376 
  88   0.0000      15.847690       431.2376 
  89   0.0000      15.853762       431.4028 
  90   0.0000      15.853762       431.4028 
  91   0.0000      15.871097       431.8745 
  92   0.0000      15.871097       431.8745 
  93   0.0000      15.970914       434.5907 
  94   0.0000      58.582392      1594.1079 

                 SPIN DOWN ORBITALS
  NO   OCC          E(Eh)            E(eV) 
   0   1.0000    -353.352688     -9615.2155 
   1   1.0000     -44.409788     -1208.4518 
   2   1.0000     -38.976436     -1060.6027 
   3   1.0000     -38.976436     -1060.6027 
   4   1.0000     -38.972375     -1060.4922 
   5   1.0000     -26.184685      -712.5215 
   6   1.0000      -5.686754      -154.7444 
   7   1.0000      -3.895840      -106.0112 
   8   1.0000      -3.895840      -106.0112 
   9   1.0000      -3.892704      -105.9259 
  10   1.0000      -1.450240       -39.4630 
  11   1.0000      -0.840218       -22.8635 
  12   1.0000      -0.840218       -22.8635 
  13   1.0000      -0.839278       -22.8379 
  14   1.0000      -0.839278       -22.8379 
  15   1.0000      -0.837202       -22.7814 
  16   1.0000      -0.548614       -14.9285 
  17   1.0000      -0.541963       -14.7476 
  18   1.0000      -0.541963       -14.7476 
  19   0.0000      -0.004411        -0.1200 
  20   0.0000       0.075784         2.0622 
  21   0.0000       0.075784         2.0622 
  22   0.0000       0.128143         3.4869 
  23   0.0000       0.267345         7.2748 
  24   0.0000       0.327790         8.9196 
  25   0.0000       0.327790         8.9196 
  26   0.0000       0.342484         9.3195 
  27   0.0000       0.342484         9.3195 
  28   0.0000       0.374370        10.1871 
  29   0.0000       0.398726        10.8499 
  30   0.0000       0.398726        10.8499 
  31   0.0000       0.522126        14.2078 
  32   0.0000       0.863792        23.5050 
  33   0.0000       0.898363        24.4457 
  34   0.0000       0.898363        24.4457 
  35   0.0000       1.219499        33.1843 
  36   0.0000       1.391818        37.8733 
  37   0.0000       1.391818        37.8733 
  38   0.0000       1.400449        38.1082 
  39   0.0000       1.400449        38.1082 
  40   0.0000       1.553566        42.2747 
  41   0.0000       2.348999        63.9195 
  42   0.0000       2.348999        63.9195 
  43   0.0000       2.427030        66.0429 
  44   0.0000       2.457977        66.8850 
  45   0.0000       2.457977        66.8850 
  46   0.0000       2.723101        74.0993 
  47   0.0000       2.723101        74.0993 
  48   0.0000       3.074839        83.6706 
  49   0.0000       3.710376       100.9645 
  50   0.0000       3.784711       102.9872 
  51   0.0000       3.784711       102.9872 
  52   0.0000       3.997469       108.7766 
  53   0.0000       4.229982       115.1037 
  54   0.0000       4.229982       115.1037 
  55   0.0000       4.239327       115.3580 
  56   0.0000       4.239327       115.3580 
  57   0.0000       4.281155       116.4961 
  58   0.0000       4.281155       116.4961 
  59   0.0000       4.389092       119.4333 
  60   0.0000       4.682592       127.4198 
  61   0.0000       5.331663       145.0819 
  62   0.0000       5.331663       145.0819 
  63   0.0000       5.378224       146.3489 
  64   0.0000       5.378224       146.3489 
  65   0.0000       5.513187       150.0214 
  66   0.0000       7.479729       203.5338 
  67   0.0000       7.479729       203.5338 
  68   0.0000       7.491354       203.8501 
  69   0.0000       7.491354       203.8501 
  70   0.0000       7.505587       204.2374 
  71   0.0000       7.505587       204.2374 
  72   0.0000       7.517269       204.5553 
  73   0.0000       8.963643       243.9131 
  74   0.0000       8.963643       243.9131 
  75   0.0000       9.046941       246.1798 
  76   0.0000       9.046941       246.1798 
  77   0.0000       9.340133       254.1579 
  78   0.0000      14.992645       407.9706 
  79   0.0000      14.992645       407.9706 
  80   0.0000      14.997078       408.0912 
  81   0.0000      14.997078       408.0912 
  82   0.0000      15.000324       408.1796 
  83   0.0000      15.000324       408.1796 
  84   0.0000      15.003167       408.2569 
  85   0.0000      15.003167       408.2569 
  86   0.0000      15.009315       408.4242 
  87   0.0000      15.848029       431.2468 
  88   0.0000      15.848029       431.2468 
  89   0.0000      15.852543       431.3696 
  90   0.0000      15.852543       431.3696 
  91   0.0000      15.869640       431.8348 
  92   0.0000      15.869640       431.8348 
  93   0.0000      15.969407       434.5497 
  94   0.0000      58.584579      1594.1674 

                    ********************************
                    * MULLIKEN POPULATION ANALYSIS *
                    ********************************

--------------------------------------------
MULLIKEN ATOMIC CHARGES AND SPIN POPULATIONS
--------------------------------------------
   0 Zn:    0.667322    0.968191
   1 F :   -0.667322    0.031809
Sum of atomic charges         :   -0.0000000
Sum of atomic spin populations:    1.0000000

-----------------------------------------------------
MULLIKEN REDUCED ORBITAL CHARGES AND SPIN POPULATIONS
-----------------------------------------------------
CHARGE
  0 Zns       :     6.949940  s :     6.949940
      pz      :     4.274478  p :    12.343657
      px      :     4.034589
      py      :     4.034589
      dz2     :     2.002848  d :    10.038213
      dxz     :     2.017697
      dyz     :     2.017697
      dx2y2   :     1.999986
      dxy     :     1.999986
      f0      :     0.000521  f :     0.000864
      f+1     :     0.000171
      f-1     :     0.000171
      f+2     :     0.000001
      f-2     :     0.000001
      f+3     :     0.000000
      f-3     :     0.000000
      g0      :     0.000002  g :     0.000004
      g+1     :     0.000001
      g-1     :     0.000001
      g+2     :     0.000000
      g-2     :     0.000000
      g+3     :     0.000000
      g-3     :     0.000000
      g+4     :     0.000000
      g-4     :     0.000000
  1 F s       :     3.963324  s :     3.963324
      pz      :     1.806611  p :     5.699612
      px      :     1.946500
      py      :     1.946500
      dz2     :     0.002210  d :     0.004280
      dxz     :     0.001023
      dyz     :     0.001023
      dx2y2   :     0.000012
      dxy     :     0.000012
      f0      :     0.000066  f :     0.000106
      f+1     :     0.000019
      f-1     :     0.000019
      f+2     :     0.000001
      f-2     :     0.000001
      f+3     :     0.000000
      f-3     :     0.000000

SPIN
  0 Zns       :     0.775630  s :     0.775630
      pz      :     0.184798  p :     0.193028
      px      :     0.004115
      py      :     0.004115
      dz2     :     0.002186  d :    -0.000499
      dxz     :    -0.001343
      dyz     :    -0.001343
      dx2y2   :    -0.000000
      dxy     :    -0.000000
      f0      :     0.000025  f :     0.000032
      f+1     :     0.000002
      f-1     :     0.000002
      f+2     :     0.000001
      f-2     :     0.000001
      f+3     :    -0.000000
      f-3     :     0.000000
      g0      :     0.000000  g :     0.000000
      g+1     :    -0.000000
      g-1     :    -0.000000
      g+2     :     0.000000
      g-2     :     0.000000
      g+3     :    -0.000000
      g-3     :    -0.000000
      g+4     :    -0.000000
      g-4     :     0.000000
  1 F s       :    -0.000056  s :    -0.000056
      pz      :     0.037690  p :     0.032128
      px      :    -0.002781
      py      :    -0.002781
      dz2     :    -0.000271  d :    -0.000263
      dxz     :     0.000005
      dyz     :     0.000005
      dx2y2   :    -0.000001
      dxy     :    -0.000001
      f0      :    -0.000003  f :    -0.000000
      f+1     :     0.000001
      f-1     :     0.000001
      f+2     :    -0.000000
      f-2     :    -0.000000
      f+3     :    -0.000000
      f-3     :    -0.000000


                     *******************************
                     * LOEWDIN POPULATION ANALYSIS *
                     *******************************

-------------------------------------------
LOEWDIN ATOMIC CHARGES AND SPIN POPULATIONS
-------------------------------------------
   0 Zn:    0.456912    0.958551
   1 F :   -0.456912    0.041449

----------------------------------------------------
LOEWDIN REDUCED ORBITAL CHARGES AND SPIN POPULATIONS
----------------------------------------------------
CHARGE
  0 Zns       :     6.909554  s :     6.909554
      pz      :     4.358238  p :    12.451246
      px      :     4.046504
      py      :     4.046504
      dz2     :     2.083993  d :    10.180843
      dxz     :     2.048453
      dyz     :     2.048453
      dx2y2   :     1.999972
      dxy     :     1.999972
      f0      :     0.000920  f :     0.001438
      f+1     :     0.000258
      f-1     :     0.000258
      f+2     :     0.000001
      f-2     :     0.000001
      f+3     :     0.000000
      f-3     :     0.000000
      g0      :     0.000004  g :     0.000007
      g+1     :     0.000001
      g-1     :     0.000001
      g+2     :     0.000000
      g-2     :     0.000000
      g+3     :     0.000000
      g-3     :     0.000000
      g+4     :     0.000000
      g-4     :     0.000000
  1 F s       :     3.803755  s :     3.803755
      pz      :     1.838976  p :     5.645697
      px      :     1.903361
      py      :     1.903361
      dz2     :     0.004423  d :     0.007203
      dxz     :     0.001366
      dyz     :     0.001366
      dx2y2   :     0.000023
      dxy     :     0.000023
      f0      :     0.000137  f :     0.000257
      f+1     :     0.000057
      f-1     :     0.000057
      f+2     :     0.000003
      f-2     :     0.000003
      f+3     :     0.000000
      f-3     :     0.000000

SPIN
  0 Zns       :     0.737296  s :     0.737296
      pz      :     0.213236  p :     0.221042
      px      :     0.003903
      py      :     0.003903
      dz2     :     0.003452  d :     0.000123
      dxz     :    -0.001663
      dyz     :    -0.001663
      dx2y2   :    -0.000002
      dxy     :    -0.000002
      f0      :     0.000085  f :     0.000091
      f+1     :     0.000002
      f-1     :     0.000002
      f+2     :     0.000001
      f-2     :     0.000001
      f+3     :    -0.000000
      f-3     :     0.000000
      g0      :     0.000000  g :     0.000000
      g+1     :    -0.000000
      g-1     :    -0.000000
      g+2     :     0.000000
      g-2     :     0.000000
      g+3     :    -0.000000
      g-3     :    -0.000000
      g+4     :    -0.000000
      g-4     :     0.000000
  1 F s       :     0.005566  s :     0.005566
      pz      :     0.040259  p :     0.035740
      px      :    -0.002259
      py      :    -0.002259
      dz2     :     0.000102  d :     0.000135
      dxz     :     0.000015
      dyz     :     0.000015
      dx2y2   :     0.000001
      dxy     :     0.000001
      f0      :     0.000005  f :     0.000008
      f+1     :     0.000002
      f-1     :     0.000002
      f+2     :     0.000000
      f-2     :     0.000000
      f+3     :    -0.000000
      f-3     :    -0.000000


                      *****************************
                      * MAYER POPULATION ANALYSIS *
                      *****************************

  NA   - Mulliken gross atomic population
  ZA   - Total nuclear charge
  QA   - Mulliken gross atomic charge
  VA   - Mayer's total valence
  BVA  - Mayer's bonded valence
  FA   - Mayer's free valence

  ATOM       NA         ZA         QA         VA         BVA        FA
  0 Zn    29.3327    30.0000     0.6673     1.5415     0.5789     0.9626
  1 F      9.6673     9.0000    -0.6673     0.5817     0.5789     0.0028

  Mayer bond orders larger than 0.100000
B(  0-Zn,  1-F ) :   0.5789 

-------
TIMINGS
-------

Total SCF time: 0 days 0 hours 0 min 3 sec 

Total time                  ....       3.460 sec
Sum of individual times     ....       3.244 sec  ( 93.7%)

Fock matrix formation       ....       3.010 sec  ( 87.0%)
Diagonalization             ....       0.056 sec  (  1.6%)
Density matrix formation    ....       0.010 sec  (  0.3%)
Population analysis         ....       0.005 sec  (  0.1%)
Initial guess               ....       0.110 sec  (  3.2%)
Orbital Transformation      ....       0.000 sec  (  0.0%)
Orbital Orthonormalization  ....       0.000 sec  (  0.0%)
DIIS solution               ....       0.030 sec  (  0.9%)


           ************************************************************
           *        Program running with 24 parallel MPI-processes    *
           *              working on a common directory               *
           ************************************************************


------------------------------------------------------------------------------- 
                              ORCA-MATRIX DRIVEN CI                            
------------------------------------------------------------------------------- 

--------------------------------
AUTOMATIC CHOICE OF INCORE LEVEL
--------------------------------

Memory available                           ...   2500.00 MB
Memory needed for S+T                      ...     13.52 MB
Memory needed for J+K                      ...     27.16 MB
Memory needed for DIIS                     ...    189.26 MB
Memory needed for 3-ext                    ...     45.06 MB
Memory needed for 4-ext                    ...    122.31 MB
Memory needed for triples                  ...     16.09 MB
 -> Final InCoreLevel    ... 5
 -> check shows that triples correction can be computed


Wavefunction type
-----------------
Correlation treatment                      ...      CCSD     
Single excitations                         ... ON
Orbital optimization                       ... OFF
Calculation of Z vector                    ... OFF
Calculation of Brueckner orbitals          ... OFF
Perturbative triple excitations            ... ON
Calculation of F12 correction              ... OFF
Frozen core treatment                      ... chemical core (12 el)
Reference Wavefunction                     ... UHF
  Alpha-MOs occ    :     6 ...   19 ( 14 MO's/ 14 electrons)
  Beta-MOs occ     :     6 ...   18 ( 13 MO's/ 13 electrons)
  Alpha-MOs virt   :    20 ...   94 ( 75 MO's              )
  Beta-MOs virt    :    19 ...   94 ( 76 MO's              )
Number of AO's                             ...     95
Number of electrons                        ...     39
Number of correlated electrons             ...     27

Algorithmic settings
--------------------
Integral transformation                    ... AO direct full transformation
K(C) Formation                             ... FULL-MO TRAFO
Maximum number of iterations               ...        50
Convergence tolerance (max. residuum)      ... 1.000e-06
Level shift for amplitude update           ... 2.000e-01
Maximum number of DIIS vectors             ...         7
DIIS turned on at iteration                ...         0
Damping before turning on DIIS             ...     0.500
Damping after turning on DIIS              ...     0.000
Pair specific amplitude update             ... OFF
Natural orbital iterations                 ... OFF
Perturbative natural orbital generation    ... OFF
Printlevel                                 ... 2

Memory handling:
----------------
Maximum memory for working arrays          ...   2500 MB
Data storage in matrix containers          ... UNCOMPRESSED
Data type for integral storage             ... DOUBLE
In-Core Storage of quantities:
   Amplitudes+Sigma Vector      ... YES
   J+K operators                ... YES
   DIIS vectors                 ... YES
   3-external integrals         ... YES
   4-external integrals         ... YES


Initializing the integral package          ... done
Warning: reference  - re-canonicalizations have been set to INT 1 VIRT 1

--------------------------
UNRESTRICTED FOCK OPERATOR
--------------------------

<ss|ss>:         1953 b           80 skpd (  4.1%)    0.001 s ( 0.000 ms/b)
<ss|sp>:         5332 b          171 skpd (  3.2%)    0.001 s ( 0.000 ms/b)
<ss|sd>:         3968 b          144 skpd (  3.6%)    0.001 s ( 0.000 ms/b)
<ss|sf>:         1922 b           60 skpd (  3.1%)    0.000 s ( 0.000 ms/b)
<ss|sg>:          620 b           29 skpd (  4.7%)    0.000 s ( 0.001 ms/b)
<ss|pp>:         2232 b           54 skpd (  2.4%)    0.001 s ( 0.001 ms/b)
<ss|pd>:         2976 b          112 skpd (  3.8%)    0.001 s ( 0.000 ms/b)
<ss|pf>:         1488 b           54 skpd (  3.6%)    0.000 s ( 0.000 ms/b)
<ss|pg>:          496 b           19 skpd (  3.8%)    0.001 s ( 0.001 ms/b)
<ss|dd>:         1302 b           39 skpd (  3.0%)    0.001 s ( 0.001 ms/b)
<ss|df>:         1116 b           49 skpd (  4.4%)    0.000 s ( 0.000 ms/b)
<ss|dg>:          372 b           17 skpd (  4.6%)    0.001 s ( 0.002 ms/b)
<ss|ff>:          372 b           12 skpd (  3.2%)    0.000 s ( 0.001 ms/b)
<ss|fg>:          186 b            7 skpd (  3.8%)    0.000 s ( 0.002 ms/b)
<ss|gg>:           62 b            1 skpd (  1.6%)    0.001 s ( 0.009 ms/b)
<sp|sp>:         3741 b           92 skpd (  2.5%)    0.001 s ( 0.000 ms/b)
<sp|sd>:         5504 b          234 skpd (  4.3%)    0.002 s ( 0.000 ms/b)
<sp|sf>:         2666 b           78 skpd (  2.9%)    0.001 s ( 0.000 ms/b)
<sp|sg>:          860 b           54 skpd (  6.3%)    0.001 s ( 0.001 ms/b)
<sp|pp>:         3096 b           27 skpd (  0.9%)    0.002 s ( 0.001 ms/b)
<sp|pd>:         4128 b          115 skpd (  2.8%)    0.003 s ( 0.001 ms/b)
<sp|pf>:         2064 b           38 skpd (  1.8%)    0.001 s ( 0.001 ms/b)
<sp|pg>:          688 b           13 skpd (  1.9%)    0.001 s ( 0.002 ms/b)
<sp|dd>:         1806 b           29 skpd (  1.6%)    0.003 s ( 0.001 ms/b)
<sp|df>:         1548 b           47 skpd (  3.0%)    0.001 s ( 0.001 ms/b)
<sp|dg>:          516 b           14 skpd (  2.7%)    0.002 s ( 0.004 ms/b)
<sp|ff>:          516 b           11 skpd (  2.1%)    0.001 s ( 0.002 ms/b)
<sp|fg>:          258 b            8 skpd (  3.1%)    0.001 s ( 0.005 ms/b)
<sp|gg>:           86 b            1 skpd (  1.2%)    0.002 s ( 0.019 ms/b)
<sd|sd>:         2080 b           91 skpd (  4.4%)    0.001 s ( 0.001 ms/b)
<sd|sf>:         1984 b           79 skpd (  4.0%)    0.001 s ( 0.000 ms/b)
<sd|sg>:          640 b           50 skpd (  7.8%)    0.001 s ( 0.002 ms/b)
<sd|pp>:         2304 b           51 skpd (  2.2%)    0.002 s ( 0.001 ms/b)
<sd|pd>:         3072 b          143 skpd (  4.7%)    0.003 s ( 0.001 ms/b)
<sd|pf>:         1536 b           58 skpd (  3.8%)    0.001 s ( 0.001 ms/b)
<sd|pg>:          512 b           16 skpd (  3.1%)    0.002 s ( 0.004 ms/b)
<sd|dd>:         1344 b           27 skpd (  2.0%)    0.003 s ( 0.002 ms/b)
<sd|df>:         1152 b           44 skpd (  3.8%)    0.002 s ( 0.002 ms/b)
<sd|dg>:          384 b           14 skpd (  3.6%)    0.003 s ( 0.007 ms/b)
<sd|ff>:          384 b           14 skpd (  3.6%)    0.001 s ( 0.003 ms/b)
<sd|fg>:          192 b            7 skpd (  3.6%)    0.002 s ( 0.009 ms/b)
<sd|gg>:           64 b            2 skpd (  3.1%)    0.002 s ( 0.040 ms/b)
<sf|sf>:          496 b           18 skpd (  3.6%)    0.000 s ( 0.001 ms/b)
<sf|sg>:          310 b           31 skpd ( 10.0%)    0.001 s ( 0.003 ms/b)
<sf|pp>:         1116 b           11 skpd (  1.0%)    0.002 s ( 0.002 ms/b)
<sf|pd>:         1488 b           44 skpd (  3.0%)    0.002 s ( 0.002 ms/b)
<sf|pf>:          744 b           16 skpd (  2.2%)    0.001 s ( 0.001 ms/b)
<sf|pg>:          248 b            2 skpd (  0.8%)    0.002 s ( 0.007 ms/b)
<sf|dd>:          651 b           11 skpd (  1.7%)    0.003 s ( 0.004 ms/b)
<sf|df>:          558 b           25 skpd (  4.5%)    0.002 s ( 0.003 ms/b)
<sf|dg>:          186 b           10 skpd (  5.4%)    0.002 s ( 0.013 ms/b)
<sf|ff>:          186 b            8 skpd (  4.3%)    0.001 s ( 0.006 ms/b)
<sf|fg>:           93 b            4 skpd (  4.3%)    0.001 s ( 0.016 ms/b)
<sf|gg>:           31 b            1 skpd (  3.2%)    0.002 s ( 0.064 ms/b)
<sg|sg>:           55 b           10 skpd ( 18.2%)    0.000 s ( 0.005 ms/b)
<sg|pp>:          360 b           16 skpd (  4.4%)    0.001 s ( 0.003 ms/b)
<sg|pd>:          480 b           39 skpd (  8.1%)    0.001 s ( 0.003 ms/b)
<sg|pf>:          240 b           23 skpd (  9.6%)    0.000 s ( 0.002 ms/b)
<sg|pg>:           80 b            7 skpd (  8.8%)    0.001 s ( 0.014 ms/b)
<sg|dd>:          210 b           13 skpd (  6.2%)    0.002 s ( 0.008 ms/b)
<sg|df>:          180 b           22 skpd ( 12.2%)    0.001 s ( 0.005 ms/b)
<sg|dg>:           60 b            8 skpd ( 13.3%)    0.001 s ( 0.025 ms/b)
<sg|ff>:           60 b            7 skpd ( 11.7%)    0.000 s ( 0.009 ms/b)
<sg|fg>:           30 b            3 skpd ( 10.0%)    0.001 s ( 0.031 ms/b)
<sg|gg>:           10 b            1 skpd ( 10.0%)    0.001 s ( 0.119 ms/b)
<pp|pp>:          666 b            1 skpd (  0.2%)    0.002 s ( 0.003 ms/b)
<pp|pd>:         1728 b           12 skpd (  0.7%)    0.003 s ( 0.002 ms/b)
<pp|pf>:          864 b            2 skpd (  0.2%)    0.001 s ( 0.001 ms/b)
<pp|pg>:          288 b            1 skpd (  0.3%)    0.002 s ( 0.006 ms/b)
<pp|dd>:          756 b            1 skpd (  0.1%)    0.003 s ( 0.004 ms/b)
<pp|df>:          648 b            3 skpd (  0.5%)    0.002 s ( 0.002 ms/b)
<pp|dg>:          216 b            1 skpd (  0.5%)    0.002 s ( 0.011 ms/b)
<pp|ff>:          216 b            1 skpd (  0.5%)    0.001 s ( 0.005 ms/b)
<pp|fg>:          108 b            1 skpd (  0.9%)    0.002 s ( 0.015 ms/b)
<pp|gg>:           36 b            0 skpd (  0.0%)    0.002 s ( 0.061 ms/b)
<pd|pd>:         1176 b           39 skpd (  3.3%)    0.004 s ( 0.004 ms/b)
<pd|pf>:         1152 b           19 skpd (  1.6%)    0.002 s ( 0.002 ms/b)
<pd|pg>:          384 b            5 skpd (  1.3%)    0.004 s ( 0.011 ms/b)
<pd|dd>:         1008 b           15 skpd (  1.5%)    0.006 s ( 0.006 ms/b)
<pd|df>:          864 b           25 skpd (  2.9%)    0.003 s ( 0.004 ms/b)
<pd|dg>:          288 b            7 skpd (  2.4%)    0.005 s ( 0.019 ms/b)
<pd|ff>:          288 b            7 skpd (  2.4%)    0.003 s ( 0.009 ms/b)
<pd|fg>:          144 b            3 skpd (  2.1%)    0.004 s ( 0.026 ms/b)
<pd|gg>:           48 b            1 skpd (  2.1%)    0.005 s ( 0.109 ms/b)
<pf|pf>:          300 b            1 skpd (  0.3%)    0.001 s ( 0.004 ms/b)
<pf|pg>:          192 b            0 skpd (  0.0%)    0.003 s ( 0.015 ms/b)
<pf|dd>:          504 b            2 skpd (  0.4%)    0.004 s ( 0.008 ms/b)
<pf|df>:          432 b            7 skpd (  1.6%)    0.003 s ( 0.006 ms/b)
<pf|dg>:          144 b            2 skpd (  1.4%)    0.004 s ( 0.027 ms/b)
<pf|ff>:          144 b            2 skpd (  1.4%)    0.002 s ( 0.016 ms/b)
<pf|fg>:           72 b            1 skpd (  1.4%)    0.003 s ( 0.041 ms/b)
<pf|gg>:           24 b            0 skpd (  0.0%)    0.004 s ( 0.159 ms/b)
<pg|pg>:           36 b            0 skpd (  0.0%)    0.001 s ( 0.033 ms/b)
<pg|dd>:          168 b            0 skpd (  0.0%)    0.003 s ( 0.016 ms/b)
<pg|df>:          144 b            2 skpd (  1.4%)    0.002 s ( 0.011 ms/b)
<pg|dg>:           48 b            0 skpd (  0.0%)    0.003 s ( 0.053 ms/b)
<pg|ff>:           48 b            0 skpd (  0.0%)    0.001 s ( 0.021 ms/b)
<pg|fg>:           24 b            0 skpd (  0.0%)    0.002 s ( 0.074 ms/b)
<pg|gg>:            8 b            0 skpd (  0.0%)    0.002 s ( 0.273 ms/b)
<dd|dd>:          231 b            0 skpd (  0.0%)    0.004 s ( 0.017 ms/b)
<dd|df>:          378 b            4 skpd (  1.1%)    0.003 s ( 0.007 ms/b)
<dd|dg>:          126 b            1 skpd (  0.8%)    0.004 s ( 0.032 ms/b)
<dd|ff>:          126 b            1 skpd (  0.8%)    0.002 s ( 0.016 ms/b)
<dd|fg>:           63 b            0 skpd (  0.0%)    0.003 s ( 0.046 ms/b)
<dd|gg>:           21 b            0 skpd (  0.0%)    0.004 s ( 0.189 ms/b)
<df|df>:          171 b            7 skpd (  4.1%)    0.003 s ( 0.018 ms/b)
<df|dg>:          108 b            4 skpd (  3.7%)    0.005 s ( 0.043 ms/b)
<df|ff>:          108 b            4 skpd (  3.7%)    0.003 s ( 0.027 ms/b)
<df|fg>:           54 b            3 skpd (  5.6%)    0.004 s ( 0.071 ms/b)
<df|gg>:           18 b            1 skpd (  5.6%)    0.005 s ( 0.286 ms/b)
<dg|dg>:           21 b            1 skpd (  4.8%)    0.002 s ( 0.110 ms/b)
<dg|ff>:           36 b            1 skpd (  2.8%)    0.001 s ( 0.036 ms/b)
<dg|fg>:           18 b            1 skpd (  5.6%)    0.002 s ( 0.119 ms/b)
<dg|gg>:            6 b            0 skpd (  0.0%)    0.003 s ( 0.428 ms/b)
<ff|ff>:           21 b            1 skpd (  4.8%)    0.001 s ( 0.056 ms/b)
<ff|fg>:           18 b            0 skpd (  0.0%)    0.002 s ( 0.108 ms/b)
<ff|gg>:            6 b            0 skpd (  0.0%)    0.003 s ( 0.442 ms/b)
<fg|fg>:            6 b            0 skpd (  0.0%)    0.001 s ( 0.245 ms/b)
<fg|gg>:            3 b            0 skpd (  0.0%)    0.003 s ( 0.835 ms/b)
<gg|gg>:            1 b            0 skpd (  0.0%)    0.001 s ( 1.157 ms/b)
Recanonicalizing the internal orbitals
Recanonicalizing the virtual orbitals
Time needed for Fock operator              ...            0.247 sec
Reference energy                           ...  -1877.295897409
Warning: for UHF the TrafoType has to be JK
Warning: for UHF the K(C)-option cannot be MO but must be AOX

-------------------------------
PARTIAL EXCHANGE TRANSFORMATION
-------------------------------

Transformation type                        ... two-operators
Generation of integrals (i,mue|j,nue)      ... ON
Generation of integrals (mue,kappa|nue,tau)... ON
Generation of integrals (i,mue|a,nue)      ... ON
Dimension of the basis                     ...   95
Number of internal alpha-MOs               ...   14 (   6-  19)
Number of internal beta-MOs                ...   13 (   6-  18)
Number of external alpha-MOs               ...   75 (  20-  94)
Number of external beta-MOs                ...   76 (  19-  94)
Pair cutoff                                ... 0.000e+00 Eh
Number of AO pairs in the trafo            ... 4560
Total Number of distinct AO pairs          ... 4560
Memory devoted for trafo                   ... 2500.0 MB 
Max. Number of MO pairs treated together   ... 36308      
Number Format for Storage                  ... Double (8 Byte)
Integral package used                      ... LIBINT

Starting integral evaluation:
    ... done with AO integral generation
Closing buffer AOK[aa] ( 0.00 GB; CompressionRatio= 0.99)
Closing buffer AOK[bb] ( 0.00 GB; CompressionRatio= 0.99)
Closing buffer AOK[ab] ( 0.00 GB; CompressionRatio= 0.99)
Closing buffer AOK[ba] ( 0.00 GB; CompressionRatio= 0.99)
Collecting buffer AOK 
Closing buffer IAAO1[aa] ( 0.00 GB; CompressionRatio= 1.00)
Closing buffer IAAO1[bb] ( 0.00 GB; CompressionRatio= 1.00)
Closing buffer IAAO1[ab] ( 0.00 GB; CompressionRatio= 1.00)
Closing buffer IAAO1[ba] ( 0.00 GB; CompressionRatio= 1.00)
Closing buffer IAAO2[aa] ( 0.00 GB; CompressionRatio= 1.00)
Closing buffer IAAO2[bb] ( 0.00 GB; CompressionRatio= 1.00)
Closing buffer IAAO2[ab] ( 0.00 GB; CompressionRatio= 1.00)
Closing buffer IAAO2[ba] ( 0.00 GB; CompressionRatio= 1.00)
Collecting buffer IAAO 
Closing buffer PRQS    ( 0.00 GB; CompressionRatio= 1.00)
Collecting buffer PRQS 
Number of alpha/alpha MO pairs in trafo    ...  105
Number of beta /beta  MO pairs in trafo    ...   91
Number of alpha/ beta MO pairs in trafo    ...  182
------------------------
SORTING OF (i,mue|j,nue)
------------------------

SORTING OF ALPHA/ALPHA PAIRS
IBATCH = 1 of  1
Closing buffer KAO[aa] ( 0.00 GB; CompressionRatio= 1.00)
Collecting buffer KAO 
SORTING OF BETA /BETA  PAIRS
IBATCH = 1 of  1
Closing buffer KAO[bb] ( 0.00 GB; CompressionRatio= 1.00)
Collecting buffer KAO 
SORTING OF ALPHA/BETA  PAIRS
IBATCH = 1 of  1
Closing buffer KAO[ab] ( 0.00 GB; CompressionRatio= 0.999833822633)
Collecting buffer KAO[ab] 
------------------------
SORTING OF (i,mue|a,nue)
------------------------

Number of alpha/alpha (i,a) pairs in trafo  ... 1050
Number of beta /beta  (i,a) pairs in trafo  ...  988
Number of alpha/ beta (i,a) pairs in trafo  ... 1064
Number of beta /alpha (i,a) pairs in trafo  ...  975
Setting up the alpha/alpha list             ... done
Setting up the beta /beta  list             ... done
Setting up the alpha/beta  list             ... done
Setting up the beta /alpha list             ... done
    ... Now sorting (i,mue|a,nue)integrals
    ... Integrals (i,b|a,c) will be made on the fly
SORTING OF ALPHA/ALPHA PAIRS
IBATCH = 1 of  1
Closing buffer IPAQ[aa]  0.00 GB; CompressionRatio= 1.00)
SORTING OF BETA /BETA  PAIRS
IBATCH = 1 of  1
Closing buffer IPAQ[bb]( 0.00 GB; CompressionRatio= 1.00)
SORTING OF ALPHA/BETA  PAIRS (NMatSort_ab=45)
IBATCH = 1 of  1
Closing buffer IPAQ[ab]( 0.00 GB; CompressionRatio= 1.00)
SORTING OF BETA/ALPHA  PAIRS
IBATCH = 1 of  1
Closing buffer IPAQ[ba]( 0.00 GB; CompressionRatio= 1.00)
N(AO-Batches) Done                         ...      4872 
N(AO-Batches) Skipped                      ...         0 
N(IJ)-pairs Skipped                        ...         0 
TOTAL TIME for half transformation         ...     1.248 sec
AO-integral generation                     ...     0.020 sec
Half transformation                        ...     0.006 sec
K-integral sorting                         ...     0.782 sec
<ss|**>: 
------------------------------
PARTIAL COULOMB TRANSFORMATION
------------------------------

Transformation type                        ... two-operators
Dimension of the basis                     ...   95
Number of internal alpha-MOs               ...   14 (6-19)
Number of internal beta-MOs                ...   13 (6-18)
Pair cutoff                                ... 0.000e+00 Eh
Number of AO pairs included in the trafo   ... 4560
Total Number of distinct AO pairs          ... 4560
Memory devoted for trafo                   ... 2500.0 MB 
Max. Number of MO pairs treated together   ... 71859      
Max. Number of MOs treated per batch       ...  756      
Number Format for Storage                  ... Double (8 Byte)
AO-integral source                         ... DIRECT
Integral package used                      ... LIBINT

Starting integral evaluation:
       26288 b        0 skpd     0.005 s (  0.000 ms/b)
<sp|**>: <sd|**>:        36464 b        0 skpd     0.015 s (  0.000 ms/b)
<sf|**>:        27136 b        0 skpd     0.021 s (  0.001 ms/b)
       13144 b        0 skpd     0.011 s (  0.001 ms/b)
<sg|**>:         4240 b        0 skpd     0.017 s (  0.004 ms/b)
<pp|**>:        15264 b        0 skpd     0.023 s (  0.002 ms/b)
<pd|**>:        20352 b        0 skpd     0.034 s (  0.002 ms/b)
<pf|**>:        10176 b        0 skpd     0.015 s (  0.002 ms/b)
<pg|**>:         3392 b        0 skpd     0.026 s (  0.008 ms/b)
<dd|**>:         8904 b        0 skpd     0.040 s (  0.004 ms/b)
<df|**>:         7632 b        0 skpd     0.021 s (  0.003 ms/b)
<dg|**>:         2544 b        0 skpd     0.035 s (  0.014 ms/b)
<ff|**>:         2544 b        0 skpd     0.015 s (  0.006 ms/b)
<fg|**>:         1272 b        0 skpd     0.021 s (  0.017 ms/b)
<gg|**>:          424 b        0 skpd     0.032 s (  0.076 ms/b)
Closing buffer AOJ[aa] ( 0.00 GB; CompressionRatio= 0.99)
Closing buffer AOJ[bb] ( 0.00 GB; CompressionRatio= 0.00)
Collecting buffer AOJ 
    ... done with AO integral generation
Number of Alpha-MO pairs included          ...  105
Number of Beta-MO pairs included           ...   91
    ... Now sorting integrals
SORTING ALPHA/ALPHA PAIRS
IBATCH = 1 of  1
Closing buffer JAO[aa] ( 0.00 GB; CompressionRatio= 1.00)
SORTING BETA/BETA PAIRS
IBATCH = 1 of  1
Closing buffer JAO[bb] ( 0.00 GB; CompressionRatio= 1.00)
Collecting buffer JAO 
TOTAL TIME for half transformation         ...     0.361 sec
AO-integral generation                     ...     0.332 sec
Half transformation                        ...     0.009 sec
J-integral sorting                         ...     0.015 sec

-------------------------- SECOND HALF TRANSFORMATION -------------------------
Formation of (ij|kl),(ij|ka), (ij|ab)      ... ok (     0.063 sec)
Formation of (ik|jl),(ik|ja), (ia|jb)      ... ok (     0.111 sec)


-----------------------
SPIN UNRESTRICTED GUESS
-----------------------

Entering MDCI_UHF_Guess, Tailored=0
Spin-components of the MP2 energy:
EMP2(aa)=     -0.176210623
EMP2(bb)=     -0.166150221
EMP2(ab)=     -0.718447908

Initial guess performed in     0.048 sec
E(0)                                       ...  -1877.295897409
E(MP2)                                     ...     -1.060808752
Initial E(tot)                             ...  -1878.356706161
<T|T>                                      ...      0.139696172
Number of pairs included                   ... 351

------------------------------------------------
                  UHF COUPLED CLUSTER ITERATIONS
------------------------------------------------

Number of amplitudes to be optimized       ...      1519575

Iter       E(tot)           E(Corr)          Delta-E          Residual     Time      <S|S>**1/2
  0  -1878.356706161     -1.060808752      0.000000000      0.036259582    1.03      0.000000013
                           *** Turning on DIIS ***
  1  -1878.237616083     -0.941718674      0.119090078      0.013878916    1.11      0.067170840
  2  -1878.273191418     -0.977294009     -0.035575335      0.006350462    1.20      0.060168396
  3  -1878.273931185     -0.978033776     -0.000739768      0.004285669    1.20      0.072054566
  4  -1878.275297884     -0.979400474     -0.001366698      0.003030045    1.19      0.079160624
  5  -1878.276014763     -0.980117353     -0.000716879      0.001730194    1.23      0.085624379
  6  -1878.276149308     -0.980251899     -0.000134545      0.000914935    1.28      0.088739134
  7  -1878.276181413     -0.980284004     -0.000032105      0.000354053    1.25      0.090310055
  8  -1878.276204713     -0.980307304     -0.000023300      0.000150338    1.22      0.090765700
  9  -1878.276200865     -0.980303456      0.000003847      0.000057799    1.24      0.090790339
 10  -1878.276202267     -0.980304857     -0.000001401      0.000019566    1.25      0.090807597
 11  -1878.276202878     -0.980305469     -0.000000611      0.000006754    1.25      0.090785364
 12  -1878.276200712     -0.980303303      0.000002166      0.000003986    1.22      0.090785197
 13  -1878.276201464     -0.980304055     -0.000000752      0.000002062    1.21      0.090782455
 14  -1878.276201148     -0.980303738      0.000000316      0.000000742    1.20      0.090782403
               --- The Coupled-Cluster iterations have converged ---

----------------------
COUPLED CLUSTER ENERGY
----------------------

E(0)                                       ...  -1877.295897409
E(CORR)                                    ...     -0.980303738
E(TOT)                                     ...  -1878.276201148
Singles norm <S|S>**1/2                    ...      0.090782403 ( 0.043070391, 0.047712011)  
T1 diagnostic                              ...      0.017471082                              

------------------
LARGEST AMPLITUDES
------------------
  16b-> 19b  -1b-> -1b       0.064145
  16b-> 23b  -1b-> -1b       0.026981
  16a-> 32a  16b-> 32b       0.025610
  19a-> 22a  -1a-> -1a       0.025367
  18b-> 20b  -1b-> -1b       0.024345
  17b-> 21b  -1b-> -1b       0.024345
  19a-> 23a  -1a-> -1a       0.024025
  17a-> 33a  17b-> 33b       0.022690
  18a-> 34a  18b-> 34b       0.022690
  18a-> 20a  -1a-> -1a       0.022320
  17a-> 21a  -1a-> -1a       0.022320
  16a-> 22a  -1a-> -1a       0.021456
  17a-> 34a  18b-> 34b       0.019883
  18a-> 33a  17b-> 33b       0.019883
  17a-> 33a  18b-> 34b       0.019849
  18a-> 34a  17b-> 33b       0.019849

----------------------
UHF TRIPLES CORRECTION (Algorithm 1)
----------------------

Multiplier for the singles contribution    ...      1.000000000

SPIN-CASE Alpha-Alpha-Alpha:
10% done
20% done
30% done
40% done
50% done
60% done
70% done
80% done
90% done


SPIN-CASE Beta-Beta-Beta:
10% done
20% done
30% done
40% done
50% done
60% done
70% done
80% done
90% done


SPIN-CASE Alpha-Alpha-Beta:
10% done
20% done
30% done
40% done
50% done
60% done
70% done
80% done
90% done


SPIN-CASE Beta-Beta-Alpha:
10% done
20% done
30% done
40% done
50% done
60% done
70% done
80% done
90% done


Triples Correction (T)                     ...     -0.022572758
    alpha-alpha-alpha ... -0.001046303 (  4.6%)
    alpha-alpha-beta  ... -0.010887446 ( 48.2%)
    alpha-beta -beta  ... -0.009853695 ( 43.7%)
    beta -beta -beta  ... -0.000785313 (  3.5%)
Scaling of triples based on CCSD energies (Peterson et al. Molecular Physics 113, 1551 (2015))
E(T*) = f*E(T) where f = E(F12-CCSD)/E(CCSD) 
f = CCSD (with F12)/ CCSD (without F12)    ...      1.000000000
Scaled triples correction (T)              ...     -0.022572758

Final correlation energy                   ...     -1.002876496
E(CCSD)                                    ...  -1878.276201148
E(CCSD(T))                                 ...  -1878.298773905



        !!!!!!!!!!!!!!!!!!!!!!!!!!!!!!!!!!!!!!!!!!!!!!!!!!!!!!!!!!!!!!!!!!!!!!!!!! 
        !  Warning: Densities are linearized densities                           !
        !!!!!!!!!!!!!!!!!!!!!!!!!!!!!!!!!!!!!!!!!!!!!!!!!!!!!!!!!!!!!!!!!!!!!!!!!! 

NORM  =      1.139922316 sqrt=     1.067671446
W(HF) =      0.877252762
------------------------------------------------------------------------------
                           ORCA POPULATION ANALYSIS
------------------------------------------------------------------------------
Input electron density              ... 56_ZnF.mdcip
Input spin density                  ... 56_ZnF.mdcir
BaseName (.gbw .S,...)              ... 56_ZnF

                    ********************************
                    * MULLIKEN POPULATION ANALYSIS *
                    ********************************

------------------------------------------
MULLIKEN ATOMIC CHARGES AND SPIN DENSITIES
------------------------------------------
   0 Zn:    0.547665    0.944841
   1 F :   -0.547665    0.055159
Sum of atomic charges       :    0.0000000
Sum of atomic spin densities:    1.0000000

---------------------------------------------------
MULLIKEN REDUCED ORBITAL CHARGES AND SPIN DENSITIES
---------------------------------------------------
CHARGE
  0 Zns       :     7.029234  s :     7.029234
      pz      :     4.264608  p :    12.385831
      px      :     4.060612
      py      :     4.060612
      dz2     :     1.987667  d :    10.005651
      dxz     :     2.015507
      dyz     :     2.015507
      dx2y2   :     1.993484
      dxy     :     1.993484
      f0      :     0.004461  f :     0.028716
      f+1     :     0.004153
      f-1     :     0.004153
      f+2     :     0.003984
      f-2     :     0.003984
      f+3     :     0.003990
      f-3     :     0.003990
      g0      :     0.000326  g :     0.002903
      g+1     :     0.000324
      g-1     :     0.000324
      g+2     :     0.000323
      g-2     :     0.000323
      g+3     :     0.000322
      g-3     :     0.000322
      g+4     :     0.000320
      g-4     :     0.000320
  1 F s       :     3.953022  s :     3.953022
      pz      :     1.737861  p :     5.561497
      px      :     1.911818
      py      :     1.911818
      dz2     :     0.007588  d :     0.030644
      dxz     :     0.006387
      dyz     :     0.006387
      dx2y2   :     0.005141
      dxy     :     0.005141
      f0      :     0.000422  f :     0.002501
      f+1     :     0.000368
      f-1     :     0.000368
      f+2     :     0.000339
      f-2     :     0.000339
      f+3     :     0.000333
      f-3     :     0.000333

SPIN
  0 Zns       :     0.749864  s :     0.749864
      pz      :     0.171220  p :     0.187230
      px      :     0.008005
      py      :     0.008005
      dz2     :     0.008428  d :     0.007861
      dxz     :    -0.000862
      dyz     :    -0.000862
      dx2y2   :     0.000578
      dxy     :     0.000578
      f0      :     0.000020  f :    -0.000104
      f+1     :    -0.000015
      f-1     :    -0.000015
      f+2     :    -0.000024
      f-2     :    -0.000024
      f+3     :    -0.000023
      f-3     :    -0.000023
      g0      :    -0.000001  g :    -0.000011
      g+1     :    -0.000001
      g-1     :    -0.000001
      g+2     :    -0.000001
      g-2     :    -0.000001
      g+3     :    -0.000002
      g-3     :    -0.000002
      g+4     :    -0.000001
      g-4     :    -0.000001
  1 F s       :    -0.000743  s :    -0.000743
      pz      :     0.065383  p :     0.055915
      px      :    -0.004734
      py      :    -0.004734
      dz2     :    -0.000181  d :    -0.000043
      dxz     :     0.000091
      dyz     :     0.000091
      dx2y2   :    -0.000022
      dxy     :    -0.000022
      f0      :     0.000006  f :     0.000030
      f+1     :     0.000009
      f-1     :     0.000009
      f+2     :     0.000004
      f-2     :     0.000004
      f+3     :    -0.000001
      f-3     :    -0.000001


                     *******************************
                     * LOEWDIN POPULATION ANALYSIS *
                     *******************************

-----------------------------------------
LOEWDIN ATOMIC CHARGES AND SPIN DENSITIES
-----------------------------------------
   0 Zn:    0.368964    0.935434
   1 F :   -0.368964    0.064566

--------------------------------------------------
LOEWDIN REDUCED ORBITAL CHARGES AND SPIN DENSITIES
--------------------------------------------------
CHARGE
  0 Zns       :     6.969326  s :     6.969326
      pz      :     4.343974  p :    12.487838
      px      :     4.071932
      py      :     4.071932
      dz2     :     2.066578  d :    10.141707
      dxz     :     2.044095
      dyz     :     2.044095
      dx2y2   :     1.993470
      dxy     :     1.993470
      f0      :     0.004833  f :     0.029259
      f+1     :     0.004239
      f-1     :     0.004239
      f+2     :     0.003984
      f-2     :     0.003984
      f+3     :     0.003990
      f-3     :     0.003990
      g0      :     0.000328  g :     0.002906
      g+1     :     0.000325
      g-1     :     0.000325
      g+2     :     0.000323
      g-2     :     0.000323
      g+3     :     0.000322
      g-3     :     0.000322
      g+4     :     0.000320
      g-4     :     0.000320
  1 F s       :     3.798300  s :     3.798300
      pz      :     1.790865  p :     5.533474
      px      :     1.871305
      py      :     1.871305
      dz2     :     0.010480  d :     0.034505
      dxz     :     0.006860
      dyz     :     0.006860
      dx2y2   :     0.005153
      dxy     :     0.005153
      f0      :     0.000506  f :     0.002685
      f+1     :     0.000415
      f-1     :     0.000415
      f+2     :     0.000342
      f-2     :     0.000342
      f+3     :     0.000333
      f-3     :     0.000333

SPIN
  0 Zns       :     0.708778  s :     0.708778
      pz      :     0.202562  p :     0.218010
      px      :     0.007724
      py      :     0.007724
      dz2     :     0.009978  d :     0.008687
      dxz     :    -0.001222
      dyz     :    -0.001222
      dx2y2   :     0.000576
      dxy     :     0.000576
      f0      :     0.000095  f :    -0.000030
      f+1     :    -0.000016
      f-1     :    -0.000016
      f+2     :    -0.000024
      f-2     :    -0.000024
      f+3     :    -0.000023
      f-3     :    -0.000023
      g0      :    -0.000000  g :    -0.000010
      g+1     :    -0.000001
      g-1     :    -0.000001
      g+2     :    -0.000001
      g-2     :    -0.000001
      g+3     :    -0.000002
      g-3     :    -0.000002
      g+4     :    -0.000001
      g-4     :    -0.000001
  1 F s       :     0.006093  s :     0.006093
      pz      :     0.066186  p :     0.058002
      px      :    -0.004092
      py      :    -0.004092
      dz2     :     0.000290  d :     0.000432
      dxz     :     0.000092
      dyz     :     0.000092
      dx2y2   :    -0.000021
      dxy     :    -0.000021
      f0      :     0.000014  f :     0.000038
      f+1     :     0.000009
      f-1     :     0.000009
      f+2     :     0.000005
      f-2     :     0.000005
      f+3     :    -0.000001
      f-3     :    -0.000001


                      *****************************
                      * MAYER POPULATION ANALYSIS *
                      *****************************

  NA   - Mulliken gross atomic population
  ZA   - Total nuclear charge
  QA   - Mulliken gross atomic charge
  VA   - Mayer's total valence
  BVA  - Mayer's bonded valence
  FA   - Mayer's free valence

  ATOM       NA         ZA         QA         VA         BVA        FA
  0 Zn    29.4523    30.0000     0.5477     2.1752     0.7106     1.4646
  1 F      9.5477     9.0000    -0.5477     1.1220     0.7106     0.4115

  Mayer bond orders larger than 0.100000
B(  0-Zn,  1-F ) :   0.7106 



------------------------------------------------------------------------------- 
                                     TIMINGS                                   
------------------------------------------------------------------------------- 


Total execution time                   ...       24.208 sec

Fock Matrix Formation                  ...        0.247 sec (  1.0%)
Initial Guess                          ...        0.048 sec (  0.2%)
DIIS Solver                            ...        1.994 sec (  8.2%)
State Vector Update                    ...        0.094 sec (  0.4%)
Sigma-vector construction              ...       15.997 sec ( 66.1%)
  <0|H|D>                              ...        0.005 sec (  0.0% of sigma)
  <D|H|D>(0-ext Fock)                  ...        0.044 sec (  0.3% of sigma)
  <D|H|D>(0-ext)                       ...        0.265 sec (  1.7% of sigma)
  <D|H|D>(2-ext Fock)                  ...        0.010 sec (  0.1% of sigma)
  <D|H|D>(2-ext)                       ...        0.652 sec (  4.1% of sigma)
  <D|H|D>(4-ext)                       ...        5.676 sec ( 35.5% of sigma)
  <S|H|0>                              ...        1.398 sec (  8.7% of sigma)
  <S|H|S>                              ...        0.002 sec (  0.0% of sigma)
  <S|H|D>(1-ext)                       ...        0.012 sec (  0.1% of sigma)
  <D|H|S>(1-ext)                       ...        0.153 sec (  1.0% of sigma)
  Fock-dressing                        ...        2.538 sec ( 15.9% of sigma)
  (ik|jl)-dressing                     ...        0.382 sec (  2.4% of sigma)
  (ij|ab),(ia|jb)-dressing             ...        3.797 sec ( 23.7% of sigma)
  Pair energies                        ...        0.007 sec (  0.0% of sigma)
Total Time for computing (T)           ...        3.534 sec ( 14.6% of ALL)
  I/O of integral and amplitudes       ...        0.618 sec ( 17.5% of (T))
  External N**7 contributions          ...        0.950 sec ( 26.9% of (T))
  Internal N**7 contributions          ...        0.571 sec ( 16.2% of (T))
  N**6 triples energy contributions    ...        1.362 sec ( 38.6% of (T))

----- Orbital basis set information -----
Your calculation utilizes the basis: def2-QZVPP
   F. Weigend and R. Ahlrichs, Phys. Chem. Chem. Phys. 7, 3297 (2005).

----- AuxJ basis set information -----
Your calculation utilizes the auxiliary basis: def2/J
   F. Weigend, Phys. Chem. Chem. Phys. 8, 1057 (2006).

----- AuxC basis set information -----
Your calculation utilizes the auxiliary basis: def2-QZVPP/C
  H-La, Hf-Rn : A. Hellweg, C. Hattig, S. Hofener and W. Klopper, Theor. Chem. Acc. 117, 587 (2007).
        Ce-Lu : J. Chmela and M. E. Harding, Mol. Phys. (2018).

----- AuxJK basis set information -----
Your calculation utilizes the auxiliary basis: def2/JK
   H-Ba, Hf-Rn: F. Weigend, J. Comput. Chem. 29, 167 (2008).

All done

                     -----------------------------------------
                     Extrapolated Energy 2 Basis=  def2-QZVPP
                     -----------------------------------------

---------------------------------
CARTESIAN COORDINATES (ANGSTROEM)
---------------------------------
  Zn     0.000000    0.000000    0.103055
  F      0.000000    0.000000    1.896945

----------------------------
CARTESIAN COORDINATES (A.U.)
----------------------------
  NO LB      ZA    FRAG     MASS         X           Y           Z
   0 Zn   30.0000    0    65.380    0.000000    0.000000    0.194745
   1 F     9.0000    0    18.998    0.000000    0.000000    3.584707

--------------------------------
INTERNAL COORDINATES (ANGSTROEM)
--------------------------------
 Zn     0   0   0     0.000000000000     0.00000000     0.00000000
 F      1   0   0     1.793890529638     0.00000000     0.00000000

---------------------------
INTERNAL COORDINATES (A.U.)
---------------------------
 Zn     0   0   0     0.000000000000     0.00000000     0.00000000
 F      1   0   0     3.389961815251     0.00000000     0.00000000

---------------------
BASIS SET INFORMATION
---------------------
There are 2 groups of distinct atoms

 Group   1 Type Zn  : 24s18p10d4f2g contracted to 11s6p5d4f2g pattern {114111111111/951111/61111/1111/11}
 Group   2 Type F   : 15s8p3d2f1g contracted to 7s4p3d2f1g pattern {8211111/5111/111/11/1}

Atom   0Zn   basis set group =>   1
Atom   1F    basis set group =>   2
---------------------------------
AUXILIARY/J BASIS SET INFORMATION
---------------------------------
There are 2 groups of distinct atoms

 Group   1 Type Zn  : 19s5p5d3f3g contracted to 8s5p5d2f3g pattern {121111111/11111/11111/21/111}
 Group   2 Type F   : 12s5p4d2f1g contracted to 6s4p3d1f1g pattern {711111/2111/211/2/1}

Atom   0Zn   basis set group =>   1
Atom   1F    basis set group =>   2
---------------------------------
AUXILIARY/C BASIS SET INFORMATION
---------------------------------
There are 2 groups of distinct atoms

 Group   1 Type Zn  : 15s13p11d9f7g5h2i contracted to 15s13p11d9f7g5h2i pattern {111111111111111/1111111111111/11111111111/111111111/1111111/11111/11}
 Group   2 Type F   : 9s8p7d5f3g1h contracted to 9s8p7d5f3g1h pattern {111111111/11111111/1111111/11111/111/1}

Atom   0Zn   basis set group =>   1
Atom   1F    basis set group =>   2
----------------------------------
AUXILIARY/JK BASIS SET INFORMATION
----------------------------------
There are 2 groups of distinct atoms

 Group   1 Type Zn  : 19s14p12d10f7g3h1i contracted to 16s13p11d9f5g3h1i pattern {4111111111111111/2111111111111/21111111111/211111111/31111/111/1}
 Group   2 Type F   : 14s10p6d2f1g contracted to 10s8p4d2f1g pattern {5111111111/31111111/3111/11/1}

Atom   0Zn   basis set group =>   1
Atom   1F    basis set group =>   2

Checking for AutoStart:
The File: 56_ZnF.gbw exists
Trying to determine its content:
     ... Fine, the file contains calculation information
     ... Fine, the calculation information was read
     ... Fine, the file contains a basis set
     ... Fine, the basis set was read
     ... Fine, the file contains a geometry
     ... Fine, the geometry was read
     ... Fine, the file contains a set of orbitals
     ... Fine, the orbitals can be read
     => possible old guess file was deleted
     => GBW file was renamed to GES file
     => GES file is set as startup file
     => Guess is set to MORead
     ... now leaving AutoStart



           ************************************************************
           *        Program running with 24 parallel MPI-processes    *
           *              working on a common directory               *
           ************************************************************
------------------------------------------------------------------------------
                           ORCA GTO INTEGRAL CALCULATION
------------------------------------------------------------------------------

                         BASIS SET STATISTICS AND STARTUP INFO

 # of primitive gaussian shells          ...   87
 # of primitive gaussian functions       ...  251
 # of contracted shells                  ...   45
 # of contracted basis functions         ...  157
 Highest angular momentum                ...    4
 Maximum contraction depth               ...   11
 Integral package used                   ... LIBINT
 Integral threshhold            Thresh   ...  1.000e-12
 Primitive cut-off              TCut     ...  1.000e-14


------------------------------ INTEGRAL EVALUATION ----------------------------


 * One electron integrals 
 Pre-screening matrix                    ... done
 Shell pair data                         ... done (   0.000 sec)



           ************************************************************
           *        Program running with 24 parallel MPI-processes    *
           *              working on a common directory               *
           ************************************************************
-------------------------------------------------------------------------------
                                 ORCA SCF
-------------------------------------------------------------------------------

------------
SCF SETTINGS
------------
Hamiltonian:
 Ab initio Hamiltonian  Method          .... Hartree-Fock(GTOs)


General Settings:
 Integral files         IntName         .... 56_ZnF
 Hartree-Fock type      HFTyp           .... UHF
 Total Charge           Charge          ....    0
 Multiplicity           Mult            ....    2
 Number of Electrons    NEL             ....   39
 Basis Dimension        Dim             ....  157
 Nuclear Repulsion      ENuc            ....     79.6469148370 Eh

Convergence Acceleration:
 DIIS                   CNVDIIS         .... on
   Start iteration      DIISMaxIt       ....    12
   Startup error        DIISStart       ....  0.200000
   # of expansion vecs  DIISMaxEq       ....     5
   Bias factor          DIISBfac        ....   1.050
   Max. coefficient     DIISMaxC        ....  10.000
 Newton-Raphson         CNVNR           .... off
 SOSCF                  CNVSOSCF        .... off
 Level Shifting         CNVShift        .... on
   Level shift para.    LevelShift      ....    0.2500
[...]
  6  -1878.386693225     -1.042641645     -0.000127727      0.000931170    6.21      0.093312758
  7  -1878.386732435     -1.042680855     -0.000039210      0.000376642    6.28      0.095030926
  8  -1878.386761309     -1.042709729     -0.000028874      0.000153799    6.26      0.095598450
  9  -1878.386755358     -1.042703778      0.000005951      0.000058369    6.23      0.095634115
 10  -1878.386757584     -1.042706004     -0.000002227      0.000024480    6.30      0.095643380
 11  -1878.386757817     -1.042706237     -0.000000233      0.000008563    6.32      0.095624239
 12  -1878.386755734     -1.042704154      0.000002083      0.000004629    6.21      0.095621091
 13  -1878.386756218     -1.042704638     -0.000000484      0.000001755    6.13      0.095617496
 14  -1878.386755844     -1.042704264      0.000000374      0.000000976    6.15      0.095616736
               --- The Coupled-Cluster iterations have converged ---

----------------------
COUPLED CLUSTER ENERGY
----------------------

E(0)                                       ...  -1877.344051580
E(CORR)                                    ...     -1.042704264
E(TOT)                                     ...  -1878.386755844
Singles norm <S|S>**1/2                    ...      0.095616736 ( 0.046637959, 0.048978776)  
T1 diagnostic                              ...      0.018401449                              

------------------
LARGEST AMPLITUDES
------------------
  16b-> 19b  -1b-> -1b       0.060569
  16b-> 23b  -1b-> -1b       0.033454
  19a-> 22a  -1a-> -1a       0.028393
  16a-> 28a  -1a-> -1a       0.023689
  19a-> 32a  -1a-> -1a       0.023618
  19a-> 23a  -1a-> -1a       0.021848
  17a-> 21a  -1a-> -1a       0.020157
  18a-> 20a  -1a-> -1a       0.020157
  15b-> 19b  -1b-> -1b       0.018614
  19a-> 28a  -1a-> -1a       0.018475
  19a-> 31a  -1a-> -1a       0.016366
  16a-> 22a  -1a-> -1a       0.015971
  16b-> 28b  -1b-> -1b       0.015850
  17b-> 21b  -1b-> -1b       0.015169
  18b-> 20b  -1b-> -1b       0.015169
  11b-> 39b  -1b-> -1b       0.014763

----------------------
UHF TRIPLES CORRECTION (Algorithm 1)
----------------------

Multiplier for the singles contribution    ...      1.000000000

SPIN-CASE Alpha-Alpha-Alpha:
10% done
20% done
30% done
40% done
50% done
60% done
70% done
80% done
90% done


SPIN-CASE Beta-Beta-Beta:
10% done
20% done
30% done
40% done
50% done
60% done
70% done
80% done
90% done


SPIN-CASE Alpha-Alpha-Beta:
10% done
20% done
30% done
40% done
50% done
60% done
70% done
80% done
90% done


SPIN-CASE Beta-Beta-Alpha:
10% done
20% done
30% done
40% done
50% done
60% done
70% done
80% done
90% done


Triples Correction (T)                     ...     -0.029409954
    alpha-alpha-alpha ... -0.001417570 (  4.8%)
    alpha-alpha-beta  ... -0.014240980 ( 48.4%)
    alpha-beta -beta  ... -0.012738675 ( 43.3%)
    beta -beta -beta  ... -0.001012729 (  3.4%)
Scaling of triples based on CCSD energies (Peterson et al. Molecular Physics 113, 1551 (2015))
E(T*) = f*E(T) where f = E(F12-CCSD)/E(CCSD) 
f = CCSD (with F12)/ CCSD (without F12)    ...      1.000000000
Scaled triples correction (T)              ...     -0.029409954

Final correlation energy                   ...     -1.072114218
E(CCSD)                                    ...  -1878.386755844
E(CCSD(T))                                 ...  -1878.416165798



        !!!!!!!!!!!!!!!!!!!!!!!!!!!!!!!!!!!!!!!!!!!!!!!!!!!!!!!!!!!!!!!!!!!!!!!!!! 
        !  Warning: Densities are linearized densities                           !
        !!!!!!!!!!!!!!!!!!!!!!!!!!!!!!!!!!!!!!!!!!!!!!!!!!!!!!!!!!!!!!!!!!!!!!!!!! 

NORM  =      1.147974529 sqrt=     1.071435733
W(HF) =      0.871099466
------------------------------------------------------------------------------
                           ORCA POPULATION ANALYSIS
------------------------------------------------------------------------------
Input electron density              ... 56_ZnF.mdcip
Input spin density                  ... 56_ZnF.mdcir
BaseName (.gbw .S,...)              ... 56_ZnF

                    ********************************
                    * MULLIKEN POPULATION ANALYSIS *
                    ********************************

------------------------------------------
MULLIKEN ATOMIC CHARGES AND SPIN DENSITIES
------------------------------------------
   0 Zn:    0.578599    0.947894
   1 F :   -0.578599    0.052106
Sum of atomic charges       :   -0.0000000
Sum of atomic spin densities:    1.0000000

---------------------------------------------------
MULLIKEN REDUCED ORBITAL CHARGES AND SPIN DENSITIES
---------------------------------------------------
CHARGE
  0 Zns       :     7.010666  s :     7.010666
      pz      :     4.249462  p :    12.357421
      px      :     4.053979
      py      :     4.053979
      dz2     :     1.983192  d :     9.994388
      dxz     :     2.013382
      dyz     :     2.013382
      dx2y2   :     1.992216
      dxy     :     1.992216
      f0      :     0.008145  f :     0.054652
      f+1     :     0.013559
      f-1     :     0.013559
      f+2     :     0.004904
      f-2     :     0.004904
      f+3     :     0.004790
      f-3     :     0.004790
      g0      :     0.000500  g :     0.004274
      g+1     :     0.000486
      g-1     :     0.000486
      g+2     :     0.000471
      g-2     :     0.000471
      g+3     :     0.000467
      g-3     :     0.000467
      g+4     :     0.000463
      g-4     :     0.000463
  1 F s       :     3.961285  s :     3.961285
      pz      :     1.758675  p :     5.576239
      px      :     1.908782
      py      :     1.908782
      dz2     :     0.009237  d :     0.036525
      dxz     :     0.007846
      dyz     :     0.007846
      dx2y2   :     0.005798
      dxy     :     0.005798
      f0      :     0.000700  f :     0.004050
      f+1     :     0.000667
      f-1     :     0.000667
      f+2     :     0.000519
      f-2     :     0.000519
      f+3     :     0.000489
      f-3     :     0.000489
      g0      :     0.000059  g :     0.000500
      g+1     :     0.000057
      g-1     :     0.000057
      g+2     :     0.000055
      g-2     :     0.000055
      g+3     :     0.000054
      g-3     :     0.000054
      g+4     :     0.000054
      g-4     :     0.000054

SPIN
  0 Zns       :     0.754962  s :     0.754962
      pz      :     0.169677  p :     0.185543
      px      :     0.007933
      py      :     0.007933
      dz2     :     0.008098  d :     0.007321
      dxz     :    -0.001052
      dyz     :    -0.001052
      dx2y2   :     0.000663
      dxy     :     0.000663
      f0      :     0.000343  f :     0.000075
      f+1     :    -0.000029
      f-1     :    -0.000029
      f+2     :    -0.000038
      f-2     :    -0.000038
      f+3     :    -0.000067
      f-3     :    -0.000067
      g0      :     0.000001  g :    -0.000006
      g+1     :    -0.000000
      g-1     :    -0.000000
      g+2     :    -0.000001
      g-2     :    -0.000001
      g+3     :    -0.000001
      g-3     :    -0.000001
      g+4     :    -0.000001
      g-4     :    -0.000001
  1 F s       :    -0.000463  s :    -0.000463
      pz      :     0.060313  p :     0.052462
      px      :    -0.003925
      py      :    -0.003925
      dz2     :    -0.000144  d :     0.000069
      dxz     :     0.000126
      dyz     :     0.000126
      dx2y2   :    -0.000019
      dxy     :    -0.000019
      f0      :     0.000004  f :     0.000037
      f+1     :     0.000013
      f-1     :     0.000013
      f+2     :     0.000005
      f-2     :     0.000005
      f+3     :    -0.000002
      f-3     :    -0.000002
      g0      :     0.000000  g :     0.000001
      g+1     :     0.000000
      g-1     :     0.000000
      g+2     :     0.000000
      g-2     :     0.000000
      g+3     :     0.000000
      g-3     :     0.000000
      g+4     :    -0.000000
      g-4     :    -0.000000


                     *******************************
                     * LOEWDIN POPULATION ANALYSIS *
                     *******************************

-----------------------------------------
LOEWDIN ATOMIC CHARGES AND SPIN DENSITIES
-----------------------------------------
   0 Zn:    0.180250    0.932325
   1 F :   -0.180250    0.067675

--------------------------------------------------
LOEWDIN REDUCED ORBITAL CHARGES AND SPIN DENSITIES
--------------------------------------------------
CHARGE
  0 Zns       :     6.964682  s :     6.964682
      pz      :     4.375607  p :    12.512772
      px      :     4.068583
      py      :     4.068583
      dz2     :     2.087148  d :    10.161736
      dxz     :     2.045157
      dyz     :     2.045157
      dx2y2   :     1.992137
      dxy     :     1.992137
      f0      :     0.069272  f :     0.176172
      f+1     :     0.043728
      f-1     :     0.043728
      f+2     :     0.004932
      f-2     :     0.004932
      f+3     :     0.004790
      f-3     :     0.004790
      g0      :     0.000571  g :     0.004388
      g+1     :     0.000507
      g-1     :     0.000507
      g+2     :     0.000471
      g-2     :     0.000471
      g+3     :     0.000467
      g-3     :     0.000467
      g+4     :     0.000463
      g-4     :     0.000463
  1 F s       :     3.683922  s :     3.683922
      pz      :     1.784032  p :     5.445605
      px      :     1.830786
      py      :     1.830786
      dz2     :     0.015085  d :     0.044560
      dxz     :     0.008911
      dyz     :     0.008911
      dx2y2   :     0.005826
      dxy     :     0.005826
      f0      :     0.001521  f :     0.005616
      f+1     :     0.001017
      f-1     :     0.001017
      f+2     :     0.000542
      f-2     :     0.000542
      f+3     :     0.000489
      f-3     :     0.000489
      g0      :     0.000081  g :     0.000547
      g+1     :     0.000069
      g-1     :     0.000069
      g+2     :     0.000056
      g-2     :     0.000056
      g+3     :     0.000054
      g-3     :     0.000054
      g+4     :     0.000054
      g-4     :     0.000054

SPIN
  0 Zns       :     0.701547  s :     0.701547
      pz      :     0.203609  p :     0.218974
      px      :     0.007683
      py      :     0.007683
      dz2     :     0.011325  d :     0.010058
      dxz     :    -0.001296
      dyz     :    -0.001296
      dx2y2   :     0.000663
      dxy     :     0.000663
      f0      :     0.002424  f :     0.001744
      f+1     :    -0.000237
      f-1     :    -0.000237
      f+2     :    -0.000036
      f-2     :    -0.000036
      f+3     :    -0.000067
      f-3     :    -0.000067
      g0      :     0.000011  g :     0.000003
      g+1     :    -0.000001
      g-1     :    -0.000001
      g+2     :    -0.000001
      g-2     :    -0.000001
      g+3     :    -0.000001
      g-3     :    -0.000001
      g+4     :    -0.000001
      g-4     :    -0.000001
  1 F s       :     0.005889  s :     0.005889
      pz      :     0.066579  p :     0.060359
      px      :    -0.003110
      py      :    -0.003110
      dz2     :     0.001335  d :     0.001346
      dxz     :     0.000026
      dyz     :     0.000026
      dx2y2   :    -0.000020
      dxy     :    -0.000020
      f0      :     0.000073  f :     0.000079
      f+1     :    -0.000000
      f-1     :    -0.000000
      f+2     :     0.000005
      f-2     :     0.000005
      f+3     :    -0.000002
      f-3     :    -0.000002
      g0      :     0.000001  g :     0.000001
      g+1     :     0.000000
      g-1     :     0.000000
      g+2     :     0.000000
      g-2     :     0.000000
      g+3     :     0.000000
      g-3     :     0.000000
      g+4     :    -0.000000
      g-4     :    -0.000000


                      *****************************
                      * MAYER POPULATION ANALYSIS *
                      *****************************

  NA   - Mulliken gross atomic population
  ZA   - Total nuclear charge
  QA   - Mulliken gross atomic charge
  VA   - Mayer's total valence
  BVA  - Mayer's bonded valence
  FA   - Mayer's free valence

  ATOM       NA         ZA         QA         VA         BVA        FA
  0 Zn    29.4214    30.0000     0.5786     2.1808     0.6859     1.4949
  1 F      9.5786     9.0000    -0.5786     1.1193     0.6859     0.4334

  Mayer bond orders larger than 0.100000
B(  0-Zn,  1-F ) :   0.6859 



------------------------------------------------------------------------------- 
                                     TIMINGS                                   
------------------------------------------------------------------------------- 


Total execution time                   ...      133.858 sec

Fock Matrix Formation                  ...        1.027 sec (  0.8%)
Initial Guess                          ...        0.152 sec (  0.1%)
DIIS Solver                            ...        6.719 sec (  5.0%)
State Vector Update                    ...        0.309 sec (  0.2%)
Sigma-vector construction              ...       84.698 sec ( 63.3%)
  <0|H|D>                              ...        0.016 sec (  0.0% of sigma)
  <D|H|D>(0-ext Fock)                  ...        0.170 sec (  0.2% of sigma)
  <D|H|D>(0-ext)                       ...        0.985 sec (  1.2% of sigma)
  <D|H|D>(2-ext Fock)                  ...        0.045 sec (  0.1% of sigma)
  <D|H|D>(2-ext)                       ...        3.071 sec (  3.6% of sigma)
  <D|H|D>(4-ext)                       ...       40.429 sec ( 47.7% of sigma)
  <S|H|0>                              ...        9.493 sec ( 11.2% of sigma)
  <S|H|S>                              ...        0.005 sec (  0.0% of sigma)
  <S|H|D>(1-ext)                       ...        0.039 sec (  0.0% of sigma)
  <D|H|S>(1-ext)                       ...        0.502 sec (  0.6% of sigma)
  Fock-dressing                        ...       11.045 sec ( 13.0% of sigma)
  (ik|jl)-dressing                     ...        1.144 sec (  1.4% of sigma)
  (ij|ab),(ia|jb)-dressing             ...       14.332 sec ( 16.9% of sigma)
  Pair energies                        ...        0.020 sec (  0.0% of sigma)
Total Time for computing (T)           ...       30.124 sec ( 22.5% of ALL)
  I/O of integral and amplitudes       ...        4.988 sec ( 16.6% of (T))
  External N**7 contributions          ...       11.125 sec ( 36.9% of (T))
  Internal N**7 contributions          ...        3.803 sec ( 12.6% of (T))
  N**6 triples energy contributions    ...       10.054 sec ( 33.4% of (T))


-------------------
EXTRAPOLATED ENERGY
-------------------


-----------------------------------------------------------------
                      EP1 - MDCI extrapolation:
-----------------------------------------------------------------
NOTE: We use as reference SCF energy, for the extrapolation, the one from the MDCI module and not the one 
from the SCF calculation. In case the first step is a DFT calculation these two might be different.

NOTE: For the SCF part we extrapolate based on the scheme proposed in J. Chem. Phys. 2008, 129, 184116
using the exponents from J. Chem. Theory Comput., 7, 33-43 (2011)

NOTE: For the correlation part we extrapolate based on the scheme proposed in J. Chem. Phys. 1997, 106, 9639
using the exponents from J. Chem. Theory Comput., 7, 33-43 (2011)


Alpha(3/4)     :  7.880 (SCF Extrapolation)
Beta(3/4)      :  2.970 (correlation extrapolation)

SCF energy with basis def2-TZVPP:                     -1877.295897409
SCF energy with basis def2-QZVPP:                     -1877.344051580
Extrapolated CBS SCF energy (3/4) :                   -1877.350684272 (-0.006632692) 

MDCI energy with basis def2-TZVPP:                       -1.002876496
MDCI energy with basis def2-QZVPP:                       -1.072114218
Extrapolated CBS correlation energy (3/4) :              -1.123401382 (-0.051287164)

Estimated CBS total energy (3/4) :                    -1878.474085654



-------------------------   --------------------
FINAL SINGLE POINT ENERGY     -1878.474085654198
-------------------------   --------------------


                            ***************************************
                            *     ORCA property calculations      *
                            ***************************************

                                    ---------------------
                                    Active property flags
                                    ---------------------
   (+) Dipole Moment


------------------------------------------------------------------------------
                       ORCA ELECTRIC PROPERTIES CALCULATION
------------------------------------------------------------------------------

Dipole Moment Calculation                       ... on
Quadrupole Moment Calculation                   ... off
Polarizability Calculation                      ... off
GBWName                                         ... 56_ZnF.gbw
Electron density file                           ... 56_ZnF.scfp
The origin for moment calculation is the CENTER OF MASS  = ( 0.000000,  0.000000  0.958007)

-------------
DIPOLE MOMENT
-------------
                                X             Y             Z
Electronic contribution:     -0.00000       0.00000      -2.06040
Nuclear contribution   :      0.00000       0.00000       0.74245
                        -----------------------------------------
Total Dipole Moment    :     -0.00000       0.00000      -1.31795
                        -----------------------------------------
Magnitude (a.u.)       :      1.31795
Magnitude (Debye)      :      3.34995



--------------------
Rotational spectrum 
--------------------
 
Rotational constants in cm-1:     0.000000     0.355862     0.355862 
Rotational constants in MHz :     0.000000 10668.470416 10668.470416 

 Dipole components along the rotational axes: 
x,y,z [a.u.] :    -1.317946     0.000000    -0.000000 
x,y,z [Debye]:    -3.349952     0.000000    -0.000000 

 

                           *** MDCI DENSITY ***

------------------------------------------------------------------------------
                       ORCA ELECTRIC PROPERTIES CALCULATION
------------------------------------------------------------------------------

Dipole Moment Calculation                       ... on
Quadrupole Moment Calculation                   ... off
Polarizability Calculation                      ... off
GBWName                                         ... 56_ZnF.gbw
Electron density file                           ... 56_ZnF.mdcip
The origin for moment calculation is the CENTER OF MASS  = ( 0.000000,  0.000000  0.958007)

-------------
DIPOLE MOMENT
-------------
                                X             Y             Z
Electronic contribution:     -0.00000       0.00000      -1.93971
Nuclear contribution   :      0.00000       0.00000       0.74245
                        -----------------------------------------
Total Dipole Moment    :     -0.00000       0.00000      -1.19726
                        -----------------------------------------
Magnitude (a.u.)       :      1.19726
Magnitude (Debye)      :      3.04318



--------------------
Rotational spectrum 
--------------------
 
Rotational constants in cm-1:     0.000000     0.355862     0.355862 
Rotational constants in MHz :     0.000000 10668.470416 10668.470416 

 Dipole components along the rotational axes: 
x,y,z [a.u.] :    -1.197255     0.000000    -0.000000 
x,y,z [Debye]:    -3.043181     0.000000    -0.000000 

 

Timings for individual modules:

Sum of individual times         ...      172.388 sec (=   2.873 min)
GTO integral calculation        ...        1.500 sec (=   0.025 min)   0.9 %
SCF iterations                  ...       10.886 sec (=   0.181 min)   6.3 %
MDCI module                     ...      160.002 sec (=   2.667 min)  92.8 %
                             ****ORCA TERMINATED NORMALLY****
TOTAL RUN TIME: 0 days 0 hours 2 minutes 53 seconds 344 msec
