
                                 *****************
                                 * O   R   C   A *
                                 *****************

           --- An Ab Initio, DFT and Semiempirical electronic structure package ---

                  #######################################################
                  #                        -***-                        #
                  #          Department of theory and spectroscopy      #
                  #               Directorship: Frank Neese             #
                  #        Max Planck Institute fuer Kohlenforschung    #
                  #                Kaiser Wilhelm Platz 1               #
                  #                 D-45470 Muelheim/Ruhr               #
                  #                      Germany                        #
                  #                                                     #
                  #                  All rights reserved                #
                  #                        -***-                        #
                  #######################################################


                         Program Version 4.2.0 -  RELEASE  -


 With contributions from (in alphabetic order):
   Daniel Aravena         : Magnetic Suceptibility
   Michael Atanasov       : Ab Initio Ligand Field Theory (pilot matlab implementation)
   Alexander A. Auer      : GIAO ZORA, VPT2
   Ute Becker             : Parallelization
   Giovanni Bistoni       : ED, misc. LED, open-shell LED, HFLED
   Martin Brehm           : Molecular dynamics
   Dmytro Bykov           : SCF Hessian
   Vijay G. Chilkuri      : MRCI spin determinant printing, contributions to CSF-ICE
   Dipayan Datta          : RHF DLPNO-CCSD density
   Achintya Kumar Dutta   : EOM-CC, STEOM-CC
   Dmitry Ganyushin       : Spin-Orbit,Spin-Spin,Magnetic field MRCI
   Miquel Garcia          : C-PCM Hessian, Gaussian charge scheme
   Yang Guo               : DLPNO-NEVPT2, CIM, IAO-localization
   Andreas Hansen         : Spin unrestricted coupled pair/coupled cluster methods
   Benjamin Helmich-Paris : CASSCF linear response (MC-RPA)
   Lee Huntington         : MR-EOM, pCC
   Robert Izsak           : Overlap fitted RIJCOSX, COSX-SCS-MP3, EOM
   Christian Kollmar      : KDIIS, OOCD, Brueckner-CCSD(T), CCSD density
   Simone Kossmann        : Meta GGA functionals, TD-DFT gradient, OOMP2, MP2 Hessian
   Martin Krupicka        : AUTO-CI
   Lucas Lang             : DCDCAS
   Dagmar Lenk            : GEPOL surface, SMD
   Dimitrios Liakos       : Extrapolation schemes; Compound Job, initial MDCI parallelization
   Dimitrios Manganas     : Further ROCIS development; embedding schemes
   Dimitrios Pantazis     : SARC Basis sets
   Taras Petrenko         : DFT Hessian,TD-DFT gradient, ASA, ECA, R-Raman, ABS, FL, XAS/XES, NRVS
   Peter Pinski           : DLPNO-MP2, DLPNO-MP2 Gradient
   Christoph Reimann      : Effective Core Potentials
   Marius Retegan         : Local ZFS, SOC
   Christoph Riplinger    : Optimizer, TS searches, QM/MM, DLPNO-CCSD(T), (RO)-DLPNO pert. Triples
   Tobias Risthaus        : Range-separated hybrids, TD-DFT gradient, RPA, STAB
   Michael Roemelt        : Original ROCIS implementation
   Masaaki Saitow         : Open-shell DLPNO-CCSD energy and density
   Barbara Sandhoefer     : DKH picture change effects
   Avijit Sen             : IP-ROCIS
   Kantharuban Sivalingam : CASSCF convergence, NEVPT2, FIC-MRCI
   Bernardo de Souza      : ESD, SOC TD-DFT
   Georgi Stoychev        : AutoAux, RI-MP2 NMR
   Willem Van den Heuvel  : Paramagnetic NMR
   Boris Wezisla          : Elementary symmetry handling
   Frank Wennmohs         : Technical directorship


 We gratefully acknowledge several colleagues who have allowed us to
 interface, adapt or use parts of their codes:
   Stefan Grimme, W. Hujo, H. Kruse,             : VdW corrections, initial TS optimization,
                  C. Bannwarth                     DFT functionals, gCP, sTDA/sTD-DF
   Ed Valeev, F. Pavosevic, A. Kumar             : LibInt (2-el integral package), F12 methods
   Garnet Chan, S. Sharma, J. Yang, R. Olivares  : DMRG
   Ulf Ekstrom                                   : XCFun DFT Library
   Mihaly Kallay                                 : mrcc  (arbitrary order and MRCC methods)
   Andreas Klamt, Michael Diedenhofen            : otool_cosmo (COSMO solvation model)
   Jiri Pittner, Ondrej Demel                    : Mk-CCSD
   Frank Weinhold                                : gennbo (NPA and NBO analysis)
   Christopher J. Cramer and Donald G. Truhlar   : smd solvation model
   Lars Goerigk                                  : TD-DFT with DH, B97 family of functionals
   V. Asgeirsson, H. Jonsson                     : NEB implementation
   FAccTs GmbH                                   : IRC, NEB, NEB-TS, Multilevel, MM, QM/MM, CI optimization
   S Lehtola, MJT Oliveira, MAL Marques          : LibXC Library


 Your calculation uses the libint2 library for the computation of 2-el integrals
 For citations please refer to: http://libint.valeyev.net

 Your ORCA version has been built with support for libXC version: 4.2.3
 For citations please refer to: https://tddft.org/programs/libxc/

 This ORCA versions uses:
   CBLAS   interface :  Fast vector & matrix operations
   LAPACKE interface :  Fast linear algebra routines
   SCALAPACK package :  Parallel linear algebra routines


----- Orbital basis set information -----
Your calculation utilizes the basis: def2-TZVPP
   F. Weigend and R. Ahlrichs, Phys. Chem. Chem. Phys. 7, 3297 (2005).

================================================================================
                                        WARNINGS
                       Please study these warnings very carefully!
================================================================================


WARNING: your system is open-shell and RHF/RKS was chosen
  ===> : WILL SWITCH to UHF/UKS


WARNING: MDCI localization with Augmented Hessian Foster-Boys
  ===> : Switching off randomization!

WARNING: Post HF methods need fully converged wavefunctions
  ===> : Setting SCFConvForced true
         You can overwrite this default with %scf ConvForced false 


INFO   : the flag for use of LIBINT has been found!

================================================================================
                                       INPUT FILE
================================================================================
NAME = 58_ZnBr.in
|  1> #
|  2> # 58_ZnBr ccsd(t)/cbs
|  3> #
|  4> ! ccsd(t) extrapolate(3/4,def2) verytightscf
|  5> 
|  6> *xyz 0 2
|  7>   Zn  0.00000000000000      0.00000000000000     -0.15390624723259
|  8>   Br  0.00000000000000      0.00000000000000      2.15390624723258
|  9> *
| 10> 
| 11> %maxcore 5000
| 12> %pal
| 13> nprocs 24
| 14> end
| 15> 
| 16> 
| 17>                          ****END OF INPUT****
================================================================================

                   *****************************************
                   * Extrapolated Single Point Calculation *
                   *****************************************

----- Orbital basis set information -----
Your calculation utilizes the basis: def2-TZVPP
   F. Weigend and R. Ahlrichs, Phys. Chem. Chem. Phys. 7, 3297 (2005).

----- AuxJ basis set information -----
Your calculation utilizes the auxiliary basis: def2/J
   F. Weigend, Phys. Chem. Chem. Phys. 8, 1057 (2006).

----- AuxC basis set information -----
Your calculation utilizes the auxiliary basis: def2-TZVPP/C
  H-La, Hf-Rn : A. Hellweg, C. Hattig, S. Hofener and W. Klopper, Theor. Chem. Acc. 117, 587 (2007).
        Ce-Lu : J. Chmela and M. E. Harding, Mol. Phys. (2018).

----- AuxJK basis set information -----
Your calculation utilizes the auxiliary basis: def2/JK
   H-Ba, Hf-Rn: F. Weigend, J. Comput. Chem. 29, 167 (2008).

All done

                     -----------------------------------------
                     Extrapolated Energy 1 Basis=  def2-TZVPP
                     -----------------------------------------

---------------------------------
CARTESIAN COORDINATES (ANGSTROEM)
---------------------------------
  Zn     0.000000    0.000000   -0.153906
  Br     0.000000    0.000000    2.153906

----------------------------
CARTESIAN COORDINATES (A.U.)
----------------------------
  NO LB      ZA    FRAG     MASS         X           Y           Z
   0 Zn   30.0000    0    65.380    0.000000    0.000000   -0.290841
   1 Br   35.0000    0    79.900    0.000000    0.000000    4.070293

--------------------------------
INTERNAL COORDINATES (ANGSTROEM)
--------------------------------
 Zn     0   0   0     0.000000000000     0.00000000     0.00000000
 Br     1   0   0     2.307812494465     0.00000000     0.00000000

---------------------------
INTERNAL COORDINATES (A.U.)
---------------------------
 Zn     0   0   0     0.000000000000     0.00000000     0.00000000
 Br     1   0   0     4.361133582981     0.00000000     0.00000000

---------------------
BASIS SET INFORMATION
---------------------
There are 2 groups of distinct atoms

 Group   1 Type Zn  : 17s12p7d2f1g contracted to 6s5p4d2f1g pattern {842111/63111/4111/11/1}
 Group   2 Type Br  : 17s13p8d1f contracted to 6s5p4d1f pattern {842111/64111/5111/1}

Atom   0Zn   basis set group =>   1
Atom   1Br   basis set group =>   2
---------------------------------
AUXILIARY/J BASIS SET INFORMATION
---------------------------------
There are 2 groups of distinct atoms

 Group   1 Type Zn  : 19s5p5d3f3g contracted to 8s5p5d2f3g pattern {121111111/11111/11111/21/111}
 Group   2 Type Br  : 19s5p5d3f1g contracted to 8s4p3d2f1g pattern {121111111/2111/311/21/1}

Atom   0Zn   basis set group =>   1
Atom   1Br   basis set group =>   2
---------------------------------
AUXILIARY/C BASIS SET INFORMATION
---------------------------------
There are 2 groups of distinct atoms

 Group   1 Type Zn  : 9s10p8d7f5g3h1i contracted to 9s10p8d7f5g3h1i pattern {111111111/1111111111/11111111/1111111/11111/111/1}
 Group   2 Type Br  : 10s9p8d6f4g1h contracted to 10s9p8d5f4g1h pattern {1111111111/111111111/11111111/21111/1111/1}

Atom   0Zn   basis set group =>   1
Atom   1Br   basis set group =>   2
----------------------------------
AUXILIARY/JK BASIS SET INFORMATION
----------------------------------
There are 2 groups of distinct atoms

 Group   1 Type Zn  : 19s14p12d10f7g3h1i contracted to 16s13p11d9f5g3h1i pattern {4111111111111111/2111111111111/21111111111/211111111/31111/111/1}
 Group   2 Type Br  : 20s14p13d10f7g3h contracted to 17s13p12d9f6g3h pattern {41111111111111111/2111111111111/211111111111/211111111/211111/111}

Atom   0Zn   basis set group =>   1
Atom   1Br   basis set group =>   2


           ************************************************************
           *        Program running with 24 parallel MPI-processes    *
           *              working on a common directory               *
           ************************************************************
------------------------------------------------------------------------------
                           ORCA GTO INTEGRAL CALCULATION
------------------------------------------------------------------------------

                         BASIS SET STATISTICS AND STARTUP INFO

 # of primitive gaussian shells          ...   78
 # of primitive gaussian functions       ...  214
 # of contracted shells                  ...   34
 # of contracted basis functions         ...  112
 Highest angular momentum                ...    4
 Maximum contraction depth               ...    8
 Integral package used                   ... LIBINT
 Integral threshhold            Thresh   ...  1.000e-12
 Primitive cut-off              TCut     ...  1.000e-14


------------------------------ INTEGRAL EVALUATION ----------------------------


 * One electron integrals 
 Pre-screening matrix                    ... done
 Shell pair data                         ... done (   0.000 sec)



           ************************************************************
           *        Program running with 24 parallel MPI-processes    *
           *              working on a common directory               *
           ************************************************************
-------------------------------------------------------------------------------
                                 ORCA SCF
-------------------------------------------------------------------------------

------------
SCF SETTINGS
------------
Hamiltonian:
 Ab initio Hamiltonian  Method          .... Hartree-Fock(GTOs)


General Settings:
 Integral files         IntName         .... 58_ZnBr
 Hartree-Fock type      HFTyp           .... UHF
 Total Charge           Charge          ....    0
 Multiplicity           Mult            ....    2
 Number of Electrons    NEL             ....   65
 Basis Dimension        Dim             ....  112
 Nuclear Repulsion      ENuc            ....    240.7630906096 Eh

Convergence Acceleration:
 DIIS                   CNVDIIS         .... on
   Start iteration      DIISMaxIt       ....    12
   Startup error        DIISStart       ....  0.200000
   # of expansion vecs  DIISMaxEq       ....     5
   Bias factor          DIISBfac        ....   1.050
   Max. coefficient     DIISMaxC        ....  10.000
 Newton-Raphson         CNVNR           .... off
 SOSCF                  CNVSOSCF        .... off
 Level Shifting         CNVShift        .... on
   Level shift para.    LevelShift      ....    0.2500
   Turn off err/grad.   ShiftErr        ....    0.0010
 Zerner damping         CNVZerner       .... off
 Static damping         CNVDamp         .... on
   Fraction old density DampFac         ....    0.7000
   Max. Damping (<1)    DampMax         ....    0.9800
   Min. Damping (>=0)   DampMin         ....    0.0000
   Turn off err/grad.   DampErr         ....    0.1000
 Fernandez-Rico         CNVRico         .... off

SCF Procedure:
 Maximum # iterations   MaxIter         ....   125
 SCF integral mode      SCFMode         .... Direct
   Integral package                     .... LIBINT
 Reset frequency        DirectResetFreq ....    20
 Integral Threshold     Thresh          ....  1.000e-12 Eh
 Primitive CutOff       TCut            ....  1.000e-14 Eh

Convergence Tolerance:
 Convergence Check Mode ConvCheckMode   .... Total+1el-Energy
 Convergence forced     ConvForced      .... 1
 Energy Change          TolE            ....  1.000e-09 Eh
 1-El. energy change                    ....  1.000e-06 Eh
 DIIS Error             TolErr          ....  1.000e-08


Diagonalization of the overlap matrix:
Smallest eigenvalue                        ... 1.154e-02
Time for diagonalization                   ...    0.004 sec
Threshold for overlap eigenvalues          ... 1.000e-08
Number of eigenvalues below threshold      ... 0
Time for construction of square roots      ...    0.002 sec
Total time needed                          ...    0.005 sec

-------------------
DFT GRID GENERATION
-------------------

General Integration Accuracy     IntAcc      ...  4.340
Radial Grid Type                 RadialGrid  ... Gauss-Chebyshev
Angular Grid (max. acc.)         AngularGrid ... Lebedev-110
Angular grid pruning method      GridPruning ... 3 (G Style)
Weight generation scheme         WeightScheme... Becke
Basis function cutoff            BFCut       ...    1.0000e-12
Integration weight cutoff        WCut        ...    1.0000e-14
Grids for H and He will be reduced by one unit

# of grid points (after initial pruning)     ...   5802 (   0.0 sec)
# of grid points (after weights+screening)   ...   5778 (   0.0 sec)
nearest neighbour list constructed           ...    0.0 sec
Grid point re-assignment to atoms done       ...    0.0 sec
Grid point division into batches done        ...    0.0 sec
Reduced shell lists constructed in    0.0 sec

Total number of grid points                  ...     5778
Total number of batches                      ...       91
Average number of points per batch           ...       63
Average number of grid points per atom       ...     2889
Average number of shells per batch           ...     8.80 (25.88%)
Average number of basis functions per batch  ...    27.20 (24.29%)
Average number of large shells per batch     ...     7.20 (81.82%)
Average number of large basis fcns per batch ...    20.00 (73.53%)
Maximum spatial batch extension              ...  17.39, 26.34, 15.35 au
Average spatial batch extension              ...   0.70,  0.97,  0.67 au

Time for grid setup =    0.027 sec

------------------------------
INITIAL GUESS: MODEL POTENTIAL
------------------------------
Loading Hartree-Fock densities                     ... done
Calculating cut-offs                               ... done
Setting up the integral package                    ... done
Initializing the effective Hamiltonian             ... done
Starting the Coulomb interaction                   ... done (   0.0 sec)
Reading the grid                                   ... done
Mapping shells                                     ... done
Starting the XC term evaluation                    ... done (   0.0 sec)
Transforming the Hamiltonian                       ... done (   0.0 sec)
Diagonalizing the Hamiltonian                      ... done (   0.0 sec)
Back transforming the eigenvectors                 ... done (   0.0 sec)
Now organizing SCF variables                       ... done
                      ------------------
                      INITIAL GUESS DONE (   0.1 sec)
                      ------------------
--------------
SCF ITERATIONS
--------------
ITER       Energy         Delta-E        Max-DP      RMS-DP      [F,P]     Damp
               ***  Starting incremental Fock matrix formation  ***
  0  -4350.0660261479   0.000000000000 0.03212101  0.00079353  0.3916090 0.7000
  1  -4350.1390233671  -0.072997219244 0.02573464  0.00055150  0.1781425 0.7000
                               ***Turning on DIIS***
  2  -4350.1780307634  -0.039007396330 0.05973698  0.00123930  0.0811289 0.0000
  3  -4350.7550691214  -0.577038357958 0.04956736  0.00054240  0.0780712 0.0000
  4  -4349.8346861995   0.920382921919 0.02858757  0.00027251  0.0335210 0.0000
  5  -4350.2257895441  -0.391103344596 0.02035279  0.00019130  0.0062995 0.0000
  6  -4350.2737474531  -0.047957909007 0.01379040  0.00013487  0.0039660 0.0000
  7  -4350.2795681483  -0.005820695162 0.00639220  0.00007262  0.0021902 0.0000
  8  -4350.2785455086   0.001022639652 0.00239192  0.00003879  0.0012357 0.0000
  9  -4350.2717790463   0.006766462309 0.00129948  0.00003406  0.0006709 0.0000
 10  -4350.2677362645   0.004042781788 0.00033322  0.00000763  0.0001546 0.0000
 11  -4350.2679351347  -0.000198870241 0.00024362  0.00000400  0.0000622 0.0000
 12  -4350.2671054057   0.000829729013 0.00012587  0.00000228  0.0000303 0.0000
 13  -4350.2674715091  -0.000366103388 0.00005031  0.00000096  0.0000138 0.0000
 14  -4350.2672838831   0.000187625989 0.00002479  0.00000049  0.0000061 0.0000
 15  -4350.2673516276  -0.000067744436 0.00000460  0.00000011  0.0000023 0.0000
 16  -4350.2673607088  -0.000009081272 0.00000189  0.00000003  0.0000010 0.0000
 17  -4350.2673664068  -0.000005697984 0.00000064  0.00000001  0.0000003 0.0000
 18  -4350.2673653638   0.000001043012 0.00000022  0.00000001  0.0000001 0.0000
 19  -4350.2673647443   0.000000619518 0.00000015  0.00000000  0.0000001 0.0000
               *** Restarting incremental Fock matrix formation ***
                                   *** Resetting DIIS ***
 20  -4350.2673651224  -0.000000378058 0.00000012  0.00000000  0.0000001 0.0000
 21  -4350.2673649417   0.000000180626 0.00000006  0.00000000  0.0000000 0.0000
 22  -4350.2673652804  -0.000000338672 0.00000017  0.00000000  0.0000000 0.0000
                            ***DIIS convergence achieved***

               *****************************************************
               *                     SUCCESS                       *
               *           SCF CONVERGED AFTER  23 CYCLES          *
               *****************************************************


----------------
TOTAL SCF ENERGY
----------------

Total Energy       :        -4350.26736509 Eh         -118376.79316 eV

Components:
Nuclear Repulsion  :          240.76309061 Eh            6551.49677 eV
Electronic Energy  :        -4591.03045570 Eh         -124928.28993 eV
One Electron Energy:        -6547.69973816 Eh         -178171.96796 eV
Two Electron Energy:         1956.66928245 Eh           53243.67803 eV

Virial components:
Potential Energy   :        -8700.46468613 Eh         -236751.68033 eV
Kinetic Energy     :         4350.19732103 Eh          118374.88717 eV
Virial Ratio       :            2.00001610


---------------
SCF CONVERGENCE
---------------

  Last Energy change         ...    1.8662e-07  Tolerance :   1.0000e-09
  Last MAX-Density change    ...    3.3290e-08  Tolerance :   1.0000e-08
  Last RMS-Density change    ...    6.0275e-10  Tolerance :   1.0000e-09
  Last DIIS Error            ...    8.7390e-09  Tolerance :   1.0000e-08

             **** THE GBW FILE WAS UPDATED (58_ZnBr.gbw) ****
             **** DENSITY FILE WAS UPDATED (58_ZnBr.scfp) ****
             **** ENERGY FILE WAS UPDATED (58_ZnBr.en.tmp) ****
----------------------
UHF SPIN CONTAMINATION
----------------------

Expectation value of <S**2>     :     0.754945
Ideal value S*(S+1) for S=0.5   :     0.750000
Deviation                       :     0.004945

             **** THE GBW FILE WAS UPDATED (58_ZnBr.gbw) ****
             **** DENSITY FILE WAS UPDATED (58_ZnBr.scfp) ****
----------------
ORBITAL ENERGIES
----------------
                 SPIN UP ORBITALS
  NO   OCC          E(Eh)            E(eV) 
   0   1.0000    -489.984778    -13333.1637 
   1   1.0000    -353.371869     -9615.7374 
   2   1.0000     -65.127466     -1772.2085 
   3   1.0000     -58.482728     -1591.3959 
   4   1.0000     -58.481510     -1591.3628 
   5   1.0000     -58.481510     -1591.3628 
   6   1.0000     -44.428351     -1208.9569 
   7   1.0000     -38.992285     -1061.0340 
   8   1.0000     -38.992285     -1061.0340 
   9   1.0000     -38.990911     -1060.9966 
  10   1.0000      -9.801226      -266.7049 
  11   1.0000      -7.412128      -201.6943 
  12   1.0000      -7.407522      -201.5689 
  13   1.0000      -7.407522      -201.5689 
  14   1.0000      -5.707554      -155.3104 
  15   1.0000      -3.910479      -106.4095 
  16   1.0000      -3.910479      -106.4095 
  17   1.0000      -3.908892      -106.3664 
  18   1.0000      -3.152126       -85.7737 
  19   1.0000      -3.150659       -85.7338 
  20   1.0000      -3.150659       -85.7338 
  21   1.0000      -3.146985       -85.6338 
  22   1.0000      -3.146985       -85.6338 
  23   1.0000      -0.978142       -26.6166 
  24   1.0000      -0.853769       -23.2322 
  25   1.0000      -0.853769       -23.2322 
  26   1.0000      -0.851048       -23.1582 
  27   1.0000      -0.851048       -23.1582 
  28   1.0000      -0.845300       -23.0018 
  29   1.0000      -0.475338       -12.9346 
  30   1.0000      -0.400671       -10.9028 
  31   1.0000      -0.400671       -10.9028 
  32   1.0000      -0.318452        -8.6655 
  33   0.0000       0.036885         1.0037 
  34   0.0000       0.036885         1.0037 
  35   0.0000       0.108659         2.9568 
  36   0.0000       0.194929         5.3043 
  37   0.0000       0.271874         7.3981 
  38   0.0000       0.271874         7.3981 
  39   0.0000       0.293535         7.9875 
  40   0.0000       0.310660         8.4535 
  41   0.0000       0.310660         8.4535 
  42   0.0000       0.323230         8.7955 
  43   0.0000       0.349807         9.5187 
  44   0.0000       0.349807         9.5187 
  45   0.0000       0.418035        11.3753 
  46   0.0000       0.418035        11.3753 
  47   0.0000       0.506767        13.7898 
  48   0.0000       0.506767        13.7898 
  49   0.0000       0.543772        14.7968 
  50   0.0000       0.640842        17.4382 
  51   0.0000       0.640842        17.4382 
  52   0.0000       0.648619        17.6498 
  53   0.0000       1.128575        30.7101 
  54   0.0000       1.352878        36.8137 
  55   0.0000       1.352878        36.8137 
  56   0.0000       1.377730        37.4899 
  57   0.0000       1.377730        37.4899 
  58   0.0000       1.409698        38.3598 
  59   0.0000       1.632787        44.4304 
  60   0.0000       1.632787        44.4304 
  61   0.0000       1.693580        46.0847 
  62   0.0000       1.693580        46.0847 
  63   0.0000       1.747457        47.5507 
  64   0.0000       1.838301        50.0227 
  65   0.0000       1.838301        50.0227 
  66   0.0000       1.844424        50.1893 
  67   0.0000       1.844424        50.1893 
  68   0.0000       1.928566        52.4789 
  69   0.0000       1.937654        52.7262 
  70   0.0000       1.937654        52.7262 
  71   0.0000       1.953856        53.1671 
  72   0.0000       1.953856        53.1671 
  73   0.0000       2.297529        62.5189 
  74   0.0000       2.713572        73.8400 
  75   0.0000       2.713572        73.8400 
  76   0.0000       2.854603        77.6777 
  77   0.0000       4.034917       109.7957 
  78   0.0000       4.216247       114.7299 
  79   0.0000       4.216247       114.7299 
  80   0.0000       4.220886       114.8561 
  81   0.0000       4.220886       114.8561 
  82   0.0000       4.248879       115.6179 
  83   0.0000       4.248879       115.6179 
  84   0.0000       4.316583       117.4602 
  85   0.0000       4.472857       121.7126 
  86   0.0000       4.472857       121.7126 
  87   0.0000       4.534237       123.3829 
  88   0.0000       4.534237       123.3829 
  89   0.0000       4.655381       126.6793 
  90   0.0000       5.320181       144.7695 
  91   0.0000       5.320181       144.7695 
  92   0.0000       5.374797       146.2557 
  93   0.0000       5.374797       146.2557 
  94   0.0000       5.563244       151.3836 
  95   0.0000       8.018476       218.1938 
  96   0.0000      14.981341       407.6630 
  97   0.0000      14.981341       407.6630 
  98   0.0000      14.984259       407.7424 
  99   0.0000      14.984259       407.7424 
 100   0.0000      14.986146       407.7938 
 101   0.0000      14.986146       407.7938 
 102   0.0000      14.987392       407.8277 
 103   0.0000      14.987392       407.8277 
 104   0.0000      14.988688       407.8629 
 105   0.0000      15.834333       430.8741 
 106   0.0000      15.834333       430.8741 
 107   0.0000      15.838565       430.9893 
 108   0.0000      15.838565       430.9893 
 109   0.0000      15.849177       431.2780 
 110   0.0000      15.849177       431.2780 
 111   0.0000      15.887126       432.3107 

                 SPIN DOWN ORBITALS
  NO   OCC          E(Eh)            E(eV) 
   0   1.0000    -489.984120    -13333.1458 
   1   1.0000    -353.369731     -9615.6792 
   2   1.0000     -65.127062     -1772.1975 
   3   1.0000     -58.481330     -1591.3579 
   4   1.0000     -58.481330     -1591.3579 
   5   1.0000     -58.481028     -1591.3497 
   6   1.0000     -44.427295     -1208.9282 
   7   1.0000     -38.993170     -1061.0581 
   8   1.0000     -38.993170     -1061.0581 
   9   1.0000     -38.990633     -1060.9891 
  10   1.0000      -9.799885      -266.6684 
  11   1.0000      -7.408002      -201.5820 
  12   1.0000      -7.407196      -201.5600 
  13   1.0000      -7.407196      -201.5600 
  14   1.0000      -5.702474      -155.1722 
  15   1.0000      -3.910083      -106.3988 
  16   1.0000      -3.910083      -106.3988 
  17   1.0000      -3.908684      -106.3607 
  18   1.0000      -3.150642       -85.7333 
  19   1.0000      -3.149468       -85.7014 
  20   1.0000      -3.149468       -85.7014 
  21   1.0000      -3.146888       -85.6312 
  22   1.0000      -3.146888       -85.6312 
  23   1.0000      -0.966067       -26.2880 
  24   1.0000      -0.853416       -23.2226 
  25   1.0000      -0.853416       -23.2226 
  26   1.0000      -0.851643       -23.1744 
  27   1.0000      -0.851643       -23.1744 
  28   1.0000      -0.843240       -22.9457 
  29   1.0000      -0.443187       -12.0597 
  30   1.0000      -0.398809       -10.8522 
  31   1.0000      -0.398809       -10.8522 
  32   0.0000      -0.004974        -0.1354 
  33   0.0000       0.069486         1.8908 
  34   0.0000       0.069486         1.8908 
  35   0.0000       0.127164         3.4603 
  36   0.0000       0.233328         6.3492 
  37   0.0000       0.293224         7.9790 
  38   0.0000       0.293224         7.9790 
  39   0.0000       0.324224         8.8226 
  40   0.0000       0.324224         8.8226 
  41   0.0000       0.328612         8.9420 
  42   0.0000       0.348500         9.4832 
  43   0.0000       0.378231        10.2922 
  44   0.0000       0.378231        10.2922 
  45   0.0000       0.421561        11.4713 
  46   0.0000       0.421561        11.4713 
  47   0.0000       0.508830        13.8460 
  48   0.0000       0.508830        13.8460 
  49   0.0000       0.561201        15.2710 
  50   0.0000       0.651096        17.7172 
  51   0.0000       0.651096        17.7172 
  52   0.0000       0.661874        18.0105 
  53   0.0000       1.134347        30.8672 
  54   0.0000       1.368784        37.2465 
  55   0.0000       1.368784        37.2465 
  56   0.0000       1.393143        37.9093 
  57   0.0000       1.393143        37.9093 
  58   0.0000       1.422250        38.7014 
  59   0.0000       1.633718        44.4557 
  60   0.0000       1.633718        44.4557 
  61   0.0000       1.701258        46.2936 
  62   0.0000       1.701258        46.2936 
  63   0.0000       1.758875        47.8614 
  64   0.0000       1.841960        50.1223 
  65   0.0000       1.841960        50.1223 
  66   0.0000       1.844381        50.1882 
  67   0.0000       1.844381        50.1882 
  68   0.0000       1.936719        52.7008 
  69   0.0000       1.940146        52.7941 
  70   0.0000       1.940146        52.7941 
  71   0.0000       1.959612        53.3237 
  72   0.0000       1.959612        53.3237 
  73   0.0000       2.314245        62.9738 
  74   0.0000       2.724846        74.1468 
  75   0.0000       2.724846        74.1468 
  76   0.0000       2.870414        78.1079 
  77   0.0000       4.047633       110.1417 
  78   0.0000       4.220401       114.8429 
  79   0.0000       4.220401       114.8429 
  80   0.0000       4.226056       114.9968 
  81   0.0000       4.226056       114.9968 
  82   0.0000       4.254423       115.7687 
  83   0.0000       4.254423       115.7687 
  84   0.0000       4.321720       117.6000 
  85   0.0000       4.473254       121.7234 
  86   0.0000       4.473254       121.7234 
  87   0.0000       4.536977       123.4574 
  88   0.0000       4.536977       123.4574 
  89   0.0000       4.658400       126.7615 
  90   0.0000       5.322606       144.8355 
  91   0.0000       5.322606       144.8355 
  92   0.0000       5.377453       146.3279 
  93   0.0000       5.377453       146.3279 
  94   0.0000       5.567730       151.5056 
  95   0.0000       8.020506       218.2491 
  96   0.0000      14.980789       407.6480 
  97   0.0000      14.980789       407.6480 
  98   0.0000      14.983535       407.7227 
  99   0.0000      14.983535       407.7227 
 100   0.0000      14.985431       407.7743 
 101   0.0000      14.985431       407.7743 
 102   0.0000      14.986734       407.8098 
 103   0.0000      14.986734       407.8098 
 104   0.0000      14.988069       407.8461 
 105   0.0000      15.834411       430.8762 
 106   0.0000      15.834411       430.8762 
 107   0.0000      15.837601       430.9630 
 108   0.0000      15.837601       430.9630 
 109   0.0000      15.848049       431.2473 
 110   0.0000      15.848049       431.2473 
 111   0.0000      15.885962       432.2790 

                    ********************************
                    * MULLIKEN POPULATION ANALYSIS *
                    ********************************

--------------------------------------------
MULLIKEN ATOMIC CHARGES AND SPIN POPULATIONS
--------------------------------------------
   0 Zn:    0.465019    0.910115
   1 Br:   -0.465019    0.089885
Sum of atomic charges         :   -0.0000000
Sum of atomic spin populations:    1.0000000

-----------------------------------------------------
MULLIKEN REDUCED ORBITAL CHARGES AND SPIN POPULATIONS
-----------------------------------------------------
CHARGE
  0 Zns       :     7.041496  s :     7.041496
      pz      :     4.361488  p :    12.456902
      px      :     4.047707
      py      :     4.047707
      dz2     :     2.006788  d :    10.036375
      dxz     :     2.014886
      dyz     :     2.014886
      dx2y2   :     1.999907
      dxy     :     1.999907
      f0      :     0.000117  f :     0.000207
      f+1     :     0.000045
      f-1     :     0.000045
      f+2     :     0.000000
      f-2     :     0.000000
      f+3     :     0.000000
      f-3     :     0.000000
      g0      :     0.000000  g :     0.000001
      g+1     :     0.000000
      g-1     :     0.000000
      g+2     :     0.000000
      g-2     :     0.000000
      g+3     :     0.000000
      g-3     :     0.000000
      g+4     :     0.000000
      g-4     :     0.000000
  1 Brs       :     7.938432  s :     7.938432
      pz      :     5.638193  p :    17.502758
      px      :     5.932283
      py      :     5.932283
      dz2     :     2.012621  d :    10.022183
      dxz     :     2.004704
      dyz     :     2.004704
      dx2y2   :     2.000077
      dxy     :     2.000077
      f0      :     0.000865  f :     0.001647
      f+1     :     0.000376
      f-1     :     0.000376
      f+2     :     0.000016
      f-2     :     0.000016
      f+3     :     0.000000
      f-3     :     0.000000

SPIN
  0 Zns       :     0.692390  s :     0.692390
      pz      :     0.209717  p :     0.221011
      px      :     0.005647
      py      :     0.005647
      dz2     :    -0.000201  d :    -0.003296
      dxz     :    -0.001562
      dyz     :    -0.001562
      dx2y2   :     0.000014
      dxy     :     0.000014
      f0      :     0.000010  f :     0.000010
      f+1     :     0.000000
      f-1     :     0.000000
      f+2     :    -0.000000
      f-2     :    -0.000000
      f+3     :    -0.000000
      f-3     :    -0.000000
      g0      :     0.000000  g :     0.000000
      g+1     :    -0.000000
      g-1     :    -0.000000
      g+2     :     0.000000
      g-2     :     0.000000
      g+3     :    -0.000000
      g-3     :    -0.000000
      g+4     :    -0.000000
      g-4     :    -0.000000
  1 Brs       :     0.005169  s :     0.005169
      pz      :     0.094955  p :     0.086500
      px      :    -0.004228
      py      :    -0.004228
      dz2     :    -0.002008  d :    -0.001838
      dxz     :     0.000098
      dyz     :     0.000098
      dx2y2   :    -0.000013
      dxy     :    -0.000013
      f0      :    -0.000031  f :     0.000055
      f+1     :     0.000044
      f-1     :     0.000044
      f+2     :    -0.000001
      f-2     :    -0.000001
      f+3     :    -0.000000
      f-3     :    -0.000000


                     *******************************
                     * LOEWDIN POPULATION ANALYSIS *
                     *******************************

-------------------------------------------
LOEWDIN ATOMIC CHARGES AND SPIN POPULATIONS
-------------------------------------------
   0 Zn:    0.049626    0.913217
   1 Br:   -0.049626    0.086783

----------------------------------------------------
LOEWDIN REDUCED ORBITAL CHARGES AND SPIN POPULATIONS
----------------------------------------------------
CHARGE
  0 Zns       :     7.009542  s :     7.009542
      pz      :     4.537526  p :    12.695325
      px      :     4.078899
      py      :     4.078899
      dz2     :     2.112428  d :    10.245073
      dxz     :     2.066430
      dyz     :     2.066430
      dx2y2   :     1.999892
      dxy     :     1.999892
      f0      :     0.000262  f :     0.000432
      f+1     :     0.000085
      f-1     :     0.000085
      f+2     :     0.000000
      f-2     :     0.000000
      f+3     :     0.000000
      f-3     :     0.000000
      g0      :     0.000001  g :     0.000001
      g+1     :     0.000000
      g-1     :     0.000000
      g+2     :     0.000000
      g-2     :     0.000000
      g+3     :     0.000000
      g-3     :     0.000000
      g+4     :     0.000000
      g-4     :     0.000000
  1 Brs       :     7.653594  s :     7.653594
      pz      :     5.657609  p :    17.358232
      px      :     5.850311
      py      :     5.850311
      dz2     :     2.027190  d :    10.034834
      dxz     :     2.003735
      dyz     :     2.003735
      dx2y2   :     2.000088
      dxy     :     2.000088
      f0      :     0.001849  f :     0.002967
      f+1     :     0.000539
      f-1     :     0.000539
      f+2     :     0.000020
      f-2     :     0.000020
      f+3     :     0.000000
      f-3     :     0.000000

SPIN
  0 Zns       :     0.640237  s :     0.640237
      pz      :     0.260026  p :     0.270714
      px      :     0.005344
      py      :     0.005344
      dz2     :     0.006123  d :     0.002223
      dxz     :    -0.001950
      dyz     :    -0.001950
      dx2y2   :     0.000001
      dxy     :     0.000001
      f0      :     0.000042  f :     0.000043
      f+1     :     0.000000
      f-1     :     0.000000
      f+2     :    -0.000000
      f-2     :    -0.000000
      f+3     :    -0.000000
      f-3     :    -0.000000
      g0      :     0.000000  g :     0.000000
      g+1     :     0.000000
      g-1     :     0.000000
      g+2     :     0.000000
      g-2     :     0.000000
      g+3     :    -0.000000
      g-3     :    -0.000000
      g+4     :    -0.000000
      g-4     :    -0.000000
  1 Brs       :     0.003863  s :     0.003863
      pz      :     0.087375  p :     0.080365
      px      :    -0.003505
      py      :    -0.003505
      dz2     :     0.002235  d :     0.002403
      dxz     :     0.000085
      dyz     :     0.000085
      dx2y2   :    -0.000001
      dxy     :    -0.000001
      f0      :     0.000100  f :     0.000153
      f+1     :     0.000026
      f-1     :     0.000026
      f+2     :     0.000001
      f-2     :     0.000001
      f+3     :    -0.000000
      f-3     :    -0.000000


                      *****************************
                      * MAYER POPULATION ANALYSIS *
                      *****************************

  NA   - Mulliken gross atomic population
  ZA   - Total nuclear charge
  QA   - Mulliken gross atomic charge
  VA   - Mayer's total valence
  BVA  - Mayer's bonded valence
  FA   - Mayer's free valence

  ATOM       NA         ZA         QA         VA         BVA        FA
  0 Zn    29.5350    30.0000     0.4650     1.7836     0.8804     0.9032
  1 Br    35.4650    35.0000    -0.4650     0.8944     0.8804     0.0140

  Mayer bond orders larger than 0.100000
B(  0-Zn,  1-Br) :   0.8804 

-------
TIMINGS
-------

Total SCF time: 0 days 0 hours 0 min 4 sec 

Total time                  ....       4.350 sec
Sum of individual times     ....       4.103 sec  ( 94.3%)

Fock matrix formation       ....       3.841 sec  ( 88.3%)
Diagonalization             ....       0.073 sec  (  1.7%)
Density matrix formation    ....       0.011 sec  (  0.3%)
Population analysis         ....       0.005 sec  (  0.1%)
Initial guess               ....       0.110 sec  (  2.5%)
Orbital Transformation      ....       0.000 sec  (  0.0%)
Orbital Orthonormalization  ....       0.000 sec  (  0.0%)
DIIS solution               ....       0.034 sec  (  0.8%)


           ************************************************************
           *        Program running with 24 parallel MPI-processes    *
           *              working on a common directory               *
           ************************************************************


------------------------------------------------------------------------------- 
                              ORCA-MATRIX DRIVEN CI                            
------------------------------------------------------------------------------- 

--------------------------------
AUTOMATIC CHOICE OF INCORE LEVEL
--------------------------------

Memory available                           ...   2500.00 MB
Memory needed for S+T                      ...     27.14 MB
Memory needed for J+K                      ...     54.51 MB
Memory needed for DIIS                     ...    379.97 MB
Memory needed for 3-ext                    ...     71.47 MB
Memory needed for 4-ext                    ...    150.46 MB
Memory needed for triples                  ...     18.81 MB
 -> Final InCoreLevel    ... 5
 -> check shows that triples correction can be computed


Wavefunction type
-----------------
Correlation treatment                      ...      CCSD     
Single excitations                         ... ON
Orbital optimization                       ... OFF
Calculation of Z vector                    ... OFF
Calculation of Brueckner orbitals          ... OFF
Perturbative triple excitations            ... ON
Calculation of F12 correction              ... OFF
Frozen core treatment                      ... chemical core (28 el)
Reference Wavefunction                     ... UHF
  Alpha-MOs occ    :    14 ...   32 ( 19 MO's/ 19 electrons)
  Beta-MOs occ     :    14 ...   31 ( 18 MO's/ 18 electrons)
  Alpha-MOs virt   :    33 ...  111 ( 79 MO's              )
  Beta-MOs virt    :    32 ...  111 ( 80 MO's              )
Number of AO's                             ...    112
Number of electrons                        ...     65
Number of correlated electrons             ...     37

Algorithmic settings
--------------------
Integral transformation                    ... AO direct full transformation
K(C) Formation                             ... FULL-MO TRAFO
Maximum number of iterations               ...        50
Convergence tolerance (max. residuum)      ... 1.000e-06
Level shift for amplitude update           ... 2.000e-01
Maximum number of DIIS vectors             ...         7
DIIS turned on at iteration                ...         0
Damping before turning on DIIS             ...     0.500
Damping after turning on DIIS              ...     0.000
Pair specific amplitude update             ... OFF
Natural orbital iterations                 ... OFF
Perturbative natural orbital generation    ... OFF
Printlevel                                 ... 2

Memory handling:
----------------
Maximum memory for working arrays          ...   2500 MB
Data storage in matrix containers          ... UNCOMPRESSED
Data type for integral storage             ... DOUBLE
In-Core Storage of quantities:
   Amplitudes+Sigma Vector      ... YES
   J+K operators                ... YES
   DIIS vectors                 ... YES
   3-external integrals         ... YES
   4-external integrals         ... YES


Initializing the integral package          ... done
Warning: reference  - re-canonicalizations have been set to INT 1 VIRT 1

--------------------------
UNRESTRICTED FOCK OPERATOR
--------------------------

<ss|ss>:         2278 b           24 skpd (  1.1%)    0.001 s ( 0.000 ms/b)
<ss|sp>:         7303 b          115 skpd (  1.6%)    0.002 s ( 0.000 ms/b)
<ss|sd>:         6097 b          124 skpd (  2.0%)    0.002 s ( 0.000 ms/b)
<ss|sf>:         2211 b           87 skpd (  3.9%)    0.001 s ( 0.000 ms/b)
<ss|sg>:          603 b           14 skpd (  2.3%)    0.001 s ( 0.001 ms/b)
<ss|pp>:         3484 b           34 skpd (  1.0%)    0.002 s ( 0.001 ms/b)
<ss|pd>:         5226 b          107 skpd (  2.0%)    0.005 s ( 0.001 ms/b)
<ss|pf>:         1943 b           68 skpd (  3.5%)    0.001 s ( 0.000 ms/b)
<ss|pg>:          603 b           18 skpd (  3.0%)    0.001 s ( 0.001 ms/b)
<ss|dd>:         2412 b           70 skpd (  2.9%)    0.002 s ( 0.001 ms/b)
<ss|df>:         1541 b           42 skpd (  2.7%)    0.001 s ( 0.000 ms/b)
<ss|dg>:          536 b           40 skpd (  7.5%)    0.001 s ( 0.002 ms/b)
<ss|ff>:          402 b           10 skpd (  2.5%)    0.001 s ( 0.002 ms/b)
<ss|fg>:          201 b            5 skpd (  2.5%)    0.000 s ( 0.002 ms/b)
<ss|gg>:           67 b            1 skpd (  1.5%)    0.001 s ( 0.010 ms/b)
<sp|sp>:         5995 b          138 skpd (  2.3%)    0.002 s ( 0.000 ms/b)
<sp|sd>:         9919 b          325 skpd (  3.3%)    0.003 s ( 0.000 ms/b)
<sp|sf>:         3597 b          234 skpd (  6.5%)    0.001 s ( 0.000 ms/b)
<sp|sg>:          981 b           35 skpd (  3.6%)    0.001 s ( 0.001 ms/b)
<sp|pp>:         5668 b           59 skpd (  1.0%)    0.004 s ( 0.001 ms/b)
<sp|pd>:         8502 b          174 skpd (  2.0%)    0.005 s ( 0.001 ms/b)
<sp|pf>:         3161 b          112 skpd (  3.5%)    0.002 s ( 0.001 ms/b)
<sp|pg>:          981 b           26 skpd (  2.7%)    0.002 s ( 0.002 ms/b)
<sp|dd>:         3924 b          152 skpd (  3.9%)    0.006 s ( 0.002 ms/b)
<sp|df>:         2507 b           49 skpd (  2.0%)    0.002 s ( 0.001 ms/b)
<sp|dg>:          872 b           92 skpd ( 10.6%)    0.003 s ( 0.003 ms/b)
<sp|ff>:          654 b            9 skpd (  1.4%)    0.001 s ( 0.002 ms/b)
<sp|fg>:          327 b            5 skpd (  1.5%)    0.002 s ( 0.005 ms/b)
<sp|gg>:          109 b            1 skpd (  0.9%)    0.002 s ( 0.020 ms/b)
<sd|sd>:         4186 b          182 skpd (  4.3%)    0.003 s ( 0.001 ms/b)
<sd|sf>:         3003 b          282 skpd (  9.4%)    0.001 s ( 0.001 ms/b)
<sd|sg>:          819 b           45 skpd (  5.5%)    0.002 s ( 0.002 ms/b)
<sd|pp>:         4732 b           97 skpd (  2.0%)    0.005 s ( 0.001 ms/b)
<sd|pd>:         7098 b          245 skpd (  3.5%)    0.008 s ( 0.001 ms/b)
<sd|pf>:         2639 b          178 skpd (  6.7%)    0.003 s ( 0.001 ms/b)
<sd|pg>:          819 b           49 skpd (  6.0%)    0.003 s ( 0.004 ms/b)
<sd|dd>:         3276 b          106 skpd (  3.2%)    0.010 s ( 0.003 ms/b)
<sd|df>:         2093 b           70 skpd (  3.3%)    0.004 s ( 0.002 ms/b)
<sd|dg>:          728 b           97 skpd ( 13.3%)    0.005 s ( 0.007 ms/b)
<sd|ff>:          546 b           20 skpd (  3.7%)    0.002 s ( 0.004 ms/b)
<sd|fg>:          273 b           12 skpd (  4.4%)    0.003 s ( 0.011 ms/b)
<sd|gg>:           91 b            2 skpd (  2.2%)    0.004 s ( 0.044 ms/b)
<sf|sf>:          561 b           90 skpd ( 16.0%)    0.000 s ( 0.001 ms/b)
<sf|sg>:          297 b           37 skpd ( 12.5%)    0.001 s ( 0.003 ms/b)
<sf|pp>:         1716 b           81 skpd (  4.7%)    0.003 s ( 0.002 ms/b)
<sf|pd>:         2574 b          239 skpd (  9.3%)    0.003 s ( 0.001 ms/b)
<sf|pf>:          957 b          118 skpd ( 12.3%)    0.002 s ( 0.002 ms/b)
<sf|pg>:          297 b           35 skpd ( 11.8%)    0.002 s ( 0.007 ms/b)
<sf|dd>:         1188 b          107 skpd (  9.0%)    0.005 s ( 0.005 ms/b)
<sf|df>:          759 b           77 skpd ( 10.1%)    0.002 s ( 0.003 ms/b)
<sf|dg>:          264 b           56 skpd ( 21.2%)    0.002 s ( 0.011 ms/b)
<sf|ff>:          198 b           18 skpd (  9.1%)    0.001 s ( 0.007 ms/b)
<sf|fg>:           99 b            9 skpd (  9.1%)    0.002 s ( 0.017 ms/b)
<sf|gg>:           33 b            3 skpd (  9.1%)    0.002 s ( 0.067 ms/b)
<sg|sg>:           45 b            3 skpd (  6.7%)    0.000 s ( 0.005 ms/b)
<sg|pp>:          468 b            8 skpd (  1.7%)    0.001 s ( 0.003 ms/b)
<sg|pd>:          702 b           25 skpd (  3.6%)    0.002 s ( 0.003 ms/b)
<sg|pf>:          261 b           15 skpd (  5.7%)    0.001 s ( 0.003 ms/b)
<sg|pg>:           81 b            4 skpd (  4.9%)    0.001 s ( 0.013 ms/b)
<sg|dd>:          324 b           14 skpd (  4.3%)    0.002 s ( 0.007 ms/b)
<sg|df>:          207 b            9 skpd (  4.3%)    0.001 s ( 0.005 ms/b)
<sg|dg>:           72 b           14 skpd ( 19.4%)    0.001 s ( 0.022 ms/b)
<sg|ff>:           54 b            2 skpd (  3.7%)    0.000 s ( 0.009 ms/b)
<sg|fg>:           27 b            2 skpd (  7.4%)    0.001 s ( 0.032 ms/b)
<sg|gg>:            9 b            1 skpd ( 11.1%)    0.001 s ( 0.125 ms/b)
<pp|pp>:         1378 b            3 skpd (  0.2%)    0.003 s ( 0.002 ms/b)
<pp|pd>:         4056 b           19 skpd (  0.5%)    0.006 s ( 0.002 ms/b)
<pp|pf>:         1508 b           20 skpd (  1.3%)    0.003 s ( 0.002 ms/b)
<pp|pg>:          468 b            3 skpd (  0.6%)    0.003 s ( 0.006 ms/b)
<pp|dd>:         1872 b           36 skpd (  1.9%)    0.008 s ( 0.004 ms/b)
<pp|df>:         1196 b            4 skpd (  0.3%)    0.003 s ( 0.003 ms/b)
<pp|dg>:          416 b           26 skpd (  6.2%)    0.004 s ( 0.009 ms/b)
<pp|ff>:          312 b            0 skpd (  0.0%)    0.002 s ( 0.006 ms/b)
<pp|fg>:          156 b            0 skpd (  0.0%)    0.002 s ( 0.015 ms/b)
<pp|gg>:           52 b            0 skpd (  0.0%)    0.003 s ( 0.064 ms/b)
<pd|pd>:         3081 b           40 skpd (  1.3%)    0.010 s ( 0.003 ms/b)
<pd|pf>:         2262 b           72 skpd (  3.2%)    0.007 s ( 0.003 ms/b)
<pd|pg>:          702 b           16 skpd (  2.3%)    0.008 s ( 0.011 ms/b)
<pd|dd>:         2808 b           66 skpd (  2.4%)    0.019 s ( 0.007 ms/b)
<pd|df>:         1794 b           27 skpd (  1.5%)    0.008 s ( 0.004 ms/b)
<pd|dg>:          624 b           68 skpd ( 10.9%)    0.010 s ( 0.018 ms/b)
<pd|ff>:          468 b            7 skpd (  1.5%)    0.005 s ( 0.010 ms/b)
<pd|fg>:          234 b            5 skpd (  2.1%)    0.007 s ( 0.028 ms/b)
<pd|gg>:           78 b            0 skpd (  0.0%)    0.009 s ( 0.122 ms/b)
<pf|pf>:          435 b           30 skpd (  6.9%)    0.002 s ( 0.004 ms/b)
<pf|pg>:          261 b           13 skpd (  5.0%)    0.003 s ( 0.013 ms/b)
<pf|dd>:         1044 b           59 skpd (  5.7%)    0.008 s ( 0.008 ms/b)
<pf|df>:          667 b           40 skpd (  6.0%)    0.003 s ( 0.006 ms/b)
<pf|dg>:          232 b           40 skpd ( 17.2%)    0.005 s ( 0.025 ms/b)
<pf|ff>:          174 b           10 skpd (  5.7%)    0.003 s ( 0.016 ms/b)
<pf|fg>:           87 b            6 skpd (  6.9%)    0.003 s ( 0.041 ms/b)
<pf|gg>:           29 b            2 skpd (  6.9%)    0.004 s ( 0.159 ms/b)
<pg|pg>:           45 b            1 skpd (  2.2%)    0.001 s ( 0.027 ms/b)
<pg|dd>:          324 b           13 skpd (  4.0%)    0.004 s ( 0.014 ms/b)
<pg|df>:          207 b            4 skpd (  1.9%)    0.002 s ( 0.009 ms/b)
<pg|dg>:           72 b           11 skpd ( 15.3%)    0.003 s ( 0.041 ms/b)
<pg|ff>:           54 b            1 skpd (  1.9%)    0.001 s ( 0.020 ms/b)
<pg|fg>:           27 b            2 skpd (  7.4%)    0.002 s ( 0.073 ms/b)
<pg|gg>:            9 b            1 skpd ( 11.1%)    0.002 s ( 0.249 ms/b)
<dd|dd>:          666 b           16 skpd (  2.4%)    0.014 s ( 0.021 ms/b)
<dd|df>:          828 b           15 skpd (  1.8%)    0.006 s ( 0.008 ms/b)
<dd|dg>:          288 b           19 skpd (  6.6%)    0.009 s ( 0.032 ms/b)
<dd|ff>:          216 b            6 skpd (  2.8%)    0.004 s ( 0.018 ms/b)
<dd|fg>:          108 b            3 skpd (  2.8%)    0.005 s ( 0.052 ms/b)
<dd|gg>:           36 b            1 skpd (  2.8%)    0.008 s ( 0.219 ms/b)
<df|df>:          276 b            0 skpd (  0.0%)    0.004 s ( 0.015 ms/b)
<df|dg>:          184 b           20 skpd ( 10.9%)    0.006 s ( 0.037 ms/b)
<df|ff>:          138 b            0 skpd (  0.0%)    0.004 s ( 0.028 ms/b)
<df|fg>:           69 b            0 skpd (  0.0%)    0.005 s ( 0.073 ms/b)
<df|gg>:           23 b            0 skpd (  0.0%)    0.007 s ( 0.290 ms/b)
<dg|dg>:           36 b            8 skpd ( 22.2%)    0.003 s ( 0.090 ms/b)
<dg|ff>:           48 b            6 skpd ( 12.5%)    0.001 s ( 0.034 ms/b)
<dg|fg>:           24 b            3 skpd ( 12.5%)    0.002 s ( 0.117 ms/b)
<dg|gg>:            8 b            1 skpd ( 12.5%)    0.003 s ( 0.418 ms/b)
<ff|ff>:           21 b            0 skpd (  0.0%)    0.001 s ( 0.053 ms/b)
<ff|fg>:           18 b            0 skpd (  0.0%)    0.002 s ( 0.108 ms/b)
<ff|gg>:            6 b            0 skpd (  0.0%)    0.003 s ( 0.445 ms/b)
<fg|fg>:            6 b            0 skpd (  0.0%)    0.002 s ( 0.254 ms/b)
<fg|gg>:            3 b            0 skpd (  0.0%)    0.002 s ( 0.733 ms/b)
<gg|gg>:            1 b            0 skpd (  0.0%)    0.002 s ( 1.766 ms/b)
Recanonicalizing the internal orbitals
Recanonicalizing the virtual orbitals
Time needed for Fock operator              ...            0.413 sec
Reference energy                           ...  -4350.267365122
Warning: for UHF the TrafoType has to be JK
Warning: for UHF the K(C)-option cannot be MO but must be AOX

-------------------------------
PARTIAL EXCHANGE TRANSFORMATION
-------------------------------

Transformation type                        ... two-operators
Generation of integrals (i,mue|j,nue)      ... ON
Generation of integrals (mue,kappa|nue,tau)... ON
Generation of integrals (i,mue|a,nue)      ... ON
Dimension of the basis                     ...  112
Number of internal alpha-MOs               ...   19 (  14-  32)
Number of internal beta-MOs                ...   18 (  14-  31)
Number of external alpha-MOs               ...   79 (  33- 111)
Number of external beta-MOs                ...   80 (  32- 111)
Pair cutoff                                ... 0.000e+00 Eh
Number of AO pairs in the trafo            ... 6328
Total Number of distinct AO pairs          ... 6328
Memory devoted for trafo                   ... 2500.0 MB 
Max. Number of MO pairs treated together   ... 26122      
Number Format for Storage                  ... Double (8 Byte)
Integral package used                      ... LIBINT

Starting integral evaluation:
    ... done with AO integral generation
Closing buffer AOK[aa] ( 0.00 GB; CompressionRatio= 1.00)
Closing buffer AOK[bb] ( 0.00 GB; CompressionRatio= 1.00)
Closing buffer AOK[ab] ( 0.00 GB; CompressionRatio= 1.00)
Closing buffer AOK[ba] ( 0.00 GB; CompressionRatio= 1.00)
Collecting buffer AOK 
Closing buffer IAAO1[aa] ( 0.00 GB; CompressionRatio= 1.00)
Closing buffer IAAO1[bb] ( 0.00 GB; CompressionRatio= 1.00)
Closing buffer IAAO1[ab] ( 0.00 GB; CompressionRatio= 1.00)
Closing buffer IAAO1[ba] ( 0.00 GB; CompressionRatio= 1.00)
Closing buffer IAAO2[aa] ( 0.00 GB; CompressionRatio= 1.00)
Closing buffer IAAO2[bb] ( 0.00 GB; CompressionRatio= 1.00)
Closing buffer IAAO2[ab] ( 0.00 GB; CompressionRatio= 1.00)
Closing buffer IAAO2[ba] ( 0.00 GB; CompressionRatio= 1.00)
Collecting buffer IAAO 
Closing buffer PRQS    ( 0.01 GB; CompressionRatio= 1.00)
Collecting buffer PRQS 
Number of alpha/alpha MO pairs in trafo    ...  190
Number of beta /beta  MO pairs in trafo    ...  171
Number of alpha/ beta MO pairs in trafo    ...  342
------------------------
SORTING OF (i,mue|j,nue)
------------------------

SORTING OF ALPHA/ALPHA PAIRS
IBATCH = 1 of  1
Closing buffer KAO[aa] ( 0.00 GB; CompressionRatio= 1.00)
Collecting buffer KAO 
SORTING OF BETA /BETA  PAIRS
IBATCH = 1 of  1
Closing buffer KAO[bb] ( 0.00 GB; CompressionRatio= 1.00)
Collecting buffer KAO 
SORTING OF ALPHA/BETA  PAIRS
IBATCH = 1 of  1
Closing buffer KAO[ab] ( 0.00 GB; CompressionRatio= 0.999880435216)
Collecting buffer KAO[ab] 
------------------------
SORTING OF (i,mue|a,nue)
------------------------

Number of alpha/alpha (i,a) pairs in trafo  ... 1501
Number of beta /beta  (i,a) pairs in trafo  ... 1440
Number of alpha/ beta (i,a) pairs in trafo  ... 1520
Number of beta /alpha (i,a) pairs in trafo  ... 1422
Setting up the alpha/alpha list             ... done
Setting up the beta /beta  list             ... done
Setting up the alpha/beta  list             ... done
Setting up the beta /alpha list             ... done
    ... Now sorting (i,mue|a,nue)integrals
    ... Integrals (i,b|a,c) will be made on the fly
SORTING OF ALPHA/ALPHA PAIRS
IBATCH = 1 of  1
Closing buffer IPAQ[aa]  0.00 GB; CompressionRatio= 1.00)
SORTING OF BETA /BETA  PAIRS
IBATCH = 1 of  1
Closing buffer IPAQ[bb]( 0.00 GB; CompressionRatio= 1.00)
SORTING OF ALPHA/BETA  PAIRS (NMatSort_ab=64)
IBATCH = 1 of  1
Closing buffer IPAQ[ab]( 0.00 GB; CompressionRatio= 1.00)
SORTING OF BETA/ALPHA  PAIRS
IBATCH = 1 of  1
Closing buffer IPAQ[ba]( 0.00 GB; CompressionRatio= 1.00)
N(AO-Batches) Done                         ...     11214 
N(AO-Batches) Skipped                      ...         0 
N(IJ)-pairs Skipped                        ...         0 
TOTAL TIME for half transformation         ...     2.204 sec
AO-integral generation                     ...     0.141 sec
Half transformation                        ...     0.036 sec
K-integral sorting                         ...     1.296 sec
<ss|**>: 
------------------------------
PARTIAL COULOMB TRANSFORMATION
------------------------------

Transformation type                        ... two-operators
Dimension of the basis                     ...  112
Number of internal alpha-MOs               ...   19 (14-32)
Number of internal beta-MOs                ...   18 (14-31)
Pair cutoff                                ... 0.000e+00 Eh
Number of AO pairs included in the trafo   ... 6327
Total Number of distinct AO pairs          ... 6328
Memory devoted for trafo                   ... 2500.0 MB 
Max. Number of MO pairs treated together   ... 51782      
Max. Number of MOs treated per batch       ...  462      
Number Format for Storage                  ... Double (8 Byte)
AO-integral source                         ... DIRECT
Integral package used                      ... LIBINT

Starting integral evaluation:
       37118 b        0 skpd     0.014 s (  0.000 ms/b)
<sp|**>: <sd|**>:        60386 b        0 skpd     0.027 s (  0.000 ms/b)
       50414 b        0 skpd     0.039 s (  0.001 ms/b)
<sf|**>:        18282 b        0 skpd     0.017 s (  0.001 ms/b)
<sg|**>:         4986 b        0 skpd     0.026 s (  0.005 ms/b)
<pp|**>:        28808 b        0 skpd     0.042 s (  0.001 ms/b)
<pd|**>:        43212 b        0 skpd     0.074 s (  0.002 ms/b)
<pf|**>:        16066 b        0 skpd     0.034 s (  0.002 ms/b)
<pg|**>:         4986 b        0 skpd     0.039 s (  0.008 ms/b)
<dd|**>:        19944 b        0 skpd     0.097 s (  0.005 ms/b)
<df|**>:        12742 b        0 skpd     0.038 s (  0.003 ms/b)
<dg|**>:         4432 b        0 skpd     0.049 s (  0.011 ms/b)
<ff|**>:         3324 b        0 skpd     0.021 s (  0.006 ms/b)
<fg|**>:         1662 b        0 skpd     0.030 s (  0.018 ms/b)
<gg|**>:          554 b        0 skpd     0.045 s (  0.081 ms/b)
Closing buffer AOJ[aa] ( 0.00 GB; CompressionRatio= 0.99)
Closing buffer AOJ[bb] ( 0.00 GB; CompressionRatio= 0.00)
Collecting buffer AOJ 
    ... done with AO integral generation
Number of Alpha-MO pairs included          ...  190
Number of Beta-MO pairs included           ...  171
    ... Now sorting integrals
SORTING ALPHA/ALPHA PAIRS
IBATCH = 1 of  1
Closing buffer JAO[aa] ( 0.00 GB; CompressionRatio= 1.00)
SORTING BETA/BETA PAIRS
IBATCH = 1 of  1
Closing buffer JAO[bb] ( 0.00 GB; CompressionRatio= 1.00)
Collecting buffer JAO 
TOTAL TIME for half transformation         ...     0.639 sec
AO-integral generation                     ...     0.589 sec
Half transformation                        ...     0.017 sec
J-integral sorting                         ...     0.023 sec

-------------------------- SECOND HALF TRANSFORMATION -------------------------
Formation of (ij|kl),(ij|ka), (ij|ab)      ... ok (     0.124 sec)
Formation of (ik|jl),(ik|ja), (ia|jb)      ... ok (     0.236 sec)


-----------------------
SPIN UNRESTRICTED GUESS
-----------------------

Entering MDCI_UHF_Guess, Tailored=0
Spin-components of the MP2 energy:
EMP2(aa)=     -0.184869855
EMP2(bb)=     -0.173925130
EMP2(ab)=     -0.716500529

Initial guess performed in     0.114 sec
E(0)                                       ...  -4350.267365122
E(MP2)                                     ...     -1.075295515
Initial E(tot)                             ...  -4351.342660637
<T|T>                                      ...      0.169587894
Number of pairs included                   ... 666

------------------------------------------------
                  UHF COUPLED CLUSTER ITERATIONS
------------------------------------------------

Number of amplitudes to be optimized       ...      3186030

Iter       E(tot)           E(Corr)          Delta-E          Residual     Time      <S|S>**1/2
  0  -4351.342660637     -1.075295515      0.000000000      0.036831125    2.35      0.000000008
                           *** Turning on DIIS ***
  1  -4351.229588430     -0.962223307      0.113072207      0.013997374    2.57      0.059919780
  2  -4351.265557118     -0.998191996     -0.035968688      0.005288452    2.70      0.052757770
  3  -4351.266701775     -0.999336653     -0.001144657      0.004152869    2.69      0.063648988
  4  -4351.268164775     -1.000799653     -0.001463000      0.003021982    2.76      0.070111856
  5  -4351.268850793     -1.001485671     -0.000686018      0.001740263    2.80      0.076782938
  6  -4351.269027751     -1.001662628     -0.000176957      0.000882262    2.88      0.080614156
  7  -4351.269060352     -1.001695229     -0.000032601      0.000338748    2.89      0.082433808
  8  -4351.269090666     -1.001725544     -0.000030314      0.000092008    2.82      0.083054184
  9  -4351.269092270     -1.001727148     -0.000001604      0.000032399    2.79      0.083129038
 10  -4351.269092886     -1.001727764     -0.000000616      0.000017619    2.83      0.083145663
 11  -4351.269094107     -1.001728984     -0.000001221      0.000007852    2.86      0.083130349
 12  -4351.269091758     -1.001726636      0.000002348      0.000003824    2.85      0.083128458
 13  -4351.269092292     -1.001727169     -0.000000534      0.000001783    2.87      0.083125457
 14  -4351.269092079     -1.001726956      0.000000213      0.000000790    2.87      0.083124660
               --- The Coupled-Cluster iterations have converged ---

----------------------
COUPLED CLUSTER ENERGY
----------------------

E(0)                                       ...  -4350.267365122
E(CORR)                                    ...     -1.001726956
E(TOT)                                     ...  -4351.269092079
Singles norm <S|S>**1/2                    ...      0.083124660 ( 0.039438950, 0.043685710)  
T1 diagnostic                              ...      0.013665610                              

------------------
LARGEST AMPLITUDES
------------------
  29b-> 32b  -1b-> -1b       0.061646
  32a-> 35a  -1a-> -1a       0.032813
  31a-> 48a  30a-> 47a       0.027111
  31a-> 47a  30a-> 48a       0.027111
  31b-> 48b  30b-> 47b       0.026587
  31b-> 47b  30b-> 48b       0.026587
  30a-> 48a  30b-> 47b       0.024964
  31a-> 47a  31b-> 48b       0.024964
  30a-> 47a  30b-> 48b       0.024964
  31a-> 48a  31b-> 47b       0.024964
  32a-> 36a  -1a-> -1a       0.024950
  29b-> 36b  -1b-> -1b       0.023750
  29a-> 35a  -1a-> -1a       0.023120
  32a-> 39a  29b-> 32b       0.022393
  32a-> 35a  29b-> 32b       0.020154
  32a-> 34a  29b-> 33b       0.020083

----------------------
UHF TRIPLES CORRECTION (Algorithm 1)
----------------------

Multiplier for the singles contribution    ...      1.000000000

SPIN-CASE Alpha-Alpha-Alpha:
10% done
20% done
30% done
40% done
50% done
60% done
70% done
80% done
90% done


SPIN-CASE Beta-Beta-Beta:
10% done
20% done
30% done
40% done
50% done
60% done
70% done
80% done
90% done


SPIN-CASE Alpha-Alpha-Beta:
10% done
20% done
30% done
40% done
50% done
60% done
70% done
80% done
90% done


SPIN-CASE Beta-Beta-Alpha:
10% done
20% done
30% done
40% done
50% done
60% done
70% done
80% done
90% done


Triples Correction (T)                     ...     -0.024938678
    alpha-alpha-alpha ... -0.001229995 (  4.9%)
    alpha-alpha-beta  ... -0.011885752 ( 47.7%)
    alpha-beta -beta  ... -0.010842972 ( 43.5%)
    beta -beta -beta  ... -0.000979960 (  3.9%)
Scaling of triples based on CCSD energies (Peterson et al. Molecular Physics 113, 1551 (2015))
E(T*) = f*E(T) where f = E(F12-CCSD)/E(CCSD) 
f = CCSD (with F12)/ CCSD (without F12)    ...      1.000000000
Scaled triples correction (T)              ...     -0.024938678

Final correlation energy                   ...     -1.026665634
E(CCSD)                                    ...  -4351.269092079
E(CCSD(T))                                 ...  -4351.294030757



        !!!!!!!!!!!!!!!!!!!!!!!!!!!!!!!!!!!!!!!!!!!!!!!!!!!!!!!!!!!!!!!!!!!!!!!!!! 
        !  Warning: Densities are linearized densities                           !
        !!!!!!!!!!!!!!!!!!!!!!!!!!!!!!!!!!!!!!!!!!!!!!!!!!!!!!!!!!!!!!!!!!!!!!!!!! 

NORM  =      1.178745993 sqrt=     1.085700692
W(HF) =      0.848359194
------------------------------------------------------------------------------
                           ORCA POPULATION ANALYSIS
------------------------------------------------------------------------------
Input electron density              ... 58_ZnBr.mdcip
Input spin density                  ... 58_ZnBr.mdcir
BaseName (.gbw .S,...)              ... 58_ZnBr

                    ********************************
                    * MULLIKEN POPULATION ANALYSIS *
                    ********************************

------------------------------------------
MULLIKEN ATOMIC CHARGES AND SPIN DENSITIES
------------------------------------------
   0 Zn:    0.371271    0.870604
   1 Br:   -0.371271    0.129396
Sum of atomic charges       :   -0.0000000
Sum of atomic spin densities:    1.0000000

---------------------------------------------------
MULLIKEN REDUCED ORBITAL CHARGES AND SPIN DENSITIES
---------------------------------------------------
CHARGE
  0 Zns       :     7.133836  s :     7.133836
      pz      :     4.328160  p :    12.466360
      px      :     4.069100
      py      :     4.069100
      dz2     :     1.992973  d :     9.997401
      dxz     :     2.008667
      dyz     :     2.008667
      dx2y2   :     1.993547
      dxy     :     1.993547
      f0      :     0.004121  f :     0.028233
      f+1     :     0.004051
      f-1     :     0.004051
      f+2     :     0.004002
      f-2     :     0.004002
      f+3     :     0.004003
      f-3     :     0.004003
      g0      :     0.000323  g :     0.002899
      g+1     :     0.000323
      g-1     :     0.000323
      g+2     :     0.000322
      g-2     :     0.000322
      g+3     :     0.000322
      g-3     :     0.000322
      g+4     :     0.000321
      g-4     :     0.000321
  1 Brs       :     7.929236  s :     7.929236
      pz      :     5.544686  p :    17.312228
      px      :     5.883771
      py      :     5.883771
      dz2     :     2.028550  d :    10.113607
      dxz     :     2.023587
      dyz     :     2.023587
      dx2y2   :     2.018941
      dxy     :     2.018941
      f0      :     0.003058  f :     0.016200
      f+1     :     0.002588
      f-1     :     0.002588
      f+2     :     0.002039
      f-2     :     0.002039
      f+3     :     0.001943
      f-3     :     0.001943

SPIN
  0 Zns       :     0.659089  s :     0.659089
      pz      :     0.190929  p :     0.207770
      px      :     0.008421
      py      :     0.008421
      dz2     :     0.004105  d :     0.003879
      dxz     :    -0.000618
      dyz     :    -0.000618
      dx2y2   :     0.000505
      dxy     :     0.000505
      f0      :    -0.000004  f :    -0.000124
      f+1     :    -0.000017
      f-1     :    -0.000017
      f+2     :    -0.000022
      f-2     :    -0.000022
      f+3     :    -0.000021
      f-3     :    -0.000021
      g0      :    -0.000001  g :    -0.000010
      g+1     :    -0.000001
      g-1     :    -0.000001
      g+2     :    -0.000001
      g-2     :    -0.000001
      g+3     :    -0.000001
      g-3     :    -0.000001
      g+4     :    -0.000001
      g-4     :    -0.000001
  1 Brs       :     0.004678  s :     0.004678
      pz      :     0.133603  p :     0.123499
      px      :    -0.005052
      py      :    -0.005052
      dz2     :    -0.000056  d :     0.000844
      dxz     :     0.000599
      dyz     :     0.000599
      dx2y2   :    -0.000149
      dxy     :    -0.000149
      f0      :     0.000044  f :     0.000375
      f+1     :     0.000117
      f-1     :     0.000117
      f+2     :     0.000058
      f-2     :     0.000058
      f+3     :    -0.000010
      f-3     :    -0.000010


                     *******************************
                     * LOEWDIN POPULATION ANALYSIS *
                     *******************************

-----------------------------------------
LOEWDIN ATOMIC CHARGES AND SPIN DENSITIES
-----------------------------------------
   0 Zn:    0.006672    0.875147
   1 Br:   -0.006672    0.124853

--------------------------------------------------
LOEWDIN REDUCED ORBITAL CHARGES AND SPIN DENSITIES
--------------------------------------------------
CHARGE
  0 Zns       :     7.073092  s :     7.073092
      pz      :     4.494537  p :    12.691249
      px      :     4.098356
      py      :     4.098356
      dz2     :     2.097479  d :    10.197614
      dxz     :     2.056487
      dyz     :     2.056487
      dx2y2   :     1.993581
      dxy     :     1.993581
      f0      :     0.004277  f :     0.028474
      f+1     :     0.004092
      f-1     :     0.004092
      f+2     :     0.004002
      f-2     :     0.004002
      f+3     :     0.004003
      f-3     :     0.004003
      g0      :     0.000324  g :     0.002899
      g+1     :     0.000323
      g-1     :     0.000323
      g+2     :     0.000322
      g-2     :     0.000322
      g+3     :     0.000322
      g-3     :     0.000322
      g+4     :     0.000321
      g-4     :     0.000321
  1 Brs       :     7.652853  s :     7.652853
      pz      :     5.588573  p :    17.202633
      px      :     5.807030
      py      :     5.807030
      dz2     :     2.049375  d :    10.133122
      dxz     :     2.022970
      dyz     :     2.022970
      dx2y2   :     2.018903
      dxy     :     2.018903
      f0      :     0.004433  f :     0.018064
      f+1     :     0.002829
      f-1     :     0.002829
      f+2     :     0.002043
      f-2     :     0.002043
      f+3     :     0.001943
      f-3     :     0.001943

SPIN
  0 Zns       :     0.605906  s :     0.605906
      pz      :     0.243309  p :     0.259309
      px      :     0.008000
      py      :     0.008000
      dz2     :     0.011274  d :     0.010028
      dxz     :    -0.001113
      dyz     :    -0.001113
      dx2y2   :     0.000490
      dxy     :     0.000490
      f0      :     0.000035  f :    -0.000085
      f+1     :    -0.000017
      f-1     :    -0.000017
      f+2     :    -0.000022
      f-2     :    -0.000022
      f+3     :    -0.000021
      f-3     :    -0.000021
      g0      :    -0.000001  g :    -0.000010
      g+1     :    -0.000001
      g-1     :    -0.000001
      g+2     :    -0.000001
      g-2     :    -0.000001
      g+3     :    -0.000001
      g-3     :    -0.000001
      g+4     :    -0.000001
      g-4     :    -0.000001
  1 Brs       :     0.004848  s :     0.004848
      pz      :     0.121629  p :     0.113407
      px      :    -0.004111
      py      :    -0.004111
      dz2     :     0.005180  d :     0.006103
      dxz     :     0.000597
      dyz     :     0.000597
      dx2y2   :    -0.000136
      dxy     :    -0.000136
      f0      :     0.000207  f :     0.000495
      f+1     :     0.000094
      f-1     :     0.000094
      f+2     :     0.000059
      f-2     :     0.000059
      f+3     :    -0.000010
      f-3     :    -0.000010


                      *****************************
                      * MAYER POPULATION ANALYSIS *
                      *****************************

  NA   - Mulliken gross atomic population
  ZA   - Total nuclear charge
  QA   - Mulliken gross atomic charge
  VA   - Mayer's total valence
  BVA  - Mayer's bonded valence
  FA   - Mayer's free valence

  ATOM       NA         ZA         QA         VA         BVA        FA
  0 Zn    29.6287    30.0000     0.3713     2.3315     0.9191     1.4124
  1 Br    35.3713    35.0000    -0.3713     1.6255     0.9191     0.7064

  Mayer bond orders larger than 0.100000
B(  0-Zn,  1-Br) :   0.9191 



------------------------------------------------------------------------------- 
                                     TIMINGS                                   
------------------------------------------------------------------------------- 


Total execution time                   ...       57.474 sec

Fock Matrix Formation                  ...        0.413 sec (  0.7%)
Initial Guess                          ...        0.114 sec (  0.2%)
DIIS Solver                            ...        4.253 sec (  7.4%)
State Vector Update                    ...        0.194 sec (  0.3%)
Sigma-vector construction              ...       37.114 sec ( 64.6%)
  <0|H|D>                              ...        0.011 sec (  0.0% of sigma)
  <D|H|D>(0-ext Fock)                  ...        0.136 sec (  0.4% of sigma)
  <D|H|D>(0-ext)                       ...        1.159 sec (  3.1% of sigma)
  <D|H|D>(2-ext Fock)                  ...        0.021 sec (  0.1% of sigma)
  <D|H|D>(2-ext)                       ...        1.896 sec (  5.1% of sigma)
  <D|H|D>(4-ext)                       ...       13.196 sec ( 35.6% of sigma)
  <S|H|0>                              ...        4.412 sec ( 11.9% of sigma)
  <S|H|S>                              ...        0.004 sec (  0.0% of sigma)
  <S|H|D>(1-ext)                       ...        0.034 sec (  0.1% of sigma)
  <D|H|S>(1-ext)                       ...        0.330 sec (  0.9% of sigma)
  Fock-dressing                        ...        4.424 sec ( 11.9% of sigma)
  (ik|jl)-dressing                     ...        1.693 sec (  4.6% of sigma)
  (ij|ab),(ia|jb)-dressing             ...        7.624 sec ( 20.5% of sigma)
  Pair energies                        ...        0.016 sec (  0.0% of sigma)
Total Time for computing (T)           ...       11.223 sec ( 19.5% of ALL)
  I/O of integral and amplitudes       ...        1.806 sec ( 16.1% of (T))
  External N**7 contributions          ...        3.094 sec ( 27.6% of (T))
  Internal N**7 contributions          ...        1.804 sec ( 16.1% of (T))
  N**6 triples energy contributions    ...        4.257 sec ( 37.9% of (T))

----- Orbital basis set information -----
Your calculation utilizes the basis: def2-QZVPP
   F. Weigend and R. Ahlrichs, Phys. Chem. Chem. Phys. 7, 3297 (2005).

----- AuxJ basis set information -----
Your calculation utilizes the auxiliary basis: def2/J
   F. Weigend, Phys. Chem. Chem. Phys. 8, 1057 (2006).

----- AuxC basis set information -----
Your calculation utilizes the auxiliary basis: def2-QZVPP/C
  H-La, Hf-Rn : A. Hellweg, C. Hattig, S. Hofener and W. Klopper, Theor. Chem. Acc. 117, 587 (2007).
        Ce-Lu : J. Chmela and M. E. Harding, Mol. Phys. (2018).

----- AuxJK basis set information -----
Your calculation utilizes the auxiliary basis: def2/JK
   H-Ba, Hf-Rn: F. Weigend, J. Comput. Chem. 29, 167 (2008).

All done

                     -----------------------------------------
                     Extrapolated Energy 2 Basis=  def2-QZVPP
                     -----------------------------------------

---------------------------------
CARTESIAN COORDINATES (ANGSTROEM)
---------------------------------
  Zn     0.000000    0.000000   -0.153906
  Br     0.000000    0.000000    2.153906

----------------------------
CARTESIAN COORDINATES (A.U.)
----------------------------
  NO LB      ZA    FRAG     MASS         X           Y           Z
   0 Zn   30.0000    0    65.380    0.000000    0.000000   -0.290841
   1 Br   35.0000    0    79.900    0.000000    0.000000    4.070293

--------------------------------
INTERNAL COORDINATES (ANGSTROEM)
--------------------------------
 Zn     0   0   0     0.000000000000     0.00000000     0.00000000
 Br     1   0   0     2.307812494465     0.00000000     0.00000000

---------------------------
INTERNAL COORDINATES (A.U.)
---------------------------
 Zn     0   0   0     0.000000000000     0.00000000     0.00000000
 Br     1   0   0     4.361133582981     0.00000000     0.00000000

---------------------
BASIS SET INFORMATION
---------------------
There are 2 groups of distinct atoms

 Group   1 Type Zn  : 24s18p10d4f2g contracted to 11s6p5d4f2g pattern {114111111111/951111/61111/1111/11}
 Group   2 Type Br  : 24s20p10d4f1g contracted to 11s7p4d4f1g pattern {114111111111/10511111/7111/1111/1}

Atom   0Zn   basis set group =>   1
Atom   1Br   basis set group =>   2
---------------------------------
AUXILIARY/J BASIS SET INFORMATION
---------------------------------
There are 2 groups of distinct atoms

 Group   1 Type Zn  : 19s5p5d3f3g contracted to 8s5p5d2f3g pattern {121111111/11111/11111/21/111}
 Group   2 Type Br  : 19s5p5d3f1g contracted to 8s4p3d2f1g pattern {121111111/2111/311/21/1}

Atom   0Zn   basis set group =>   1
Atom   1Br   basis set group =>   2
---------------------------------
AUXILIARY/C BASIS SET INFORMATION
---------------------------------
There are 2 groups of distinct atoms

 Group   1 Type Zn  : 15s13p11d9f7g5h2i contracted to 15s13p11d9f7g5h2i pattern {111111111111111/1111111111111/11111111111/111111111/1111111/11111/11}
 Group   2 Type Br  : 13s12p11d9f7g5h1i contracted to 13s12p11d9f7g5h1i pattern {1111111111111/111111111111/11111111111/111111111/1111111/11111/1}

Atom   0Zn   basis set group =>   1
Atom   1Br   basis set group =>   2
----------------------------------
AUXILIARY/JK BASIS SET INFORMATION
----------------------------------
There are 2 groups of distinct atoms

 Group   1 Type Zn  : 19s14p12d10f7g3h1i contracted to 16s13p11d9f5g3h1i pattern {4111111111111111/2111111111111/21111111111/211111111/31111/111/1}
 Group   2 Type Br  : 20s14p13d10f7g3h contracted to 17s13p12d9f6g3h pattern {41111111111111111/2111111111111/211111111111/211111111/211111/111}

Atom   0Zn   basis set group =>   1
Atom   1Br   basis set group =>   2

Checking for AutoStart:
The File: 58_ZnBr.gbw exists
Trying to determine its content:
     ... Fine, the file contains calculation information
     ... Fine, the calculation information was read
     ... Fine, the file contains a basis set
     ... Fine, the basis set was read
     ... Fine, the file contains a geometry
     ... Fine, the geometry was read
     ... Fine, the file contains a set of orbitals
     ... Fine, the orbitals can be read
     => possible old guess file was deleted
     => GBW file was renamed to GES file
     => GES file is set as startup file
     => Guess is set to MORead
     ... now leaving AutoStart



           ************************************************************
           *        Program running with 24 parallel MPI-processes    *
           *              working on a common directory               *
           ************************************************************
------------------------------------------------------------------------------
                           ORCA GTO INTEGRAL CALCULATION
------------------------------------------------------------------------------

                         BASIS SET STATISTICS AND STARTUP INFO

 # of primitive gaussian shells          ...  117
 # of primitive gaussian functions       ...  345
 # of contracted shells                  ...   55
 # of contracted basis functions         ...  189
 Highest angular momentum                ...    4
 Maximum contraction depth               ...   11
 Integral package used                   ... LIBINT
 Integral threshhold            Thresh   ...  1.000e-12
 Primitive cut-off              TCut     ...  1.000e-14


------------------------------ INTEGRAL EVALUATION ----------------------------


 * One electron integrals 
 Pre-screening matrix                    ... done
[...]
  6  -4351.696040389     -1.337669266     -0.000195447      0.000893461   19.02      0.086971917
  7  -4351.696078225     -1.337707102     -0.000037836      0.000391506   19.33      0.088833887
  8  -4351.696111085     -1.337739962     -0.000032860      0.000100952   19.00      0.089660109
  9  -4351.696115809     -1.337744685     -0.000004724      0.000038468   19.11      0.089767543
 10  -4351.696117038     -1.337745915     -0.000001230      0.000021383   19.13      0.089782289
 11  -4351.696117040     -1.337745917     -0.000000002      0.000009205   19.12      0.089769321
 12  -4351.696114970     -1.337743846      0.000002070      0.000003885   19.15      0.089763001
 13  -4351.696115250     -1.337744126     -0.000000280      0.000001359   19.15      0.089760104
 14  -4351.696115013     -1.337743890      0.000000237      0.000000754   19.15      0.089758915
               --- The Coupled-Cluster iterations have converged ---

----------------------
COUPLED CLUSTER ENERGY
----------------------

E(0)                                       ...  -4350.358371123
E(CORR)                                    ...     -1.337743890
E(TOT)                                     ...  -4351.696115013
Singles norm <S|S>**1/2                    ...      0.089758915 ( 0.044849489, 0.044909426)  
T1 diagnostic                              ...      0.014756275                              

------------------
LARGEST AMPLITUDES
------------------
  29b-> 32b  -1b-> -1b       0.057087
  32a-> 35a  -1a-> -1a       0.036745
  29b-> 36b  -1b-> -1b       0.029656
  31b-> 49b  30b-> 50b       0.028832
  31b-> 50b  30b-> 49b       0.028832
  31a-> 50a  30a-> 49a       0.028819
  31a-> 49a  30a-> 50a       0.028819
  31a-> 49a  30b-> 50b       0.027823
  30a-> 50a  31b-> 49b       0.027823
  31a-> 50a  30b-> 49b       0.027823
  30a-> 49a  31b-> 50b       0.027823
  32a-> 39a  -1a-> -1a       0.024122
  31a-> 52a  30b-> 51b       0.021234
  30a-> 53a  31b-> 52b       0.021234
  29a-> 35a  -1a-> -1a       0.020212
  29a-> 48a  29b-> 48b       0.019863

----------------------
UHF TRIPLES CORRECTION (Algorithm 1)
----------------------

Multiplier for the singles contribution    ...      1.000000000

SPIN-CASE Alpha-Alpha-Alpha:
10% done
20% done
30% done
40% done
50% done
60% done
70% done
80% done
90% done


SPIN-CASE Beta-Beta-Beta:
10% done
20% done
30% done
40% done
50% done
60% done
70% done
80% done
90% done


SPIN-CASE Alpha-Alpha-Beta:
10% done
20% done
30% done
40% done
50% done
60% done
70% done
80% done
90% done


SPIN-CASE Beta-Beta-Alpha:
10% done
20% done
30% done
40% done
50% done
60% done
70% done
80% done
90% done


Triples Correction (T)                     ...     -0.034420357
    alpha-alpha-alpha ... -0.001744121 (  5.1%)
    alpha-alpha-beta  ... -0.016400783 ( 47.6%)
    alpha-beta -beta  ... -0.014910562 ( 43.3%)
    beta -beta -beta  ... -0.001364890 (  4.0%)
Scaling of triples based on CCSD energies (Peterson et al. Molecular Physics 113, 1551 (2015))
E(T*) = f*E(T) where f = E(F12-CCSD)/E(CCSD) 
f = CCSD (with F12)/ CCSD (without F12)    ...      1.000000000
Scaled triples correction (T)              ...     -0.034420357

Final correlation energy                   ...     -1.372164247
E(CCSD)                                    ...  -4351.696115013
E(CCSD(T))                                 ...  -4351.730535370



        !!!!!!!!!!!!!!!!!!!!!!!!!!!!!!!!!!!!!!!!!!!!!!!!!!!!!!!!!!!!!!!!!!!!!!!!!! 
        !  Warning: Densities are linearized densities                           !
        !!!!!!!!!!!!!!!!!!!!!!!!!!!!!!!!!!!!!!!!!!!!!!!!!!!!!!!!!!!!!!!!!!!!!!!!!! 

NORM  =      1.195931825 sqrt=     1.093586679
W(HF) =      0.836168065
------------------------------------------------------------------------------
                           ORCA POPULATION ANALYSIS
------------------------------------------------------------------------------
Input electron density              ... 58_ZnBr.mdcip
Input spin density                  ... 58_ZnBr.mdcir
BaseName (.gbw .S,...)              ... 58_ZnBr

                    ********************************
                    * MULLIKEN POPULATION ANALYSIS *
                    ********************************

------------------------------------------
MULLIKEN ATOMIC CHARGES AND SPIN DENSITIES
------------------------------------------
   0 Zn:    0.397240    0.867700
   1 Br:   -0.397240    0.132300
Sum of atomic charges       :    0.0000000
Sum of atomic spin densities:    1.0000000

---------------------------------------------------
MULLIKEN REDUCED ORBITAL CHARGES AND SPIN DENSITIES
---------------------------------------------------
CHARGE
  0 Zns       :     7.131247  s :     7.131247
      pz      :     4.294537  p :    12.427593
      px      :     4.066528
      py      :     4.066528
      dz2     :     1.987659  d :     9.994877
      dxz     :     2.011341
      dyz     :     2.011341
      dx2y2   :     1.992268
      dxy     :     1.992268
      f0      :     0.007290  f :     0.044813
      f+1     :     0.008865
      f-1     :     0.008865
      f+2     :     0.005045
      f-2     :     0.005045
      f+3     :     0.004852
      f-3     :     0.004852
      g0      :     0.000477  g :     0.004231
      g+1     :     0.000475
      g-1     :     0.000475
      g+2     :     0.000471
      g-2     :     0.000471
      g+3     :     0.000468
      g-3     :     0.000468
      g+4     :     0.000464
      g-4     :     0.000464
  1 Brs       :     7.950245  s :     7.950245
      pz      :     5.554301  p :    17.310038
      px      :     5.877869
      py      :     5.877869
      dz2     :     2.026833  d :    10.095067
      dxz     :     2.019118
      dyz     :     2.019118
      dx2y2   :     2.014999
      dxy     :     2.014999
      f0      :     0.006706  f :     0.037900
      f+1     :     0.006077
      f-1     :     0.006077
      f+2     :     0.004864
      f-2     :     0.004864
      f+3     :     0.004656
      f-3     :     0.004656
      g0      :     0.000604  g :     0.003990
      g+1     :     0.000544
      g-1     :     0.000544
      g+2     :     0.000400
      g-2     :     0.000400
      g+3     :     0.000373
      g-3     :     0.000373
      g+4     :     0.000376
      g-4     :     0.000376

SPIN
  0 Zns       :     0.668930  s :     0.668930
      pz      :     0.180585  p :     0.196812
      px      :     0.008114
      py      :     0.008114
      dz2     :     0.003551  d :     0.002346
      dxz     :    -0.001184
      dyz     :    -0.001184
      dx2y2   :     0.000582
      dxy     :     0.000582
      f0      :     0.000073  f :    -0.000381
      f+1     :    -0.000128
      f-1     :    -0.000128
      f+2     :    -0.000041
      f-2     :    -0.000041
      f+3     :    -0.000058
      f-3     :    -0.000058
      g0      :     0.000000  g :    -0.000007
      g+1     :    -0.000000
      g-1     :    -0.000000
      g+2     :    -0.000001
      g-2     :    -0.000001
      g+3     :    -0.000001
      g-3     :    -0.000001
      g+4     :    -0.000001
      g-4     :    -0.000001
  1 Brs       :     0.000448  s :     0.000448
      pz      :     0.138877  p :     0.131023
      px      :    -0.003927
      py      :    -0.003927
      dz2     :    -0.000994  d :     0.000370
      dxz     :     0.000799
      dyz     :     0.000799
      dx2y2   :    -0.000117
      dxy     :    -0.000117
      f0      :    -0.000001  f :     0.000459
      f+1     :     0.000176
      f-1     :     0.000176
      f+2     :     0.000067
      f-2     :     0.000067
      f+3     :    -0.000012
      f-3     :    -0.000012
      g0      :    -0.000004  g :    -0.000001
      g+1     :     0.000001
      g-1     :     0.000001
      g+2     :     0.000001
      g-2     :     0.000001
      g+3     :     0.000000
      g-3     :     0.000000
      g+4     :    -0.000000
      g-4     :    -0.000000


                     *******************************
                     * LOEWDIN POPULATION ANALYSIS *
                     *******************************

-----------------------------------------
LOEWDIN ATOMIC CHARGES AND SPIN DENSITIES
-----------------------------------------
   0 Zn:   -0.170189    0.873149
   1 Br:    0.170189    0.126851

--------------------------------------------------
LOEWDIN REDUCED ORBITAL CHARGES AND SPIN DENSITIES
--------------------------------------------------
CHARGE
  0 Zns       :     7.067800  s :     7.067800
      pz      :     4.508992  p :    12.711155
      px      :     4.101082
      py      :     4.101082
      dz2     :     2.124628  d :    10.259715
      dxz     :     2.075357
      dyz     :     2.075357
      dx2y2   :     1.992187
      dxy     :     1.992187
      f0      :     0.042829  f :     0.127260
      f+1     :     0.032199
      f-1     :     0.032199
      f+2     :     0.005164
      f-2     :     0.005164
      f+3     :     0.004852
      f-3     :     0.004852
      g0      :     0.000493  g :     0.004260
      g+1     :     0.000481
      g-1     :     0.000481
      g+2     :     0.000471
      g-2     :     0.000471
      g+3     :     0.000468
      g-3     :     0.000468
      g+4     :     0.000464
      g-4     :     0.000464
  1 Brs       :     7.611598  s :     7.611598
      pz      :     5.550015  p :    17.061469
      px      :     5.755727
      py      :     5.755727
      dz2     :     2.040303  d :    10.104547
      dxz     :     2.017289
      dyz     :     2.017289
      dx2y2   :     2.014833
      dxy     :     2.014833
      f0      :     0.012028  f :     0.046958
      f+1     :     0.007839
      f-1     :     0.007839
      f+2     :     0.004971
      f-2     :     0.004971
      f+3     :     0.004655
      f-3     :     0.004655
      g0      :     0.001212  g :     0.005238
      g+1     :     0.000843
      g-1     :     0.000843
      g+2     :     0.000422
      g-2     :     0.000422
      g+3     :     0.000373
      g-3     :     0.000373
      g+4     :     0.000376
      g-4     :     0.000376

SPIN
  0 Zns       :     0.591562  s :     0.591562
      pz      :     0.249929  p :     0.265775
      px      :     0.007923
      py      :     0.007923
      dz2     :     0.013409  d :     0.011689
      dxz     :    -0.001439
      dyz     :    -0.001439
      dx2y2   :     0.000579
      dxy     :     0.000579
      f0      :     0.004444  f :     0.004128
      f+1     :    -0.000064
      f-1     :    -0.000064
      f+2     :    -0.000036
      f-2     :    -0.000036
      f+3     :    -0.000058
      f-3     :    -0.000058
      g0      :     0.000004  g :    -0.000003
      g+1     :    -0.000000
      g-1     :    -0.000000
      g+2     :    -0.000001
      g-2     :    -0.000001
      g+3     :    -0.000001
      g-3     :    -0.000001
      g+4     :    -0.000001
      g-4     :    -0.000001
  1 Brs       :     0.007355  s :     0.007355
      pz      :     0.117243  p :     0.111090
      px      :    -0.003077
      py      :    -0.003077
      dz2     :     0.006253  d :     0.007084
      dxz     :     0.000532
      dyz     :     0.000532
      dx2y2   :    -0.000116
      dxy     :    -0.000116
      f0      :     0.001199  f :     0.001271
      f+1     :    -0.000017
      f-1     :    -0.000017
      f+2     :     0.000064
      f-2     :     0.000064
      f+3     :    -0.000012
      f-3     :    -0.000012
      g0      :     0.000068  g :     0.000051
      g+1     :    -0.000009
      g-1     :    -0.000009
      g+2     :     0.000001
      g-2     :     0.000001
      g+3     :     0.000000
      g-3     :     0.000000
      g+4     :    -0.000000
      g-4     :    -0.000000


                      *****************************
                      * MAYER POPULATION ANALYSIS *
                      *****************************

  NA   - Mulliken gross atomic population
  ZA   - Total nuclear charge
  QA   - Mulliken gross atomic charge
  VA   - Mayer's total valence
  BVA  - Mayer's bonded valence
  FA   - Mayer's free valence

  ATOM       NA         ZA         QA         VA         BVA        FA
  0 Zn    29.6028    30.0000     0.3972     2.3270     0.8866     1.4404
  1 Br    35.3972    35.0000    -0.3972     1.6834     0.8866     0.7968

  Mayer bond orders larger than 0.100000
B(  0-Zn,  1-Br) :   0.8866 



------------------------------------------------------------------------------- 
                                     TIMINGS                                   
------------------------------------------------------------------------------- 


Total execution time                   ...      435.471 sec

Fock Matrix Formation                  ...        2.046 sec (  0.5%)
Initial Guess                          ...        0.360 sec (  0.1%)
DIIS Solver                            ...       18.071 sec (  4.1%)
State Vector Update                    ...        0.777 sec (  0.2%)
Sigma-vector construction              ...      262.836 sec ( 60.4%)
  <0|H|D>                              ...        0.037 sec (  0.0% of sigma)
  <D|H|D>(0-ext Fock)                  ...        0.566 sec (  0.2% of sigma)
  <D|H|D>(0-ext)                       ...        4.567 sec (  1.7% of sigma)
  <D|H|D>(2-ext Fock)                  ...        0.120 sec (  0.0% of sigma)
  <D|H|D>(2-ext)                       ...       11.315 sec (  4.3% of sigma)
  <D|H|D>(4-ext)                       ...       95.452 sec ( 36.3% of sigma)
  <S|H|0>                              ...       79.441 sec ( 30.2% of sigma)
  <S|H|S>                              ...        0.006 sec (  0.0% of sigma)
  <S|H|D>(1-ext)                       ...        0.125 sec (  0.0% of sigma)
  <D|H|S>(1-ext)                       ...        1.241 sec (  0.5% of sigma)
  Fock-dressing                        ...       22.855 sec (  8.7% of sigma)
  (ik|jl)-dressing                     ...        5.591 sec (  2.1% of sigma)
  (ij|ab),(ia|jb)-dressing             ...       33.733 sec ( 12.8% of sigma)
  Pair energies                        ...        0.074 sec (  0.0% of sigma)
Total Time for computing (T)           ...      129.083 sec ( 29.6% of ALL)
  I/O of integral and amplitudes       ...       14.621 sec ( 11.3% of (T))
  External N**7 contributions          ...       46.129 sec ( 35.7% of (T))
  Internal N**7 contributions          ...       14.654 sec ( 11.4% of (T))
  N**6 triples energy contributions    ...       42.640 sec ( 33.0% of (T))


-------------------
EXTRAPOLATED ENERGY
-------------------


-----------------------------------------------------------------
                      EP1 - MDCI extrapolation:
-----------------------------------------------------------------
NOTE: We use as reference SCF energy, for the extrapolation, the one from the MDCI module and not the one 
from the SCF calculation. In case the first step is a DFT calculation these two might be different.

NOTE: For the SCF part we extrapolate based on the scheme proposed in J. Chem. Phys. 2008, 129, 184116
using the exponents from J. Chem. Theory Comput., 7, 33-43 (2011)

NOTE: For the correlation part we extrapolate based on the scheme proposed in J. Chem. Phys. 1997, 106, 9639
using the exponents from J. Chem. Theory Comput., 7, 33-43 (2011)


Alpha(3/4)     :  7.880 (SCF Extrapolation)
Beta(3/4)      :  2.970 (correlation extrapolation)

SCF energy with basis def2-TZVPP:                     -4350.267365122
SCF energy with basis def2-QZVPP:                     -4350.358371123
Extrapolated CBS SCF energy (3/4) :                   -4350.370906171 (-0.012535047) 

MDCI energy with basis def2-TZVPP:                       -1.026665634
MDCI energy with basis def2-QZVPP:                       -1.372164247
Extrapolated CBS correlation energy (3/4) :              -1.628088954 (-0.255924708)

Estimated CBS total energy (3/4) :                    -4351.998995125



-------------------------   --------------------
FINAL SINGLE POINT ENERGY     -4351.998995124870
-------------------------   --------------------


                            ***************************************
                            *     ORCA property calculations      *
                            ***************************************

                                    ---------------------
                                    Active property flags
                                    ---------------------
   (+) Dipole Moment


------------------------------------------------------------------------------
                       ORCA ELECTRIC PROPERTIES CALCULATION
------------------------------------------------------------------------------

Dipole Moment Calculation                       ... on
Quadrupole Moment Calculation                   ... off
Polarizability Calculation                      ... off
GBWName                                         ... 58_ZnBr.gbw
Electron density file                           ... 58_ZnBr.scfp
The origin for moment calculation is the CENTER OF MASS  = ( 0.000000,  0.000000  2.107663)

-------------
DIPOLE MOMENT
-------------
                                X             Y             Z
Electronic contribution:      0.00000      -0.00000       2.03918
Nuclear contribution   :      0.00000       0.00000      -3.26305
                        -----------------------------------------
Total Dipole Moment    :      0.00000      -0.00000      -1.22387
                        -----------------------------------------
Magnitude (a.u.)       :      1.22387
Magnitude (Debye)      :      3.11083



--------------------
Rotational spectrum 
--------------------
 
Rotational constants in cm-1:     0.000000     0.088026     0.088026 
Rotational constants in MHz :     0.000000  2638.947188  2638.947188 

 Dipole components along the rotational axes: 
x,y,z [a.u.] :    -1.223870    -0.000000     0.000000 
x,y,z [Debye]:    -3.110831    -0.000000     0.000000 

 

                           *** MDCI DENSITY ***

------------------------------------------------------------------------------
                       ORCA ELECTRIC PROPERTIES CALCULATION
------------------------------------------------------------------------------

Dipole Moment Calculation                       ... on
Quadrupole Moment Calculation                   ... off
Polarizability Calculation                      ... off
GBWName                                         ... 58_ZnBr.gbw
Electron density file                           ... 58_ZnBr.mdcip
The origin for moment calculation is the CENTER OF MASS  = ( 0.000000,  0.000000  2.107663)

-------------
DIPOLE MOMENT
-------------
                                X             Y             Z
Electronic contribution:     -0.00000      -0.00000       2.16009
Nuclear contribution   :      0.00000       0.00000      -3.26305
                        -----------------------------------------
Total Dipole Moment    :     -0.00000      -0.00000      -1.10296
                        -----------------------------------------
Magnitude (a.u.)       :      1.10296
Magnitude (Debye)      :      2.80350



--------------------
Rotational spectrum 
--------------------
 
Rotational constants in cm-1:     0.000000     0.088026     0.088026 
Rotational constants in MHz :     0.000000  2638.947188  2638.947188 

 Dipole components along the rotational axes: 
x,y,z [a.u.] :    -1.102958    -0.000000    -0.000000 
x,y,z [Debye]:    -2.803496    -0.000000    -0.000000 

 

Timings for individual modules:

Sum of individual times         ...      514.699 sec (=   8.578 min)
GTO integral calculation        ...        1.632 sec (=   0.027 min)   0.3 %
SCF iterations                  ...       17.018 sec (=   0.284 min)   3.3 %
MDCI module                     ...      496.048 sec (=   8.267 min)  96.4 %
                             ****ORCA TERMINATED NORMALLY****
TOTAL RUN TIME: 0 days 0 hours 8 minutes 35 seconds 693 msec
