
                                 *****************
                                 * O   R   C   A *
                                 *****************

           --- An Ab Initio, DFT and Semiempirical electronic structure package ---

                  #######################################################
                  #                        -***-                        #
                  #          Department of theory and spectroscopy      #
                  #               Directorship: Frank Neese             #
                  #        Max Planck Institute fuer Kohlenforschung    #
                  #                Kaiser Wilhelm Platz 1               #
                  #                 D-45470 Muelheim/Ruhr               #
                  #                      Germany                        #
                  #                                                     #
                  #                  All rights reserved                #
                  #                        -***-                        #
                  #######################################################


                         Program Version 4.2.0 -  RELEASE  -


 With contributions from (in alphabetic order):
   Daniel Aravena         : Magnetic Suceptibility
   Michael Atanasov       : Ab Initio Ligand Field Theory (pilot matlab implementation)
   Alexander A. Auer      : GIAO ZORA, VPT2
   Ute Becker             : Parallelization
   Giovanni Bistoni       : ED, misc. LED, open-shell LED, HFLED
   Martin Brehm           : Molecular dynamics
   Dmytro Bykov           : SCF Hessian
   Vijay G. Chilkuri      : MRCI spin determinant printing, contributions to CSF-ICE
   Dipayan Datta          : RHF DLPNO-CCSD density
   Achintya Kumar Dutta   : EOM-CC, STEOM-CC
   Dmitry Ganyushin       : Spin-Orbit,Spin-Spin,Magnetic field MRCI
   Miquel Garcia          : C-PCM Hessian, Gaussian charge scheme
   Yang Guo               : DLPNO-NEVPT2, CIM, IAO-localization
   Andreas Hansen         : Spin unrestricted coupled pair/coupled cluster methods
   Benjamin Helmich-Paris : CASSCF linear response (MC-RPA)
   Lee Huntington         : MR-EOM, pCC
   Robert Izsak           : Overlap fitted RIJCOSX, COSX-SCS-MP3, EOM
   Christian Kollmar      : KDIIS, OOCD, Brueckner-CCSD(T), CCSD density
   Simone Kossmann        : Meta GGA functionals, TD-DFT gradient, OOMP2, MP2 Hessian
   Martin Krupicka        : AUTO-CI
   Lucas Lang             : DCDCAS
   Dagmar Lenk            : GEPOL surface, SMD
   Dimitrios Liakos       : Extrapolation schemes; Compound Job, initial MDCI parallelization
   Dimitrios Manganas     : Further ROCIS development; embedding schemes
   Dimitrios Pantazis     : SARC Basis sets
   Taras Petrenko         : DFT Hessian,TD-DFT gradient, ASA, ECA, R-Raman, ABS, FL, XAS/XES, NRVS
   Peter Pinski           : DLPNO-MP2, DLPNO-MP2 Gradient
   Christoph Reimann      : Effective Core Potentials
   Marius Retegan         : Local ZFS, SOC
   Christoph Riplinger    : Optimizer, TS searches, QM/MM, DLPNO-CCSD(T), (RO)-DLPNO pert. Triples
   Tobias Risthaus        : Range-separated hybrids, TD-DFT gradient, RPA, STAB
   Michael Roemelt        : Original ROCIS implementation
   Masaaki Saitow         : Open-shell DLPNO-CCSD energy and density
   Barbara Sandhoefer     : DKH picture change effects
   Avijit Sen             : IP-ROCIS
   Kantharuban Sivalingam : CASSCF convergence, NEVPT2, FIC-MRCI
   Bernardo de Souza      : ESD, SOC TD-DFT
   Georgi Stoychev        : AutoAux, RI-MP2 NMR
   Willem Van den Heuvel  : Paramagnetic NMR
   Boris Wezisla          : Elementary symmetry handling
   Frank Wennmohs         : Technical directorship


 We gratefully acknowledge several colleagues who have allowed us to
 interface, adapt or use parts of their codes:
   Stefan Grimme, W. Hujo, H. Kruse,             : VdW corrections, initial TS optimization,
                  C. Bannwarth                     DFT functionals, gCP, sTDA/sTD-DF
   Ed Valeev, F. Pavosevic, A. Kumar             : LibInt (2-el integral package), F12 methods
   Garnet Chan, S. Sharma, J. Yang, R. Olivares  : DMRG
   Ulf Ekstrom                                   : XCFun DFT Library
   Mihaly Kallay                                 : mrcc  (arbitrary order and MRCC methods)
   Andreas Klamt, Michael Diedenhofen            : otool_cosmo (COSMO solvation model)
   Jiri Pittner, Ondrej Demel                    : Mk-CCSD
   Frank Weinhold                                : gennbo (NPA and NBO analysis)
   Christopher J. Cramer and Donald G. Truhlar   : smd solvation model
   Lars Goerigk                                  : TD-DFT with DH, B97 family of functionals
   V. Asgeirsson, H. Jonsson                     : NEB implementation
   FAccTs GmbH                                   : IRC, NEB, NEB-TS, Multilevel, MM, QM/MM, CI optimization
   S Lehtola, MJT Oliveira, MAL Marques          : LibXC Library


 Your calculation uses the libint2 library for the computation of 2-el integrals
 For citations please refer to: http://libint.valeyev.net

 Your ORCA version has been built with support for libXC version: 4.2.3
 For citations please refer to: https://tddft.org/programs/libxc/

 This ORCA versions uses:
   CBLAS   interface :  Fast vector & matrix operations
   LAPACKE interface :  Fast linear algebra routines
   SCALAPACK package :  Parallel linear algebra routines


----- Orbital basis set information -----
Your calculation utilizes the basis: def2-TZVPP
   F. Weigend and R. Ahlrichs, Phys. Chem. Chem. Phys. 7, 3297 (2005).

================================================================================
                                        WARNINGS
                       Please study these warnings very carefully!
================================================================================


WARNING: your system is open-shell and RHF/RKS was chosen
  ===> : WILL SWITCH to UHF/UKS


WARNING: MDCI localization with Augmented Hessian Foster-Boys
  ===> : Switching off randomization!

WARNING: Post HF methods need fully converged wavefunctions
  ===> : Setting SCFConvForced true
         You can overwrite this default with %scf ConvForced false 


INFO   : the flag for use of LIBINT has been found!

================================================================================
                                       INPUT FILE
================================================================================
NAME = 61_Sc.in
|  1> #
|  2> # 61_Sc ccsd(t)/cbs
|  3> #
|  4> ! ccsd(t) extrapolate(3/4,def2) verytightscf
|  5> 
|  6> *xyz 0 2
|  7> Sc 0.0 0.0 0.0
|  8> *
|  9> 
| 10> %maxcore 5000
| 11> %pal
| 12> nprocs 24
| 13> end
| 14> 
| 15> 
| 16>                          ****END OF INPUT****
================================================================================

                   *****************************************
                   * Extrapolated Single Point Calculation *
                   *****************************************

----- Orbital basis set information -----
Your calculation utilizes the basis: def2-TZVPP
   F. Weigend and R. Ahlrichs, Phys. Chem. Chem. Phys. 7, 3297 (2005).

----- AuxJ basis set information -----
Your calculation utilizes the auxiliary basis: def2/J
   F. Weigend, Phys. Chem. Chem. Phys. 8, 1057 (2006).

----- AuxC basis set information -----
Your calculation utilizes the auxiliary basis: def2-TZVPP/C
  H-La, Hf-Rn : A. Hellweg, C. Hattig, S. Hofener and W. Klopper, Theor. Chem. Acc. 117, 587 (2007).
        Ce-Lu : J. Chmela and M. E. Harding, Mol. Phys. (2018).

----- AuxJK basis set information -----
Your calculation utilizes the auxiliary basis: def2/JK
   H-Ba, Hf-Rn: F. Weigend, J. Comput. Chem. 29, 167 (2008).

All done

                     -----------------------------------------
                     Extrapolated Energy 1 Basis=  def2-TZVPP
                     -----------------------------------------

---------------------------------
CARTESIAN COORDINATES (ANGSTROEM)
---------------------------------
  Sc     0.000000    0.000000    0.000000

----------------------------
CARTESIAN COORDINATES (A.U.)
----------------------------
  NO LB      ZA    FRAG     MASS         X           Y           Z
   0 Sc   21.0000    0    44.960    0.000000    0.000000    0.000000

--------------------------------
INTERNAL COORDINATES (ANGSTROEM)
--------------------------------
 Sc     0   0   0     0.000000000000     0.00000000     0.00000000

---------------------------
INTERNAL COORDINATES (A.U.)
---------------------------
 Sc     0   0   0     0.000000000000     0.00000000     0.00000000

---------------------
BASIS SET INFORMATION
---------------------
There are 1 groups of distinct atoms

 Group   1 Type Sc  : 17s12p7d2f1g contracted to 6s5p4d2f1g pattern {842111/63111/4111/11/1}

Atom   0Sc   basis set group =>   1
---------------------------------
AUXILIARY/J BASIS SET INFORMATION
---------------------------------
There are 1 groups of distinct atoms

 Group   1 Type Sc  : 19s5p5d3f3g contracted to 8s5p5d2f3g pattern {121111111/11111/11111/21/111}

Atom   0Sc   basis set group =>   1
---------------------------------
AUXILIARY/C BASIS SET INFORMATION
---------------------------------
There are 1 groups of distinct atoms

 Group   1 Type Sc  : 9s9p8d7f5g3h1i contracted to 9s9p8d7f5g3h1i pattern {111111111/111111111/11111111/1111111/11111/111/1}

Atom   0Sc   basis set group =>   1
----------------------------------
AUXILIARY/JK BASIS SET INFORMATION
----------------------------------
There are 1 groups of distinct atoms

 Group   1 Type Sc  : 19s14p12d10f7g3h1i contracted to 16s13p11d9f5g3h1i pattern {4111111111111111/2111111111111/21111111111/211111111/31111/111/1}

Atom   0Sc   basis set group =>   1


           ************************************************************
           *        Program running with 24 parallel MPI-processes    *
           *              working on a common directory               *
           ************************************************************
------------------------------------------------------------------------------
                           ORCA GTO INTEGRAL CALCULATION
------------------------------------------------------------------------------

                         BASIS SET STATISTICS AND STARTUP INFO

 # of primitive gaussian shells          ...   39
 # of primitive gaussian functions       ...  111
 # of contracted shells                  ...   18
 # of contracted basis functions         ...   64
 Highest angular momentum                ...    4
 Maximum contraction depth               ...    8
 Integral package used                   ... LIBINT
 Integral threshhold            Thresh   ...  1.000e-12
 Primitive cut-off              TCut     ...  1.000e-14


------------------------------ INTEGRAL EVALUATION ----------------------------


 * One electron integrals 
 Pre-screening matrix                    ... done
 Shell pair data                         ... done (   0.000 sec)



           ************************************************************
           *        Program running with 24 parallel MPI-processes    *
           *              working on a common directory               *
           ************************************************************
-------------------------------------------------------------------------------
                                 ORCA SCF
-------------------------------------------------------------------------------

------------
SCF SETTINGS
------------
Hamiltonian:
 Ab initio Hamiltonian  Method          .... Hartree-Fock(GTOs)


General Settings:
 Integral files         IntName         .... 61_Sc
 Hartree-Fock type      HFTyp           .... UHF
 Total Charge           Charge          ....    0
 Multiplicity           Mult            ....    2
 Number of Electrons    NEL             ....   21
 Basis Dimension        Dim             ....   64
 Nuclear Repulsion      ENuc            ....      0.0000000000 Eh

Convergence Acceleration:
 DIIS                   CNVDIIS         .... on
   Start iteration      DIISMaxIt       ....    12
   Startup error        DIISStart       ....  0.200000
   # of expansion vecs  DIISMaxEq       ....     5
   Bias factor          DIISBfac        ....   1.050
   Max. coefficient     DIISMaxC        ....  10.000
 Newton-Raphson         CNVNR           .... off
 SOSCF                  CNVSOSCF        .... off
 Level Shifting         CNVShift        .... on
   Level shift para.    LevelShift      ....    0.2500
   Turn off err/grad.   ShiftErr        ....    0.0010
 Zerner damping         CNVZerner       .... off
 Static damping         CNVDamp         .... on
   Fraction old density DampFac         ....    0.7000
   Max. Damping (<1)    DampMax         ....    0.9800
   Min. Damping (>=0)   DampMin         ....    0.0000
   Turn off err/grad.   DampErr         ....    0.1000
 Fernandez-Rico         CNVRico         .... off

SCF Procedure:
 Maximum # iterations   MaxIter         ....   125
 SCF integral mode      SCFMode         .... Direct
   Integral package                     .... LIBINT
 Reset frequency        DirectResetFreq ....    20
 Integral Threshold     Thresh          ....  1.000e-12 Eh
 Primitive CutOff       TCut            ....  1.000e-14 Eh

Convergence Tolerance:
 Convergence Check Mode ConvCheckMode   .... Total+1el-Energy
 Convergence forced     ConvForced      .... 1
 Energy Change          TolE            ....  1.000e-09 Eh
 1-El. energy change                    ....  1.000e-06 Eh
 DIIS Error             TolErr          ....  1.000e-08


Diagonalization of the overlap matrix:
Smallest eigenvalue                        ... 4.287e-02
Time for diagonalization                   ...    0.002 sec
Threshold for overlap eigenvalues          ... 1.000e-08
Number of eigenvalues below threshold      ... 0
Time for construction of square roots      ...    0.001 sec
Total time needed                          ...    0.003 sec

-------------------
DFT GRID GENERATION
-------------------

General Integration Accuracy     IntAcc      ...  4.340
Radial Grid Type                 RadialGrid  ... Gauss-Chebyshev
Angular Grid (max. acc.)         AngularGrid ... Lebedev-110
Angular grid pruning method      GridPruning ... 3 (G Style)
Weight generation scheme         WeightScheme... Becke
Basis function cutoff            BFCut       ...    1.0000e-12
Integration weight cutoff        WCut        ...    1.0000e-14
Grids for H and He will be reduced by one unit

# of grid points (after initial pruning)     ...   2972 (   0.0 sec)
# of grid points (after weights+screening)   ...   2972 (   0.0 sec)
Grid point division into batches done        ...    0.0 sec
Reduced shell lists constructed in    0.0 sec

Total number of grid points                  ...     2972
Total number of batches                      ...       47
Average number of points per batch           ...       63
Average number of grid points per atom       ...     2972
Average number of shells per batch           ...     7.33 (40.74%)
Average number of basis functions per batch  ...    32.67 (51.04%)
Average number of large shells per batch     ...     5.33 (72.73%)
Average number of large basis fcns per batch ...    22.67 (69.39%)
Maximum spatial batch extension              ...  20.27, 31.13, 31.13 au
Average spatial batch extension              ...   0.86,  1.32,  1.32 au

Time for grid setup =    0.022 sec

------------------------------
INITIAL GUESS: MODEL POTENTIAL
------------------------------
Loading Hartree-Fock densities                     ... done
Calculating cut-offs                               ... done
Setting up the integral package                    ... done
Initializing the effective Hamiltonian             ... done
Starting the Coulomb interaction                   ... done (   0.0 sec)
Reading the grid                                   ... done
Mapping shells                                     ... done
Starting the XC term evaluation                    ... done (   0.0 sec)
Transforming the Hamiltonian                       ... done (   0.0 sec)
Diagonalizing the Hamiltonian                      ... done (   0.0 sec)
Back transforming the eigenvectors                 ... done (   0.0 sec)
Now organizing SCF variables                       ... done
                      ------------------
                      INITIAL GUESS DONE (   0.2 sec)
                      ------------------
--------------
SCF ITERATIONS
--------------
ITER       Energy         Delta-E        Max-DP      RMS-DP      [F,P]     Damp
               ***  Starting incremental Fock matrix formation  ***
  0   -759.7096243009   0.000000000000 0.02527644  0.00052461  0.0887382 0.7000
  1   -759.7130589940  -0.003434693058 0.03310553  0.00060100  0.0627419 0.7000
                               ***Turning on DIIS***
  2   -759.7158414405  -0.002782446550 0.10860127  0.00189728  0.0441170 0.0000
  3   -759.7243413479  -0.008499907362 0.04262264  0.00072325  0.0089898 0.0000
  4   -759.7348821109  -0.010540762964 0.03626680  0.00061392  0.0063591 0.0000
  5   -759.7295818429   0.005300267985 0.02328392  0.00039355  0.0032310 0.0000
  6   -759.7284305003   0.001151342579 0.01295302  0.00021713  0.0012787 0.0000
  7   -759.7265177647   0.001912735558 0.01076575  0.00017938  0.0005715 0.0000
  8   -759.7266737740  -0.000156009308 0.00255121  0.00005510  0.0002602 0.0000
  9   -759.7254202619   0.001253512161 0.00089849  0.00003645  0.0001090 0.0000
 10   -759.7249086888   0.000511573121 0.00056889  0.00002080  0.0000487 0.0000
 11   -759.7248614597   0.000047229033 0.00039484  0.00001393  0.0000368 0.0000
 12   -759.7249508267  -0.000089366994 0.00046662  0.00001622  0.0000322 0.0000
 13   -759.7248862571   0.000064569650 0.00068318  0.00002364  0.0000310 0.0000
 14   -759.7247920913   0.000094165788 0.00094129  0.00003244  0.0000233 0.0000
 15   -759.7250315768  -0.000239485561 0.00005672  0.00000195  0.0000050 0.0000
 16   -759.7250688160  -0.000037239202 0.00020677  0.00000718  0.0000042 0.0000
 17   -759.7250509256   0.000017890412 0.00005082  0.00000180  0.0000013 0.0000
 18   -759.7250401070   0.000010818589 0.00000468  0.00000015  0.0000006 0.0000
 19   -759.7250407112  -0.000000604118 0.00000259  0.00000010  0.0000006 0.0000
               *** Restarting incremental Fock matrix formation ***
                                   *** Resetting DIIS ***
 20   -759.7250409956  -0.000000284401 0.00000172  0.00000004  0.0000006 0.0000
 21   -759.7250410183  -0.000000022755 0.00000120  0.00000003  0.0000006 0.0000
 22   -759.7250410950  -0.000000076692 0.00000093  0.00000003  0.0000006 0.0000
 23   -759.7250411498  -0.000000054747 0.00000078  0.00000003  0.0000006 0.0000
 24   -759.7250412073  -0.000000057520 0.00000099  0.00000003  0.0000006 0.0000
 25   -759.7250412861  -0.000000078798 0.00000138  0.00000004  0.0000006 0.0000
 26   -759.7250414035  -0.000000117469 0.00000217  0.00000006  0.0000006 0.0000
 27   -759.7250415514  -0.000000147844 0.00000350  0.00000008  0.0000006 0.0000
 28   -759.7250415969  -0.000000045523 0.00000478  0.00000010  0.0000005 0.0000
 29   -759.7250414724   0.000000124461 0.00000506  0.00000010  0.0000005 0.0000
 30   -759.7250413438   0.000000128683 0.00000547  0.00000011  0.0000005 0.0000
 31   -759.7250412827   0.000000061017 0.00000819  0.00000016  0.0000005 0.0000
 32   -759.7250412140   0.000000068725 0.00001660  0.00000032  0.0000005 0.0000
 33   -759.7250410336   0.000000180446 0.00003577  0.00000069  0.0000004 0.0000
 34   -759.7250407660   0.000000267587 0.00004954  0.00000096  0.0000003 0.0000
 35   -759.7250406465   0.000000119461 0.00003627  0.00000070  0.0000002 0.0000
 36   -759.7250407351  -0.000000088614 0.00001262  0.00000025  0.0000001 0.0000
 37   -759.7250409339  -0.000000198767 0.00000138  0.00000003  0.0000000 0.0000
                            ***DIIS convergence achieved***

               *****************************************************
               *                     SUCCESS                       *
               *           SCF CONVERGED AFTER  38 CYCLES          *
               *****************************************************


----------------
TOTAL SCF ENERGY
----------------

Total Energy       :         -759.72504098 Eh          -20673.16937 eV

Components:
Nuclear Repulsion  :            0.00000000 Eh               0.00000 eV
Electronic Energy  :         -759.72504098 Eh          -20673.16937 eV
One Electron Energy:        -1040.13043780 Eh          -28303.38813 eV
Two Electron Energy:          280.40539682 Eh            7630.21876 eV

Virial components:
Potential Energy   :        -1519.39875623 Eh          -41344.94209 eV
Kinetic Energy     :          759.67371525 Eh           20671.77272 eV
Virial Ratio       :            2.00006756


---------------
SCF CONVERGENCE
---------------

  Last Energy change         ...   -5.0070e-08  Tolerance :   1.0000e-09
  Last MAX-Density change    ...    7.8360e-07  Tolerance :   1.0000e-08
  Last RMS-Density change    ...    1.5543e-08  Tolerance :   1.0000e-09
  Last DIIS Error            ...    1.0962e-08  Tolerance :   1.0000e-08

             **** THE GBW FILE WAS UPDATED (61_Sc.gbw) ****
             **** DENSITY FILE WAS UPDATED (61_Sc.scfp) ****
             **** ENERGY FILE WAS UPDATED (61_Sc.en.tmp) ****
----------------------
UHF SPIN CONTAMINATION
----------------------

Expectation value of <S**2>     :     0.762166
Ideal value S*(S+1) for S=0.5   :     0.750000
Deviation                       :     0.012166

             **** THE GBW FILE WAS UPDATED (61_Sc.gbw) ****
             **** DENSITY FILE WAS UPDATED (61_Sc.scfp) ****
----------------
ORBITAL ENERGIES
----------------
                 SPIN UP ORBITALS
  NO   OCC          E(Eh)            E(eV) 
   0   1.0000    -165.900301     -4514.3767 
   1   1.0000     -19.086742      -519.3766 
   2   1.0000     -15.676173      -426.5704 
   3   1.0000     -15.673314      -426.4926 
   4   1.0000     -15.673314      -426.4926 
   5   1.0000      -2.594129       -70.5898 
   6   1.0000      -1.620460       -44.0950 
   7   1.0000      -1.620460       -44.0950 
   8   1.0000      -1.584438       -43.1147 
   9   1.0000      -0.349041        -9.4979 
  10   1.0000      -0.216241        -5.8842 
  11   0.0000       0.039506         1.0750 
  12   0.0000       0.039506         1.0750 
  13   0.0000       0.040742         1.1086 
  14   0.0000       0.092294         2.5114 
  15   0.0000       0.094795         2.5795 
  16   0.0000       0.094795         2.5795 
  17   0.0000       0.100622         2.7381 
  18   0.0000       0.125745         3.4217 
  19   0.0000       0.134877         3.6702 
  20   0.0000       0.179696         4.8898 
  21   0.0000       0.184963         5.0331 
  22   0.0000       0.184963         5.0331 
  23   0.0000       0.201820         5.4918 
  24   0.0000       0.318543         8.6680 
  25   0.0000       0.318826         8.6757 
  26   0.0000       0.318826         8.6757 
  27   0.0000       0.416234        11.3263 
  28   0.0000       0.416234        11.3263 
  29   0.0000       0.416453        11.3323 
  30   0.0000       0.418142        11.3782 
  31   0.0000       0.418917        11.3993 
  32   0.0000       0.418917        11.3993 
  33   0.0000       0.419535        11.4161 
  34   0.0000       0.490889        13.3578 
  35   0.0000       0.548340        14.9211 
  36   0.0000       0.552526        15.0350 
  37   0.0000       0.552526        15.0350 
  38   0.0000       0.565749        15.3948 
  39   0.0000       1.182716        32.1833 
  40   0.0000       1.182942        32.1895 
  41   0.0000       1.182942        32.1895 
  42   0.0000       1.183334        32.2002 
  43   0.0000       1.184447        32.2304 
  44   0.0000       1.185324        32.2543 
  45   0.0000       1.185324        32.2543 
  46   0.0000       1.186823        32.2951 
  47   0.0000       1.186925        32.2979 
  48   0.0000       1.469381        39.9839 
  49   0.0000       1.477140        40.1950 
  50   0.0000       1.477140        40.1950 
  51   0.0000       1.502173        40.8762 
  52   0.0000       1.502173        40.8762 
  53   0.0000       1.504279        40.9335 
  54   0.0000       1.519635        41.3514 
  55   0.0000       1.525084        41.4996 
  56   0.0000       1.525084        41.4996 
  57   0.0000       1.529596        41.6224 
  58   0.0000       1.725650        46.9573 
  59   0.0000       1.826075        49.6900 
  60   0.0000       1.874104        50.9969 
  61   0.0000       1.879616        51.1470 
  62   0.0000       1.879616        51.1470 
  63   0.0000       1.897855        51.6433 

                 SPIN DOWN ORBITALS
  NO   OCC          E(Eh)            E(eV) 
   0   1.0000    -165.900406     -4514.3795 
   1   1.0000     -19.074076      -519.0320 
   2   1.0000     -15.673678      -426.5025 
   3   1.0000     -15.655641      -426.0116 
   4   1.0000     -15.655641      -426.0116 
   5   1.0000      -2.540028       -69.1177 
   6   1.0000      -1.575997       -42.8851 
   7   1.0000      -1.522452       -41.4280 
   8   1.0000      -1.522452       -41.4280 
   9   1.0000      -0.204660        -5.5691 
  10   0.0000       0.035946         0.9781 
  11   0.0000       0.047049         1.2803 
  12   0.0000       0.047049         1.2803 
  13   0.0000       0.096521         2.6265 
  14   0.0000       0.098530         2.6811 
  15   0.0000       0.098530         2.6811 
  16   0.0000       0.103164         2.8072 
  17   0.0000       0.107169         2.9162 
  18   0.0000       0.141184         3.8418 
  19   0.0000       0.194455         5.2914 
  20   0.0000       0.197381         5.3710 
  21   0.0000       0.197381         5.3710 
  22   0.0000       0.209565         5.7025 
  23   0.0000       0.227161         6.1814 
  24   0.0000       0.318209         8.6589 
  25   0.0000       0.333515         9.0754 
  26   0.0000       0.333515         9.0754 
  27   0.0000       0.418584        11.3902 
  28   0.0000       0.419057        11.4031 
  29   0.0000       0.419057        11.4031 
  30   0.0000       0.419924        11.4267 
  31   0.0000       0.422366        11.4932 
  32   0.0000       0.425711        11.5842 
  33   0.0000       0.425711        11.5842 
  34   0.0000       0.557877        15.1806 
  35   0.0000       0.561336        15.2747 
  36   0.0000       0.561336        15.2747 
  37   0.0000       0.572004        15.5650 
  38   0.0000       0.587223        15.9791 
  39   0.0000       1.184610        32.2349 
  40   0.0000       1.184897        32.2427 
  41   0.0000       1.184897        32.2427 
  42   0.0000       1.185318        32.2542 
  43   0.0000       1.190350        32.3911 
  44   0.0000       1.192822        32.4583 
  45   0.0000       1.192822        32.4583 
  46   0.0000       1.199374        32.6366 
  47   0.0000       1.199680        32.6450 
  48   0.0000       1.471159        40.0323 
  49   0.0000       1.499737        40.8099 
  50   0.0000       1.499737        40.8099 
  51   0.0000       1.530673        41.6517 
  52   0.0000       1.532875        41.7117 
  53   0.0000       1.533029        41.7158 
  54   0.0000       1.533029        41.7158 
  55   0.0000       1.545911        42.0664 
  56   0.0000       1.560593        42.4659 
  57   0.0000       1.560593        42.4659 
  58   0.0000       1.743634        47.4467 
  59   0.0000       1.888631        51.3923 
  60   0.0000       1.890854        51.4528 
  61   0.0000       1.890854        51.4528 
  62   0.0000       1.906310        51.8733 
  63   0.0000       1.927520        52.4505 

                    ********************************
                    * MULLIKEN POPULATION ANALYSIS *
                    ********************************

--------------------------------------------
MULLIKEN ATOMIC CHARGES AND SPIN POPULATIONS
--------------------------------------------
   0 Sc:   -0.000000    1.000000
Sum of atomic charges         :   -0.0000000
Sum of atomic spin populations:    1.0000000

-----------------------------------------------------
MULLIKEN REDUCED ORBITAL CHARGES AND SPIN POPULATIONS
-----------------------------------------------------
CHARGE
  0 Scs       :     7.993530  s :     7.993530
      pz      :     3.999956  p :    11.999264
      px      :     3.999654
      py      :     3.999654
      dz2     :     0.006422  d :     1.006435
      dxz     :     0.000636
      dyz     :     0.000185
      dx2y2   :     0.000000
      dxy     :     0.999191
      f0      :     0.000043  f :     0.000736
      f+1     :     0.000044
      f-1     :     0.000044
      f+2     :     0.000000
      f-2     :     0.000001
      f+3     :     0.000302
      f-3     :     0.000302
      g0      :     0.000000  g :     0.000035
      g+1     :     0.000000
      g-1     :     0.000000
      g+2     :     0.000000
      g-2     :     0.000002
      g+3     :     0.000000
      g-3     :     0.000000
      g+4     :     0.000032
      g-4     :     0.000000

SPIN
  0 Scs       :     0.005350  s :     0.005350
      pz      :     0.000035  p :    -0.000477
      px      :    -0.000256
      py      :    -0.000256
      dz2     :    -0.005346  d :     0.994639
      dxz     :     0.000630
      dyz     :     0.000163
      dx2y2   :    -0.000000
      dxy     :     0.999191
      f0      :    -0.000035  f :     0.000477
      f+1     :    -0.000027
      f-1     :    -0.000027
      f+2     :     0.000000
      f-2     :     0.000000
      f+3     :     0.000282
      f-3     :     0.000282
      g0      :     0.000000  g :     0.000011
      g+1     :     0.000000
      g-1     :     0.000000
      g+2     :    -0.000000
      g-2     :     0.000002
      g+3     :     0.000000
      g-3     :     0.000000
      g+4     :     0.000008
      g-4     :     0.000000


                     *******************************
                     * LOEWDIN POPULATION ANALYSIS *
                     *******************************

-------------------------------------------
LOEWDIN ATOMIC CHARGES AND SPIN POPULATIONS
-------------------------------------------
   0 Sc:   -0.000000    1.000000

----------------------------------------------------
LOEWDIN REDUCED ORBITAL CHARGES AND SPIN POPULATIONS
----------------------------------------------------
CHARGE
  0 Scs       :     7.993530  s :     7.993530
      pz      :     3.999956  p :    11.999264
      px      :     3.999654
      py      :     3.999654
      dz2     :     0.006422  d :     1.006435
      dxz     :     0.000636
      dyz     :     0.000185
      dx2y2   :     0.000000
      dxy     :     0.999191
      f0      :     0.000043  f :     0.000736
      f+1     :     0.000044
      f-1     :     0.000044
      f+2     :     0.000000
      f-2     :     0.000001
      f+3     :     0.000302
      f-3     :     0.000302
      g0      :     0.000000  g :     0.000035
      g+1     :     0.000000
      g-1     :     0.000000
      g+2     :     0.000000
      g-2     :     0.000002
      g+3     :     0.000000
      g-3     :     0.000000
      g+4     :     0.000032
      g-4     :     0.000000

SPIN
  0 Scs       :     0.005350  s :     0.005350
      pz      :     0.000035  p :    -0.000477
      px      :    -0.000256
      py      :    -0.000256
      dz2     :    -0.005346  d :     0.994639
      dxz     :     0.000630
      dyz     :     0.000163
      dx2y2   :    -0.000000
      dxy     :     0.999191
      f0      :    -0.000035  f :     0.000477
      f+1     :    -0.000027
      f-1     :    -0.000027
      f+2     :     0.000000
      f-2     :     0.000000
      f+3     :     0.000282
      f-3     :     0.000282
      g0      :     0.000000  g :     0.000011
      g+1     :     0.000000
      g-1     :     0.000000
      g+2     :    -0.000000
      g-2     :     0.000002
      g+3     :     0.000000
      g-3     :     0.000000
      g+4     :     0.000008
      g-4     :     0.000000


                      *****************************
                      * MAYER POPULATION ANALYSIS *
                      *****************************

  NA   - Mulliken gross atomic population
  ZA   - Total nuclear charge
  QA   - Mulliken gross atomic charge
  VA   - Mayer's total valence
  BVA  - Mayer's bonded valence
  FA   - Mayer's free valence

  ATOM       NA         ZA         QA         VA         BVA        FA
  0 Sc    21.0000    21.0000    -0.0000     1.0243     0.0000     1.0243

  Mayer bond orders larger than 0.100000


-------
TIMINGS
-------

Total SCF time: 0 days 0 hours 0 min 4 sec 

Total time                  ....       4.244 sec
Sum of individual times     ....       4.007 sec  ( 94.4%)

Fock matrix formation       ....       3.743 sec  ( 88.2%)
Diagonalization             ....       0.043 sec  (  1.0%)
Density matrix formation    ....       0.011 sec  (  0.3%)
Population analysis         ....       0.003 sec  (  0.1%)
Initial guess               ....       0.149 sec  (  3.5%)
Orbital Transformation      ....       0.000 sec  (  0.0%)
Orbital Orthonormalization  ....       0.000 sec  (  0.0%)
DIIS solution               ....       0.036 sec  (  0.8%)


           ************************************************************
           *        Program running with 24 parallel MPI-processes    *
           *              working on a common directory               *
           ************************************************************


------------------------------------------------------------------------------- 
                              ORCA-MATRIX DRIVEN CI                            
------------------------------------------------------------------------------- 

--------------------------------
AUTOMATIC CHOICE OF INCORE LEVEL
--------------------------------

Memory available                           ...   2500.00 MB
Memory needed for S+T                      ...      1.35 MB
Memory needed for J+K                      ...      2.72 MB
Memory needed for DIIS                     ...     18.90 MB
Memory needed for 3-ext                    ...      6.82 MB
Memory needed for 4-ext                    ...     30.67 MB
Memory needed for triples                  ...      5.68 MB
 -> Final InCoreLevel    ... 5
 -> check shows that triples correction can be computed


Wavefunction type
-----------------
Correlation treatment                      ...      CCSD     
Single excitations                         ... ON
Orbital optimization                       ... OFF
Calculation of Z vector                    ... OFF
Calculation of Brueckner orbitals          ... OFF
Perturbative triple excitations            ... ON
Calculation of F12 correction              ... OFF
Frozen core treatment                      ... chemical core (10 el)
Reference Wavefunction                     ... UHF
  Alpha-MOs occ    :     5 ...   10 (  6 MO's/  6 electrons)
  Beta-MOs occ     :     5 ...    9 (  5 MO's/  5 electrons)
  Alpha-MOs virt   :    11 ...   63 ( 53 MO's              )
  Beta-MOs virt    :    10 ...   63 ( 54 MO's              )
Number of AO's                             ...     64
Number of electrons                        ...     21
Number of correlated electrons             ...     11

Algorithmic settings
--------------------
Integral transformation                    ... AO direct full transformation
K(C) Formation                             ... FULL-MO TRAFO
Maximum number of iterations               ...        50
Convergence tolerance (max. residuum)      ... 1.000e-06
Level shift for amplitude update           ... 2.000e-01
Maximum number of DIIS vectors             ...         7
DIIS turned on at iteration                ...         0
Damping before turning on DIIS             ...     0.500
Damping after turning on DIIS              ...     0.000
Pair specific amplitude update             ... OFF
Natural orbital iterations                 ... OFF
Perturbative natural orbital generation    ... OFF
Printlevel                                 ... 2

Memory handling:
----------------
Maximum memory for working arrays          ...   2500 MB
Data storage in matrix containers          ... UNCOMPRESSED
Data type for integral storage             ... DOUBLE
In-Core Storage of quantities:
   Amplitudes+Sigma Vector      ... YES
   J+K operators                ... YES
   DIIS vectors                 ... YES
   3-external integrals         ... YES
   4-external integrals         ... YES


Initializing the integral package          ... done
Warning: reference  - re-canonicalizations have been set to INT 1 VIRT 1

--------------------------
UNRESTRICTED FOCK OPERATOR
--------------------------

<ss|ss>:          231 b            0 skpd (  0.0%)    0.000 s ( 0.002 ms/b)
<ss|sp>:          630 b            0 skpd (  0.0%)    0.001 s ( 0.001 ms/b)
<ss|sd>:          504 b            0 skpd (  0.0%)    0.001 s ( 0.001 ms/b)
<ss|sf>:          252 b            0 skpd (  0.0%)    0.000 s ( 0.001 ms/b)
<ss|sg>:          126 b            0 skpd (  0.0%)    0.000 s ( 0.002 ms/b)
<ss|pp>:          315 b            0 skpd (  0.0%)    0.001 s ( 0.002 ms/b)
<ss|pd>:          420 b            0 skpd (  0.0%)    0.001 s ( 0.001 ms/b)
<ss|pf>:          210 b            0 skpd (  0.0%)    0.000 s ( 0.001 ms/b)
<ss|pg>:          105 b            0 skpd (  0.0%)    0.000 s ( 0.003 ms/b)
<ss|dd>:          210 b            0 skpd (  0.0%)    0.001 s ( 0.002 ms/b)
<ss|df>:          168 b            0 skpd (  0.0%)    0.000 s ( 0.002 ms/b)
<ss|dg>:           84 b            0 skpd (  0.0%)    0.000 s ( 0.005 ms/b)
<ss|ff>:           63 b            0 skpd (  0.0%)    0.000 s ( 0.002 ms/b)
<ss|fg>:           42 b            0 skpd (  0.0%)    0.000 s ( 0.004 ms/b)
<ss|gg>:           21 b            0 skpd (  0.0%)    0.000 s ( 0.012 ms/b)
<sp|sp>:          465 b            0 skpd (  0.0%)    0.001 s ( 0.001 ms/b)
<sp|sd>:          720 b            0 skpd (  0.0%)    0.001 s ( 0.001 ms/b)
<sp|sf>:          360 b            0 skpd (  0.0%)    0.000 s ( 0.001 ms/b)
<sp|sg>:          180 b            0 skpd (  0.0%)    0.000 s ( 0.003 ms/b)
<sp|pp>:          450 b            0 skpd (  0.0%)    0.001 s ( 0.002 ms/b)
<sp|pd>:          600 b            0 skpd (  0.0%)    0.001 s ( 0.002 ms/b)
<sp|pf>:          300 b            0 skpd (  0.0%)    0.001 s ( 0.002 ms/b)
<sp|pg>:          150 b            0 skpd (  0.0%)    0.001 s ( 0.005 ms/b)
<sp|dd>:          300 b            0 skpd (  0.0%)    0.001 s ( 0.004 ms/b)
<sp|df>:          240 b            0 skpd (  0.0%)    0.001 s ( 0.004 ms/b)
<sp|dg>:          120 b            0 skpd (  0.0%)    0.001 s ( 0.009 ms/b)
<sp|ff>:           90 b            0 skpd (  0.0%)    0.000 s ( 0.004 ms/b)
<sp|fg>:           60 b            0 skpd (  0.0%)    0.001 s ( 0.009 ms/b)
<sp|gg>:           30 b            0 skpd (  0.0%)    0.001 s ( 0.023 ms/b)
<sd|sd>:          300 b            0 skpd (  0.0%)    0.001 s ( 0.002 ms/b)
<sd|sf>:          288 b            0 skpd (  0.0%)    0.000 s ( 0.001 ms/b)
<sd|sg>:          144 b            0 skpd (  0.0%)    0.001 s ( 0.004 ms/b)
<sd|pp>:          360 b            0 skpd (  0.0%)    0.001 s ( 0.003 ms/b)
<sd|pd>:          480 b            0 skpd (  0.0%)    0.001 s ( 0.003 ms/b)
<sd|pf>:          240 b            1 skpd (  0.4%)    0.001 s ( 0.003 ms/b)
<sd|pg>:          120 b            1 skpd (  0.8%)    0.001 s ( 0.009 ms/b)
<sd|dd>:          240 b            0 skpd (  0.0%)    0.002 s ( 0.007 ms/b)
<sd|df>:          192 b            0 skpd (  0.0%)    0.001 s ( 0.007 ms/b)
<sd|dg>:           96 b            0 skpd (  0.0%)    0.002 s ( 0.018 ms/b)
<sd|ff>:           72 b            0 skpd (  0.0%)    0.001 s ( 0.008 ms/b)
<sd|fg>:           48 b            0 skpd (  0.0%)    0.001 s ( 0.018 ms/b)
<sd|gg>:           24 b            0 skpd (  0.0%)    0.001 s ( 0.049 ms/b)
<sf|sf>:           78 b            0 skpd (  0.0%)    0.000 s ( 0.001 ms/b)
<sf|sg>:           72 b            0 skpd (  0.0%)    0.000 s ( 0.005 ms/b)
<sf|pp>:          180 b            0 skpd (  0.0%)    0.001 s ( 0.004 ms/b)
<sf|pd>:          240 b            1 skpd (  0.4%)    0.001 s ( 0.004 ms/b)
<sf|pf>:          120 b            2 skpd (  1.7%)    0.000 s ( 0.004 ms/b)
<sf|pg>:           60 b            1 skpd (  1.7%)    0.001 s ( 0.010 ms/b)
<sf|dd>:          120 b            0 skpd (  0.0%)    0.001 s ( 0.010 ms/b)
<sf|df>:           96 b            0 skpd (  0.0%)    0.001 s ( 0.009 ms/b)
<sf|dg>:           48 b            0 skpd (  0.0%)    0.001 s ( 0.025 ms/b)
<sf|ff>:           36 b            1 skpd (  2.8%)    0.001 s ( 0.015 ms/b)
<sf|fg>:           24 b            0 skpd (  0.0%)    0.001 s ( 0.027 ms/b)
<sf|gg>:           12 b            0 skpd (  0.0%)    0.001 s ( 0.073 ms/b)
<sg|sg>:           21 b            1 skpd (  4.8%)    0.000 s ( 0.007 ms/b)
<sg|pp>:           90 b            0 skpd (  0.0%)    0.001 s ( 0.008 ms/b)
<sg|pd>:          120 b            1 skpd (  0.8%)    0.001 s ( 0.008 ms/b)
<sg|pf>:           60 b            1 skpd (  1.7%)    0.000 s ( 0.007 ms/b)
<sg|pg>:           30 b            1 skpd (  3.3%)    0.001 s ( 0.019 ms/b)
<sg|dd>:           60 b            0 skpd (  0.0%)    0.001 s ( 0.019 ms/b)
<sg|df>:           48 b            0 skpd (  0.0%)    0.001 s ( 0.017 ms/b)
<sg|dg>:           24 b            0 skpd (  0.0%)    0.001 s ( 0.054 ms/b)
<sg|ff>:           18 b            0 skpd (  0.0%)    0.000 s ( 0.019 ms/b)
<sg|fg>:           12 b            0 skpd (  0.0%)    0.001 s ( 0.050 ms/b)
<sg|gg>:            6 b            0 skpd (  0.0%)    0.001 s ( 0.136 ms/b)
<pp|pp>:          120 b            0 skpd (  0.0%)    0.001 s ( 0.008 ms/b)
<pp|pd>:          300 b            0 skpd (  0.0%)    0.001 s ( 0.004 ms/b)
<pp|pf>:          150 b            0 skpd (  0.0%)    0.001 s ( 0.005 ms/b)
<pp|pg>:           75 b            0 skpd (  0.0%)    0.001 s ( 0.013 ms/b)
<pp|dd>:          150 b            0 skpd (  0.0%)    0.001 s ( 0.010 ms/b)
<pp|df>:          120 b            0 skpd (  0.0%)    0.001 s ( 0.009 ms/b)
<pp|dg>:           60 b            0 skpd (  0.0%)    0.002 s ( 0.025 ms/b)
<pp|ff>:           45 b            0 skpd (  0.0%)    0.001 s ( 0.012 ms/b)
<pp|fg>:           30 b            0 skpd (  0.0%)    0.001 s ( 0.026 ms/b)
<pp|gg>:           15 b            0 skpd (  0.0%)    0.001 s ( 0.070 ms/b)
<pd|pd>:          210 b            0 skpd (  0.0%)    0.002 s ( 0.009 ms/b)
<pd|pf>:          200 b            0 skpd (  0.0%)    0.001 s ( 0.007 ms/b)
<pd|pg>:          100 b            0 skpd (  0.0%)    0.002 s ( 0.020 ms/b)
<pd|dd>:          200 b            0 skpd (  0.0%)    0.003 s ( 0.015 ms/b)
<pd|df>:          160 b            0 skpd (  0.0%)    0.002 s ( 0.014 ms/b)
<pd|dg>:           80 b            0 skpd (  0.0%)    0.003 s ( 0.042 ms/b)
<pd|ff>:           60 b            0 skpd (  0.0%)    0.001 s ( 0.021 ms/b)
<pd|fg>:           40 b            0 skpd (  0.0%)    0.002 s ( 0.045 ms/b)
<pd|gg>:           20 b            0 skpd (  0.0%)    0.002 s ( 0.125 ms/b)
<pf|pf>:           55 b            0 skpd (  0.0%)    0.000 s ( 0.006 ms/b)
<pf|pg>:           50 b            0 skpd (  0.0%)    0.001 s ( 0.025 ms/b)
<pf|dd>:          100 b            0 skpd (  0.0%)    0.002 s ( 0.018 ms/b)
<pf|df>:           80 b            0 skpd (  0.0%)    0.001 s ( 0.018 ms/b)
<pf|dg>:           40 b            0 skpd (  0.0%)    0.002 s ( 0.052 ms/b)
<pf|ff>:           30 b            0 skpd (  0.0%)    0.001 s ( 0.035 ms/b)
<pf|fg>:           20 b            0 skpd (  0.0%)    0.001 s ( 0.068 ms/b)
<pf|gg>:           10 b            0 skpd (  0.0%)    0.002 s ( 0.169 ms/b)
<pg|pg>:           15 b            0 skpd (  0.0%)    0.001 s ( 0.038 ms/b)
<pg|dd>:           50 b            0 skpd (  0.0%)    0.002 s ( 0.035 ms/b)
<pg|df>:           40 b            0 skpd (  0.0%)    0.001 s ( 0.031 ms/b)
<pg|dg>:           20 b            0 skpd (  0.0%)    0.002 s ( 0.101 ms/b)
<pg|ff>:           15 b            0 skpd (  0.0%)    0.001 s ( 0.043 ms/b)
<pg|fg>:           10 b            0 skpd (  0.0%)    0.001 s ( 0.112 ms/b)
<pg|gg>:            5 b            0 skpd (  0.0%)    0.001 s ( 0.282 ms/b)
<dd|dd>:           55 b            0 skpd (  0.0%)    0.002 s ( 0.045 ms/b)
<dd|df>:           80 b            0 skpd (  0.0%)    0.002 s ( 0.023 ms/b)
<dd|dg>:           40 b            0 skpd (  0.0%)    0.003 s ( 0.073 ms/b)
<dd|ff>:           30 b            0 skpd (  0.0%)    0.001 s ( 0.036 ms/b)
<dd|fg>:           20 b            0 skpd (  0.0%)    0.002 s ( 0.079 ms/b)
<dd|gg>:           10 b            0 skpd (  0.0%)    0.002 s ( 0.219 ms/b)
<df|df>:           36 b            0 skpd (  0.0%)    0.001 s ( 0.025 ms/b)
<df|dg>:           32 b            0 skpd (  0.0%)    0.003 s ( 0.083 ms/b)
<df|ff>:           24 b            0 skpd (  0.0%)    0.001 s ( 0.060 ms/b)
<df|fg>:           16 b            0 skpd (  0.0%)    0.002 s ( 0.114 ms/b)
<df|gg>:            8 b            0 skpd (  0.0%)    0.002 s ( 0.298 ms/b)
<dg|dg>:           10 b            0 skpd (  0.0%)    0.001 s ( 0.107 ms/b)
<dg|ff>:           12 b            0 skpd (  0.0%)    0.001 s ( 0.071 ms/b)
<dg|fg>:            8 b            0 skpd (  0.0%)    0.001 s ( 0.177 ms/b)
<dg|gg>:            4 b            0 skpd (  0.0%)    0.002 s ( 0.454 ms/b)
<ff|ff>:            6 b            0 skpd (  0.0%)    0.001 s ( 0.088 ms/b)
<ff|fg>:            6 b            0 skpd (  0.0%)    0.001 s ( 0.165 ms/b)
<ff|gg>:            3 b            0 skpd (  0.0%)    0.001 s ( 0.453 ms/b)
<fg|fg>:            3 b            0 skpd (  0.0%)    0.001 s ( 0.311 ms/b)
<fg|gg>:            2 b            0 skpd (  0.0%)    0.001 s ( 0.741 ms/b)
<gg|gg>:            1 b            0 skpd (  0.0%)    0.002 s ( 1.682 ms/b)
Recanonicalizing the internal orbitals
Recanonicalizing the virtual orbitals
Time needed for Fock operator              ...            0.138 sec
Reference energy                           ...   -759.725040996
Warning: for UHF the TrafoType has to be JK
Warning: for UHF the K(C)-option cannot be MO but must be AOX

-------------------------------
PARTIAL EXCHANGE TRANSFORMATION
-------------------------------

Transformation type                        ... two-operators
Generation of integrals (i,mue|j,nue)      ... ON
Generation of integrals (mue,kappa|nue,tau)... ON
Generation of integrals (i,mue|a,nue)      ... ON
Dimension of the basis                     ...   64
Number of internal alpha-MOs               ...    6 (   5-  10)
Number of internal beta-MOs                ...    5 (   5-   9)
Number of external alpha-MOs               ...   53 (  11-  63)
Number of external beta-MOs                ...   54 (  10-  63)
Pair cutoff                                ... 0.000e+00 Eh
Number of AO pairs in the trafo            ... 2080
Total Number of distinct AO pairs          ... 2080
Memory devoted for trafo                   ... 2500.0 MB 
Max. Number of MO pairs treated together   ... 80000      
Number Format for Storage                  ... Double (8 Byte)
Integral package used                      ... LIBINT

Starting integral evaluation:
    ... done with AO integral generation
Closing buffer AOK[aa] ( 0.00 GB; CompressionRatio= 0.00)
Closing buffer AOK[bb] ( 0.00 GB; CompressionRatio= 0.00)
Closing buffer AOK[ab] ( 0.00 GB; CompressionRatio= 0.00)
Closing buffer AOK[ba] ( 0.00 GB; CompressionRatio= 0.00)
Collecting buffer AOK 
Closing buffer IAAO1[aa] ( 0.00 GB; CompressionRatio= 0.00)
Closing buffer IAAO1[bb] ( 0.00 GB; CompressionRatio= 0.00)
Closing buffer IAAO1[ab] ( 0.00 GB; CompressionRatio= 0.00)
Closing buffer IAAO1[ba] ( 0.00 GB; CompressionRatio= 0.00)
Closing buffer IAAO2[aa] ( 0.00 GB; CompressionRatio= 0.00)
Closing buffer IAAO2[bb] ( 0.00 GB; CompressionRatio= 0.00)
Closing buffer IAAO2[ab] ( 0.00 GB; CompressionRatio= 0.00)
Closing buffer IAAO2[ba] ( 0.00 GB; CompressionRatio= 0.00)
Collecting buffer IAAO 
Closing buffer PRQS    ( 0.00 GB; CompressionRatio= 0.00)
Collecting buffer PRQS 
Number of alpha/alpha MO pairs in trafo    ...   21
Number of beta /beta  MO pairs in trafo    ...   15
Number of alpha/ beta MO pairs in trafo    ...   30
------------------------
SORTING OF (i,mue|j,nue)
------------------------

SORTING OF ALPHA/ALPHA PAIRS
IBATCH = 1 of  1
Closing buffer KAO[aa] ( 0.00 GB; CompressionRatio= 1.00)
Collecting buffer KAO 
SORTING OF BETA /BETA  PAIRS
IBATCH = 1 of  1
Closing buffer KAO[bb] ( 0.00 GB; CompressionRatio= 1.00)
Collecting buffer KAO 
SORTING OF ALPHA/BETA  PAIRS
IBATCH = 1 of  1
Closing buffer KAO[ab] ( 0.00 GB; CompressionRatio= 0.999633923124)
Collecting buffer KAO[ab] 
------------------------
SORTING OF (i,mue|a,nue)
------------------------

Number of alpha/alpha (i,a) pairs in trafo  ...  318
Number of beta /beta  (i,a) pairs in trafo  ...  270
Number of alpha/ beta (i,a) pairs in trafo  ...  324
Number of beta /alpha (i,a) pairs in trafo  ...  265
Setting up the alpha/alpha list             ... done
Setting up the beta /beta  list             ... done
Setting up the alpha/beta  list             ... done
Setting up the beta /alpha list             ... done
    ... Now sorting (i,mue|a,nue)integrals
    ... Integrals (i,b|a,c) will be made on the fly
SORTING OF ALPHA/ALPHA PAIRS
IBATCH = 1 of  1
Closing buffer IPAQ[aa]  0.00 GB; CompressionRatio= 1.00)
SORTING OF BETA /BETA  PAIRS
IBATCH = 1 of  1
Closing buffer IPAQ[bb]( 0.00 GB; CompressionRatio= 1.00)
SORTING OF ALPHA/BETA  PAIRS (NMatSort_ab=14)
IBATCH = 1 of  1
Closing buffer IPAQ[ab]( 0.00 GB; CompressionRatio= 1.00)
SORTING OF BETA/ALPHA  PAIRS
IBATCH = 1 of  1
Closing buffer IPAQ[ba]( 0.00 GB; CompressionRatio= 1.00)
N(AO-Batches) Done                         ...         0 
N(AO-Batches) Skipped                      ...         0 
N(IJ)-pairs Skipped                        ...         0 
TOTAL TIME for half transformation         ...     0.337 sec
AO-integral generation                     ...     0.000 sec
Half transformation                        ...     0.000 sec
K-integral sorting                         ...     0.136 sec
<ss|**>: 
------------------------------
PARTIAL COULOMB TRANSFORMATION
------------------------------

Transformation type                        ... two-operators
Dimension of the basis                     ...   64
Number of internal alpha-MOs               ...    6 (5-10)
Number of internal beta-MOs                ...    5 (5-9)
Pair cutoff                                ... 0.000e+00 Eh
Number of AO pairs included in the trafo   ... 2080
Total Number of distinct AO pairs          ... 2080
Memory devoted for trafo                   ... 2500.0 MB 
Max. Number of MO pairs treated together   ... 157538      
Max. Number of MOs treated per batch       ... 2461      
Number Format for Storage                  ... Double (8 Byte)
AO-integral source                         ... DIRECT
Integral package used                      ... LIBINT

Starting integral evaluation:
        3591 b        0 skpd     0.001 s (  0.000 ms/b)
<sp|**>: <sd|**>:         5130 b        0 skpd     0.008 s (  0.002 ms/b)
<sf|**>:         4104 b        0 skpd     0.010 s (  0.002 ms/b)
<sg|**>:         2052 b        0 skpd     0.006 s (  0.003 ms/b)
<pp|**>:         1026 b        0 skpd     0.010 s (  0.009 ms/b)
        2565 b        0 skpd     0.014 s (  0.005 ms/b)
<pd|**>:         3420 b        0 skpd     0.020 s (  0.006 ms/b)
<pf|**>:         1710 b        0 skpd     0.008 s (  0.005 ms/b)
<pg|**>:          855 b        0 skpd     0.017 s (  0.020 ms/b)
<dd|**>:         1710 b        0 skpd     0.022 s (  0.013 ms/b)
<df|**>:         1368 b        0 skpd     0.014 s (  0.010 ms/b)
<dg|**>:          684 b        0 skpd     0.019 s (  0.027 ms/b)
<ff|**>:          513 b        0 skpd     0.008 s (  0.016 ms/b)
<fg|**>:          342 b        0 skpd     0.012 s (  0.035 ms/b)
<gg|**>:          171 b        0 skpd     0.018 s (  0.103 ms/b)
Closing buffer AOJ[aa] ( 0.00 GB; CompressionRatio= 0.93)
Closing buffer AOJ[bb] ( 0.00 GB; CompressionRatio= 0.00)
Collecting buffer AOJ 
    ... done with AO integral generation
Number of Alpha-MO pairs included          ...   21
Number of Beta-MO pairs included           ...   15
    ... Now sorting integrals
SORTING ALPHA/ALPHA PAIRS
IBATCH = 1 of  1
Closing buffer JAO[aa] ( 0.00 GB; CompressionRatio= 1.00)
SORTING BETA/BETA PAIRS
IBATCH = 1 of  1
Closing buffer JAO[bb] ( 0.00 GB; CompressionRatio= 1.00)
Collecting buffer JAO 
TOTAL TIME for half transformation         ...     0.197 sec
AO-integral generation                     ...     0.187 sec
Half transformation                        ...     0.002 sec
J-integral sorting                         ...     0.006 sec

-------------------------- SECOND HALF TRANSFORMATION -------------------------
Formation of (ij|kl),(ij|ka), (ij|ab)      ... ok (     0.014 sec)
Formation of (ik|jl),(ik|ja), (ia|jb)      ... ok (     0.020 sec)


-----------------------
SPIN UNRESTRICTED GUESS
-----------------------

Entering MDCI_UHF_Guess, Tailored=0
Spin-components of the MP2 energy:
EMP2(aa)=     -0.034766335
EMP2(bb)=     -0.029842548
EMP2(ab)=     -0.168878658

Initial guess performed in     0.004 sec
E(0)                                       ...   -759.725040996
E(MP2)                                     ...     -0.233487541
Initial E(tot)                             ...   -759.958528537
<T|T>                                      ...      0.087737588
Number of pairs included                   ... 55

------------------------------------------------
                  UHF COUPLED CLUSTER ITERATIONS
------------------------------------------------

Number of amplitudes to be optimized       ...       121794

Iter       E(tot)           E(Corr)          Delta-E          Residual     Time      <S|S>**1/2
  0   -759.958528537     -0.233487541      0.000000000      0.016779013    0.18      0.000000157
                           *** Turning on DIIS ***
  1   -759.973347609     -0.248306613     -0.014819072      0.008201476    0.19      0.029542316
  2   -759.979848563     -0.254807567     -0.006500954      0.004651326    0.19      0.048931206
  3   -759.981786799     -0.256745803     -0.001938236      0.002101645    0.19      0.062755841
  4   -759.982710095     -0.257669099     -0.000923296      0.000811786    0.19      0.071870746
  5   -759.982946332     -0.257905336     -0.000236236      0.000517042    0.20      0.075149955
  6   -759.982959568     -0.257918572     -0.000013236      0.000353135    0.19      0.075910007
  7   -759.982956222     -0.257915226      0.000003346      0.000189056    0.19      0.076284925
  8   -759.982959012     -0.257918016     -0.000002791      0.000113897    0.20      0.076446377
  9   -759.982967380     -0.257926384     -0.000008368      0.000063167    0.20      0.076618610
 10   -759.982969049     -0.257928053     -0.000001668      0.000038860    0.21      0.076724263
 11   -759.982970543     -0.257929547     -0.000001494      0.000016760    0.20      0.076851781
 12   -759.982970713     -0.257929717     -0.000000170      0.000006454    0.19      0.076929564
 13   -759.982970100     -0.257929105      0.000000612      0.000003651    0.19      0.076941414
 14   -759.982969389     -0.257928394      0.000000711      0.000002391    0.19      0.076936068
 15   -759.982969001     -0.257928005      0.000000388      0.000001429    0.20      0.076931539
 16   -759.982968896     -0.257927901      0.000000105      0.000000743    0.19      0.076929924
               --- The Coupled-Cluster iterations have converged ---

----------------------
COUPLED CLUSTER ENERGY
----------------------

E(0)                                       ...   -759.725040996
E(CORR)                                    ...     -0.257927901
E(TOT)                                     ...   -759.982968896
Singles norm <S|S>**1/2                    ...      0.076929924 ( 0.043848237, 0.033081688)  
T1 diagnostic                              ...      0.023195245                              

------------------
LARGEST AMPLITUDES
------------------
  10a-> 13a   9b-> 10b       0.125649
  10a-> 11a   9b-> 11b       0.108855
  10a-> 12a   9b-> 12b       0.108855
   9b-> 18b  -1b-> -1b       0.070577
  10a-> 19a  -1a-> -1a       0.053774
  10a-> 24a   9b-> 10b       0.045109
  10a-> 13a   9b-> 24b       0.044031
  10a-> 11a   9b-> 25b       0.040862
  10a-> 12a   9b-> 26b       0.040862
  10a-> 25a   9b-> 11b       0.039195
  10a-> 26a   9b-> 12b       0.039195
   9a-> 34a  -1a-> -1a       0.038440
   9a-> 18a  -1a-> -1a       0.035793
   9a-> 12a   9b-> 12b       0.035597
   9a-> 11a   9b-> 11b       0.035597
  10a-> 19a   9b-> 18b       0.032379

----------------------
UHF TRIPLES CORRECTION (Algorithm 1)
----------------------

Multiplier for the singles contribution    ...      1.000000000

SPIN-CASE Alpha-Alpha-Alpha:
10% done
20% done
30% done
40% done
50% done
60% done
70% done
80% done
90% done


SPIN-CASE Beta-Beta-Beta:
10% done
20% done
30% done
40% done
50% done
60% done
70% done
80% done
90% done


SPIN-CASE Alpha-Alpha-Beta:
10% done
20% done
30% done
40% done
50% done
60% done
70% done
80% done
90% done


SPIN-CASE Beta-Beta-Alpha:
10% done
20% done
30% done
40% done
50% done
60% done
70% done
80% done
90% done


Triples Correction (T)                     ...     -0.007750193
    alpha-alpha-alpha ... -0.000235005 (  3.0%)
    alpha-alpha-beta  ... -0.004199134 ( 54.2%)
    alpha-beta -beta  ... -0.003183415 ( 41.1%)
    beta -beta -beta  ... -0.000132639 (  1.7%)
Scaling of triples based on CCSD energies (Peterson et al. Molecular Physics 113, 1551 (2015))
E(T*) = f*E(T) where f = E(F12-CCSD)/E(CCSD) 
f = CCSD (with F12)/ CCSD (without F12)    ...      1.000000000
Scaled triples correction (T)              ...     -0.007750193

Final correlation energy                   ...     -0.265678094
E(CCSD)                                    ...   -759.982968896
E(CCSD(T))                                 ...   -759.990719090



        !!!!!!!!!!!!!!!!!!!!!!!!!!!!!!!!!!!!!!!!!!!!!!!!!!!!!!!!!!!!!!!!!!!!!!!!!! 
        !  Warning: Densities are linearized densities                           !
        !!!!!!!!!!!!!!!!!!!!!!!!!!!!!!!!!!!!!!!!!!!!!!!!!!!!!!!!!!!!!!!!!!!!!!!!!! 

NORM  =      1.140623375 sqrt=     1.067999708
W(HF) =      0.876713578
------------------------------------------------------------------------------
                           ORCA POPULATION ANALYSIS
------------------------------------------------------------------------------
Input electron density              ... 61_Sc.mdcip
Input spin density                  ... 61_Sc.mdcir
BaseName (.gbw .S,...)              ... 61_Sc

                    ********************************
                    * MULLIKEN POPULATION ANALYSIS *
                    ********************************

------------------------------------------
MULLIKEN ATOMIC CHARGES AND SPIN DENSITIES
------------------------------------------
   0 Sc:   -0.000000    1.000000
Sum of atomic charges       :   -0.0000000
Sum of atomic spin densities:    1.0000000

---------------------------------------------------
MULLIKEN REDUCED ORBITAL CHARGES AND SPIN DENSITIES
---------------------------------------------------
CHARGE
  0 Scs       :     7.859877  s :     7.859877
      pz      :     4.015687  p :    12.044164
      px      :     4.014238
      py      :     4.014239
      dz2     :     0.026030  d :     1.085701
      dxz     :     0.022998
      dyz     :     0.022553
      dx2y2   :     0.019152
      dxy     :     0.994968
      f0      :     0.000591  f :     0.009696
      f+1     :     0.000700
      f-1     :     0.000699
      f+2     :     0.000438
      f-2     :     0.001996
      f+3     :     0.002635
      f-3     :     0.002635
      g0      :     0.000025  g :     0.000563
      g+1     :     0.000029
      g-1     :     0.000029
      g+2     :     0.000018
      g-2     :     0.000068
      g+3     :     0.000073
      g-3     :     0.000073
      g+4     :     0.000125
      g-4     :     0.000123

SPIN
  0 Scs       :     0.012692  s :     0.012692
      pz      :    -0.000547  p :     0.006444
      px      :     0.003496
      py      :     0.003494
      dz2     :    -0.002206  d :     0.974936
      dxz     :     0.000844
      dyz     :     0.000390
      dx2y2   :    -0.000685
      dxy     :     0.976592
      f0      :    -0.000049  f :     0.005593
      f+1     :     0.000099
      f-1     :     0.000097
      f+2     :    -0.000015
      f-2     :     0.001341
      f+3     :     0.002060
      f-3     :     0.002060
      g0      :     0.000002  g :     0.000336
      g+1     :     0.000006
      g-1     :     0.000006
      g+2     :    -0.000000
      g-2     :     0.000040
      g+3     :     0.000047
      g-3     :     0.000047
      g+4     :     0.000096
      g-4     :     0.000092


                     *******************************
                     * LOEWDIN POPULATION ANALYSIS *
                     *******************************

-----------------------------------------
LOEWDIN ATOMIC CHARGES AND SPIN DENSITIES
-----------------------------------------
   0 Sc:   -0.000000    1.000000

--------------------------------------------------
LOEWDIN REDUCED ORBITAL CHARGES AND SPIN DENSITIES
--------------------------------------------------
CHARGE
  0 Scs       :     7.859877  s :     7.859877
      pz      :     4.015687  p :    12.044164
      px      :     4.014238
      py      :     4.014239
      dz2     :     0.026030  d :     1.085701
      dxz     :     0.022998
      dyz     :     0.022553
      dx2y2   :     0.019152
      dxy     :     0.994968
      f0      :     0.000591  f :     0.009696
      f+1     :     0.000700
      f-1     :     0.000699
      f+2     :     0.000438
      f-2     :     0.001996
      f+3     :     0.002635
      f-3     :     0.002635
      g0      :     0.000025  g :     0.000563
      g+1     :     0.000029
      g-1     :     0.000029
      g+2     :     0.000018
      g-2     :     0.000068
      g+3     :     0.000073
      g-3     :     0.000073
      g+4     :     0.000125
      g-4     :     0.000123

SPIN
  0 Scs       :     0.012692  s :     0.012692
      pz      :    -0.000547  p :     0.006444
      px      :     0.003496
      py      :     0.003494
      dz2     :    -0.002206  d :     0.974936
      dxz     :     0.000844
      dyz     :     0.000390
      dx2y2   :    -0.000685
      dxy     :     0.976592
      f0      :    -0.000049  f :     0.005593
      f+1     :     0.000099
      f-1     :     0.000097
      f+2     :    -0.000015
      f-2     :     0.001341
      f+3     :     0.002060
      f-3     :     0.002060
      g0      :     0.000002  g :     0.000336
      g+1     :     0.000006
      g-1     :     0.000006
      g+2     :    -0.000000
      g-2     :     0.000040
      g+3     :     0.000047
      g-3     :     0.000047
      g+4     :     0.000096
      g-4     :     0.000092


                      *****************************
                      * MAYER POPULATION ANALYSIS *
                      *****************************

  NA   - Mulliken gross atomic population
  ZA   - Total nuclear charge
  QA   - Mulliken gross atomic charge
  VA   - Mayer's total valence
  BVA  - Mayer's bonded valence
  FA   - Mayer's free valence

  ATOM       NA         ZA         QA         VA         BVA        FA
  0 Sc    21.0000    21.0000    -0.0000     1.9513     0.0000     1.9513





------------------------------------------------------------------------------- 
                                     TIMINGS                                   
------------------------------------------------------------------------------- 


Total execution time                   ...        4.369 sec

Fock Matrix Formation                  ...        0.138 sec (  3.2%)
Initial Guess                          ...        0.004 sec (  0.1%)
DIIS Solver                            ...        0.178 sec (  4.1%)
State Vector Update                    ...        0.008 sec (  0.2%)
Sigma-vector construction              ...        3.119 sec ( 71.4%)
  <D|H|D>(0-ext Fock)                  ...        0.002 sec (  0.1% of sigma)
  <D|H|D>(0-ext)                       ...        0.004 sec (  0.1% of sigma)
  <D|H|D>(2-ext Fock)                  ...        0.002 sec (  0.1% of sigma)
  <D|H|D>(2-ext)                       ...        0.028 sec (  0.9% of sigma)
  <D|H|D>(4-ext)                       ...        1.020 sec ( 32.7% of sigma)
  <S|H|0>                              ...        0.063 sec (  2.0% of sigma)
  <S|H|S>                              ...        0.001 sec (  0.0% of sigma)
  <D|H|S>(1-ext)                       ...        0.018 sec (  0.6% of sigma)
  Fock-dressing                        ...        1.404 sec ( 45.0% of sigma)
  (ik|jl)-dressing                     ...        0.005 sec (  0.2% of sigma)
  (ij|ab),(ia|jb)-dressing             ...        0.432 sec ( 13.9% of sigma)
  Pair energies                        ...        0.002 sec (  0.1% of sigma)
Total Time for computing (T)           ...        0.104 sec (  2.4% of ALL)
  I/O of integral and amplitudes       ...        0.032 sec ( 31.1% of (T))
  External N**7 contributions          ...        0.025 sec ( 24.3% of (T))
  Internal N**7 contributions          ...        0.010 sec (  9.3% of (T))
  N**6 triples energy contributions    ...        0.032 sec ( 30.6% of (T))

----- Orbital basis set information -----
Your calculation utilizes the basis: def2-QZVPP
   F. Weigend and R. Ahlrichs, Phys. Chem. Chem. Phys. 7, 3297 (2005).

----- AuxJ basis set information -----
Your calculation utilizes the auxiliary basis: def2/J
   F. Weigend, Phys. Chem. Chem. Phys. 8, 1057 (2006).

----- AuxC basis set information -----
Your calculation utilizes the auxiliary basis: def2-QZVPP/C
  H-La, Hf-Rn : A. Hellweg, C. Hattig, S. Hofener and W. Klopper, Theor. Chem. Acc. 117, 587 (2007).
        Ce-Lu : J. Chmela and M. E. Harding, Mol. Phys. (2018).

----- AuxJK basis set information -----
Your calculation utilizes the auxiliary basis: def2/JK
   H-Ba, Hf-Rn: F. Weigend, J. Comput. Chem. 29, 167 (2008).

All done

                     -----------------------------------------
                     Extrapolated Energy 2 Basis=  def2-QZVPP
                     -----------------------------------------

---------------------------------
CARTESIAN COORDINATES (ANGSTROEM)
---------------------------------
  Sc     0.000000    0.000000    0.000000

----------------------------
CARTESIAN COORDINATES (A.U.)
----------------------------
  NO LB      ZA    FRAG     MASS         X           Y           Z
   0 Sc   21.0000    0    44.960    0.000000    0.000000    0.000000

--------------------------------
INTERNAL COORDINATES (ANGSTROEM)
--------------------------------
 Sc     0   0   0     0.000000000000     0.00000000     0.00000000

---------------------------
INTERNAL COORDINATES (A.U.)
---------------------------
 Sc     0   0   0     0.000000000000     0.00000000     0.00000000

---------------------
BASIS SET INFORMATION
---------------------
There are 1 groups of distinct atoms

 Group   1 Type Sc  : 24s18p9d3f2g contracted to 11s6p5d3f2g pattern {114111111111/951111/51111/111/11}

Atom   0Sc   basis set group =>   1
---------------------------------
AUXILIARY/J BASIS SET INFORMATION
---------------------------------
There are 1 groups of distinct atoms

 Group   1 Type Sc  : 19s5p5d3f3g contracted to 8s5p5d2f3g pattern {121111111/11111/11111/21/111}

Atom   0Sc   basis set group =>   1
---------------------------------
AUXILIARY/C BASIS SET INFORMATION
---------------------------------
There are 1 groups of distinct atoms

 Group   1 Type Sc  : 15s13p11d8f7g5h2i contracted to 15s13p11d8f7g5h2i pattern {111111111111111/1111111111111/11111111111/11111111/1111111/11111/11}

Atom   0Sc   basis set group =>   1
----------------------------------
AUXILIARY/JK BASIS SET INFORMATION
----------------------------------
There are 1 groups of distinct atoms

 Group   1 Type Sc  : 19s14p12d10f7g3h1i contracted to 16s13p11d9f5g3h1i pattern {4111111111111111/2111111111111/21111111111/211111111/31111/111/1}

Atom   0Sc   basis set group =>   1

Checking for AutoStart:
The File: 61_Sc.gbw exists
Trying to determine its content:
     ... Fine, the file contains calculation information
     ... Fine, the calculation information was read
     ... Fine, the file contains a basis set
     ... Fine, the basis set was read
     ... Fine, the file contains a geometry
     ... Fine, the geometry was read
     ... Fine, the file contains a set of orbitals
     ... Fine, the orbitals can be read
     => possible old guess file was deleted
     => GBW file was renamed to GES file
     => GES file is set as startup file
     => Guess is set to MORead
     ... now leaving AutoStart



           ************************************************************
           *        Program running with 24 parallel MPI-processes    *
           *              working on a common directory               *
           ************************************************************
------------------------------------------------------------------------------
                           ORCA GTO INTEGRAL CALCULATION
------------------------------------------------------------------------------

                         BASIS SET STATISTICS AND STARTUP INFO

 # of primitive gaussian shells          ...   56
 # of primitive gaussian functions       ...  162
 # of contracted shells                  ...   27
 # of contracted basis functions         ...   93
 Highest angular momentum                ...    4
 Maximum contraction depth               ...   11
 Integral package used                   ... LIBINT
 Integral threshhold            Thresh   ...  1.000e-12
 Primitive cut-off              TCut     ...  1.000e-14


------------------------------ INTEGRAL EVALUATION ----------------------------


 * One electron integrals 
 Pre-screening matrix                    ... done
 Shell pair data                         ... done (   0.000 sec)



           ************************************************************
           *        Program running with 24 parallel MPI-processes    *
           *              working on a common directory               *
           ************************************************************
-------------------------------------------------------------------------------
                                 ORCA SCF
-------------------------------------------------------------------------------

------------
SCF SETTINGS
------------
Hamiltonian:
 Ab initio Hamiltonian  Method          .... Hartree-Fock(GTOs)


General Settings:
 Integral files         IntName         .... 61_Sc
 Hartree-Fock type      HFTyp           .... UHF
 Total Charge           Charge          ....    0
 Multiplicity           Mult            ....    2
 Number of Electrons    NEL             ....   21
 Basis Dimension        Dim             ....   93
 Nuclear Repulsion      ENuc            ....      0.0000000000 Eh

Convergence Acceleration:
 DIIS                   CNVDIIS         .... on
   Start iteration      DIISMaxIt       ....    12
   Startup error        DIISStart       ....  0.200000
   # of expansion vecs  DIISMaxEq       ....     5
   Bias factor          DIISBfac        ....   1.050
   Max. coefficient     DIISMaxC        ....  10.000
 Newton-Raphson         CNVNR           .... off
 SOSCF                  CNVSOSCF        .... off
 Level Shifting         CNVShift        .... on
   Level shift para.    LevelShift      ....    0.2500
   Turn off err/grad.   ShiftErr        ....    0.0010
 Zerner damping         CNVZerner       .... off
 Static damping         CNVDamp         .... on
   Fraction old density DampFac         ....    0.7000
   Max. Damping (<1)    DampMax         ....    0.9800
   Min. Damping (>=0)   DampMin         ....    0.0000
   Turn off err/grad.   DampErr         ....    0.1000
 Fernandez-Rico         CNVRico         .... off

SCF Procedure:
 Maximum # iterations   MaxIter         ....   125
 SCF integral mode      SCFMode         .... Direct
   Integral package                     .... LIBINT
 Reset frequency        DirectResetFreq ....    20
 Integral Threshold     Thresh          ....  1.000e-12 Eh
 Primitive CutOff       TCut            ....  1.000e-14 Eh

Convergence Tolerance:
 Convergence Check Mode ConvCheckMode   .... Total+1el-Energy
 Convergence forced     ConvForced      .... 1
 Energy Change          TolE            ....  1.000e-09 Eh
 1-El. energy change                    ....  1.000e-06 Eh
 DIIS Error             TolErr          ....  1.000e-08


Diagonalization of the overlap matrix:
Smallest eigenvalue                        ... 1.169e-03
Time for diagonalization                   ...    0.002 sec
Threshold for overlap eigenvalues          ... 1.000e-08
Number of eigenvalues below threshold      ... 0
Time for construction of square roots      ...    0.001 sec
Total time needed                          ...    0.003 sec

---------------------
INITIAL GUESS: MOREAD
---------------------
Guess MOs are being read from file: 61_Sc.ges
Input Geometry matches current geometry (good)
Atom 0: N(Shells)= 27 and 18 - projection required
Input basis set needs projection
NBasis(read)= 64
NBasis(calc)= 93
Basis set overlap was calculated
Using GuessMode=FMatrix for the initial guess
C*T matrix was formed
Effective Fockian was calculated
Effective Fockian was diagonalized
Initial density was built
C*T matrix was formed
Effective Fockian was calculated
Effective Fockian was diagonalized
Initial density was built
                      ------------------
                      INITIAL GUESS DONE (   0.0 sec)
                      ------------------
--------------
SCF ITERATIONS
--------------
ITER       Energy         Delta-E        Max-DP      RMS-DP      [F,P]     Damp
               ***  Starting incremental Fock matrix formation  ***
  0   -759.7374761095   0.000000000000 0.00619734  0.00014878  0.0490172 0.7000
  1   -759.7382317576  -0.000755648163 0.00439231  0.00010723  0.0342949 0.7000
                               ***Turning on DIIS***
  2   -759.7387783587  -0.000546601030 0.01032687  0.00025572  0.0239936 0.0000
  3   -759.7396336439  -0.000855285238 0.00200442  0.00002526  0.0020881 0.0000
  4   -759.7402856887  -0.000652044767 0.00220146  0.00002330  0.0007347 0.0000
  5   -759.7390260376   0.001259651068 0.00087141  0.00001247  0.0003098 0.0000
  6   -759.7399782920  -0.000952254370 0.00010717  0.00000341  0.0000908 0.0000
  7   -759.7401063841  -0.000128092163 0.00005921  0.00000178  0.0000114 0.0000
  8   -759.7401115984  -0.000005214306 0.00005097  0.00000148  0.0000078 0.0000
  9   -759.7401041314   0.000007467056 0.00002579  0.00000076  0.0000055 0.0000
 10   -759.7400992490   0.000004882380 0.00001432  0.00000042  0.0000051 0.0000
 11   -759.7401411118  -0.000041862810 0.00005364  0.00000158  0.0000046 0.0000
 12   -759.7401564350  -0.000015323131 0.00007262  0.00000212  0.0000041 0.0000
 13   -759.7401553445   0.000001090502 0.00005618  0.00000162  0.0000026 0.0000
 14   -759.7401280664   0.000027278065 0.00001240  0.00000037  0.0000004 0.0000
 15   -759.7401304697  -0.000002403356 0.00000541  0.00000016  0.0000001 0.0000
 16   -759.7401319982  -0.000001528469 0.00000113  0.00000003  0.0000000 0.0000
                            ***DIIS convergence achieved***

               *****************************************************
               *                     SUCCESS                       *
               *           SCF CONVERGED AFTER  17 CYCLES          *
               *****************************************************


----------------
TOTAL SCF ENERGY
----------------

Total Energy       :         -759.74013245 Eh          -20673.58003 eV

Components:
Nuclear Repulsion  :            0.00000000 Eh               0.00000 eV
Electronic Energy  :         -759.74013245 Eh          -20673.58003 eV
One Electron Energy:        -1040.17324040 Eh          -28304.55285 eV
Two Electron Energy:          280.43310794 Eh            7630.97282 eV

Virial components:
Potential Energy   :        -1519.46956372 Eh          -41346.86886 eV
Kinetic Energy     :          759.72943126 Eh           20673.28883 eV
Virial Ratio       :            2.00001409


---------------
SCF CONVERGENCE
---------------

  Last Energy change         ...   -4.5357e-07  Tolerance :   1.0000e-09
  Last MAX-Density change    ...    9.6494e-08  Tolerance :   1.0000e-08
  Last RMS-Density change    ...    1.7219e-09  Tolerance :   1.0000e-09
  Last DIIS Error            ...    2.0110e-09  Tolerance :   1.0000e-08

             **** THE GBW FILE WAS UPDATED (61_Sc.gbw) ****
             **** DENSITY FILE WAS UPDATED (61_Sc.scfp) ****
             **** ENERGY FILE WAS UPDATED (61_Sc.en.tmp) ****
----------------------
UHF SPIN CONTAMINATION
----------------------

Expectation value of <S**2>     :     0.761559
Ideal value S*(S+1) for S=0.5   :     0.750000
Deviation                       :     0.011559

             **** THE GBW FILE WAS UPDATED (61_Sc.gbw) ****
             **** DENSITY FILE WAS UPDATED (61_Sc.scfp) ****
----------------
ORBITAL ENERGIES
----------------
                 SPIN UP ORBITALS
  NO   OCC          E(Eh)            E(eV) 
   0   1.0000    -165.899244     -4514.3479 
   1   1.0000     -19.085723      -519.3489 
   2   1.0000     -15.674917      -426.5362 
   3   1.0000     -15.672772      -426.4778 
   4   1.0000     -15.672772      -426.4778 
   5   1.0000      -2.593346       -70.5685 
   6   1.0000      -1.621073       -44.1117 
   7   1.0000      -1.621073       -44.1116 
   8   1.0000      -1.581935       -43.0466 
   9   1.0000      -0.352960        -9.6045 
  10   1.0000      -0.216080        -5.8798 
  11   0.0000       0.020181         0.5492 
  12   0.0000       0.020181         0.5492 
  13   0.0000       0.020713         0.5636 
  14   0.0000       0.077105         2.0981 
  15   0.0000       0.084877         2.3096 
  16   0.0000       0.086370         2.3502 
  17   0.0000       0.086370         2.3502 
  18   0.0000       0.090007         2.4492 
  19   0.0000       0.103836         2.8255 
  20   0.0000       0.105170         2.8618 
  21   0.0000       0.105170         2.8618 
  22   0.0000       0.105800         2.8790 
  23   0.0000       0.154769         4.2115 
  24   0.0000       0.160203         4.3593 
  25   0.0000       0.160203         4.3593 
  26   0.0000       0.176548         4.8041 
  27   0.0000       0.341654         9.2969 
  28   0.0000       0.348218         9.4755 
  29   0.0000       0.348642         9.4870 
  30   0.0000       0.348642         9.4870 
  31   0.0000       0.379343        10.3224 
  32   0.0000       0.390820        10.6347 
  33   0.0000       0.394416        10.7326 
  34   0.0000       0.394416        10.7326 
  35   0.0000       0.406183        11.0528 
  36   0.0000       0.413307        11.2466 
  37   0.0000       0.413307        11.2466 
  38   0.0000       0.413439        11.2503 
  39   0.0000       0.414798        11.2872 
  40   0.0000       0.415524        11.3070 
  41   0.0000       0.415524        11.3070 
  42   0.0000       0.416051        11.3213 
  43   0.0000       0.667392        18.1607 
  44   0.0000       0.667508        18.1638 
  45   0.0000       0.667508        18.1638 
  46   0.0000       0.667812        18.1721 
  47   0.0000       0.667951        18.1759 
  48   0.0000       0.668546        18.1921 
  49   0.0000       0.668546        18.1921 
  50   0.0000       0.669536        18.2190 
  51   0.0000       0.669567        18.2198 
  52   0.0000       1.036174        28.1957 
[...]
<pp|**>:         8316 b        0 skpd     0.029 s (  0.003 ms/b)
        7938 b        0 skpd     0.059 s (  0.007 ms/b)
<pd|**>:        11340 b        0 skpd     0.080 s (  0.007 ms/b)
<pf|**>:         6804 b        0 skpd     0.025 s (  0.004 ms/b)
<pg|**>:         4536 b        0 skpd     0.047 s (  0.010 ms/b)
<dd|**>:         5670 b        0 skpd     0.074 s (  0.013 ms/b)
<df|**>:         5670 b        0 skpd     0.031 s (  0.005 ms/b)
<dg|**>:         3780 b        0 skpd     0.049 s (  0.013 ms/b)
<ff|**>:         2268 b        0 skpd     0.017 s (  0.007 ms/b)
<fg|**>:         2268 b        0 skpd     0.025 s (  0.011 ms/b)
<gg|**>:         1134 b        0 skpd     0.039 s (  0.034 ms/b)
Closing buffer AOJ[aa] ( 0.00 GB; CompressionRatio= 0.93)
Closing buffer AOJ[bb] ( 0.00 GB; CompressionRatio= 0.00)
Collecting buffer AOJ 
    ... done with AO integral generation
Number of Alpha-MO pairs included          ...   21
Number of Beta-MO pairs included           ...   15
    ... Now sorting integrals
SORTING ALPHA/ALPHA PAIRS
IBATCH = 1 of  1
Closing buffer JAO[aa] ( 0.00 GB; CompressionRatio= 1.00)
SORTING BETA/BETA PAIRS
IBATCH = 1 of  1
Closing buffer JAO[bb] ( 0.00 GB; CompressionRatio= 1.00)
Collecting buffer JAO 
TOTAL TIME for half transformation         ...     0.597 sec
AO-integral generation                     ...     0.573 sec
Half transformation                        ...     0.009 sec
J-integral sorting                         ...     0.010 sec

-------------------------- SECOND HALF TRANSFORMATION -------------------------
Formation of (ij|kl),(ij|ka), (ij|ab)      ... ok (     0.022 sec)
Formation of (ik|jl),(ik|ja), (ia|jb)      ... ok (     0.032 sec)


-----------------------
SPIN UNRESTRICTED GUESS
-----------------------

Entering MDCI_UHF_Guess, Tailored=0
Spin-components of the MP2 energy:
EMP2(aa)=     -0.040549548
EMP2(bb)=     -0.031894734
EMP2(ab)=     -0.202510761

Initial guess performed in     0.008 sec
E(0)                                       ...   -759.740132441
E(MP2)                                     ...     -0.274955043
Initial E(tot)                             ...   -760.015087483
<T|T>                                      ...      0.092362219
Number of pairs included                   ... 55

------------------------------------------------
                  UHF COUPLED CLUSTER ITERATIONS
------------------------------------------------

Number of amplitudes to be optimized       ...       289503

Iter       E(tot)           E(Corr)          Delta-E          Residual     Time      <S|S>**1/2
  0   -760.015087483     -0.274955043      0.000000000      0.013225194    0.56      0.000000058
                           *** Turning on DIIS ***
  1   -760.031778435     -0.291645994     -0.016690951      0.006027194    0.63      0.029055332
  2   -760.039136299     -0.299003859     -0.007357865      0.003674510    0.66      0.046944982
  3   -760.040926546     -0.300794105     -0.001790247      0.001939701    0.64      0.059058183
  4   -760.041848275     -0.301715835     -0.000921729      0.000657077    0.64      0.067955605
  5   -760.042109524     -0.301977083     -0.000261249      0.000383261    0.65      0.071788793
  6   -760.042131248     -0.301998807     -0.000021724      0.000301471    0.63      0.072602657
  7   -760.042132836     -0.302000395     -0.000001588      0.000216449    0.64      0.073010407
  8   -760.042127348     -0.301994907      0.000005488      0.000139483    0.65      0.073120225
  9   -760.042134805     -0.302002365     -0.000007457      0.000079291    0.68      0.073262642
 10   -760.042136699     -0.302004259     -0.000001894      0.000042433    0.65      0.073378059
 11   -760.042138792     -0.302006351     -0.000002092      0.000018939    0.64      0.073513648
 12   -760.042138617     -0.302006176      0.000000175      0.000007555    0.63      0.073596034
 13   -760.042138202     -0.302005762      0.000000415      0.000003973    0.64      0.073613583
 14   -760.042137661     -0.302005221      0.000000541      0.000002626    0.64      0.073609756
 15   -760.042137480     -0.302005039      0.000000182      0.000001789    0.64      0.073606663
 16   -760.042137440     -0.302005000      0.000000040      0.000001040    0.64      0.073604624
 17   -760.042137498     -0.302005057     -0.000000058      0.000000518    0.64      0.073604929
               --- The Coupled-Cluster iterations have converged ---

----------------------
COUPLED CLUSTER ENERGY
----------------------

E(0)                                       ...   -759.740132441
E(CORR)                                    ...     -0.302005057
E(TOT)                                     ...   -760.042137498
Singles norm <S|S>**1/2                    ...      0.073604929 ( 0.039145182, 0.034459747)  
T1 diagnostic                              ...      0.022192721                              

------------------
LARGEST AMPLITUDES
------------------
  10a-> 13a   9b-> 10b       0.083309
  10a-> 11a   9b-> 11b       0.069278
  10a-> 12a   9b-> 12b       0.069278
  10a-> 22a   9b-> 10b       0.064431
  10a-> 13a   9b-> 19b       0.060835
   9b-> 13b  -1b-> -1b       0.059252
  10a-> 11a   9b-> 20b       0.057678
  10a-> 12a   9b-> 21b       0.057678
  10a-> 20a   9b-> 11b       0.052933
  10a-> 21a   9b-> 12b       0.052933
  10a-> 22a   9b-> 19b       0.048588
  10a-> 14a  -1a-> -1a       0.046834
  10a-> 20a   9b-> 20b       0.045616
  10a-> 21a   9b-> 21b       0.045616
   9b-> 30b  -1b-> -1b       0.035473
   9b-> 16b  -1b-> -1b       0.028940

----------------------
UHF TRIPLES CORRECTION (Algorithm 1)
----------------------

Multiplier for the singles contribution    ...      1.000000000

SPIN-CASE Alpha-Alpha-Alpha:
10% done
20% done
30% done
40% done
50% done
60% done
70% done
80% done
90% done


SPIN-CASE Beta-Beta-Beta:
10% done
20% done
30% done
40% done
50% done
60% done
70% done
80% done
90% done


SPIN-CASE Alpha-Alpha-Beta:
10% done
20% done
30% done
40% done
50% done
60% done
70% done
80% done
90% done


SPIN-CASE Beta-Beta-Alpha:
10% done
20% done
30% done
40% done
50% done
60% done
70% done
80% done
90% done


Triples Correction (T)                     ...     -0.010424800
    alpha-alpha-alpha ... -0.000340105 (  3.3%)
    alpha-alpha-beta  ... -0.005517463 ( 52.9%)
    alpha-beta -beta  ... -0.004350779 ( 41.7%)
    beta -beta -beta  ... -0.000216453 (  2.1%)
Scaling of triples based on CCSD energies (Peterson et al. Molecular Physics 113, 1551 (2015))
E(T*) = f*E(T) where f = E(F12-CCSD)/E(CCSD) 
f = CCSD (with F12)/ CCSD (without F12)    ...      1.000000000
Scaled triples correction (T)              ...     -0.010424800

Final correlation energy                   ...     -0.312429858
E(CCSD)                                    ...   -760.042137498
E(CCSD(T))                                 ...   -760.052562298



        !!!!!!!!!!!!!!!!!!!!!!!!!!!!!!!!!!!!!!!!!!!!!!!!!!!!!!!!!!!!!!!!!!!!!!!!!! 
        !  Warning: Densities are linearized densities                           !
        !!!!!!!!!!!!!!!!!!!!!!!!!!!!!!!!!!!!!!!!!!!!!!!!!!!!!!!!!!!!!!!!!!!!!!!!!! 

NORM  =      1.142374448 sqrt=     1.068819184
W(HF) =      0.875369719
------------------------------------------------------------------------------
                           ORCA POPULATION ANALYSIS
------------------------------------------------------------------------------
Input electron density              ... 61_Sc.mdcip
Input spin density                  ... 61_Sc.mdcir
BaseName (.gbw .S,...)              ... 61_Sc

                    ********************************
                    * MULLIKEN POPULATION ANALYSIS *
                    ********************************

------------------------------------------
MULLIKEN ATOMIC CHARGES AND SPIN DENSITIES
------------------------------------------
   0 Sc:   -0.000000    1.000000
Sum of atomic charges       :   -0.0000000
Sum of atomic spin densities:    1.0000000

---------------------------------------------------
MULLIKEN REDUCED ORBITAL CHARGES AND SPIN DENSITIES
---------------------------------------------------
CHARGE
  0 Scs       :     7.860222  s :     7.860222
      pz      :     4.012556  p :    12.033573
      px      :     4.010508
      py      :     4.010509
      dz2     :     0.026749  d :     1.087788
      dxz     :     0.023529
      dyz     :     0.023085
      dx2y2   :     0.019860
      dxy     :     0.994565
      f0      :     0.001494  f :     0.017020
      f+1     :     0.001619
      f-1     :     0.001618
      f+2     :     0.001240
      f-2     :     0.003204
      f+3     :     0.003923
      f-3     :     0.003923
      g0      :     0.000101  g :     0.001396
      g+1     :     0.000106
      g-1     :     0.000106
      g+2     :     0.000085
      g-2     :     0.000167
      g+3     :     0.000169
      g-3     :     0.000169
      g+4     :     0.000247
      g-4     :     0.000246

SPIN
  0 Scs       :     0.011530  s :     0.011530
      pz      :    -0.000529  p :     0.006894
      px      :     0.003712
      py      :     0.003710
      dz2     :    -0.002364  d :     0.974098
      dxz     :     0.000859
      dyz     :     0.000405
      dx2y2   :    -0.000762
      dxy     :     0.975959
      f0      :    -0.000072  f :     0.006917
      f+1     :     0.000112
      f-1     :     0.000111
      f+2     :    -0.000031
      f-2     :     0.001667
      f+3     :     0.002565
      f-3     :     0.002565
      g0      :     0.000002  g :     0.000562
      g+1     :     0.000009
      g-1     :     0.000009
      g+2     :    -0.000001
      g-2     :     0.000066
      g+3     :     0.000079
      g-3     :     0.000079
      g+4     :     0.000161
      g-4     :     0.000158


                     *******************************
                     * LOEWDIN POPULATION ANALYSIS *
                     *******************************

-----------------------------------------
LOEWDIN ATOMIC CHARGES AND SPIN DENSITIES
-----------------------------------------
   0 Sc:   -0.000000    1.000000

--------------------------------------------------
LOEWDIN REDUCED ORBITAL CHARGES AND SPIN DENSITIES
--------------------------------------------------
CHARGE
  0 Scs       :     7.860222  s :     7.860222
      pz      :     4.012556  p :    12.033573
      px      :     4.010508
      py      :     4.010509
      dz2     :     0.026749  d :     1.087788
      dxz     :     0.023529
      dyz     :     0.023085
      dx2y2   :     0.019860
      dxy     :     0.994565
      f0      :     0.001494  f :     0.017020
      f+1     :     0.001619
      f-1     :     0.001618
      f+2     :     0.001240
      f-2     :     0.003204
      f+3     :     0.003923
      f-3     :     0.003923
      g0      :     0.000101  g :     0.001396
      g+1     :     0.000106
      g-1     :     0.000106
      g+2     :     0.000085
      g-2     :     0.000167
      g+3     :     0.000169
      g-3     :     0.000169
      g+4     :     0.000247
      g-4     :     0.000246

SPIN
  0 Scs       :     0.011530  s :     0.011530
      pz      :    -0.000529  p :     0.006894
      px      :     0.003712
      py      :     0.003710
      dz2     :    -0.002364  d :     0.974098
      dxz     :     0.000859
      dyz     :     0.000405
      dx2y2   :    -0.000762
      dxy     :     0.975959
      f0      :    -0.000072  f :     0.006917
      f+1     :     0.000112
      f-1     :     0.000111
      f+2     :    -0.000031
      f-2     :     0.001667
      f+3     :     0.002565
      f-3     :     0.002565
      g0      :     0.000002  g :     0.000562
      g+1     :     0.000009
      g-1     :     0.000009
      g+2     :    -0.000001
      g-2     :     0.000066
      g+3     :     0.000079
      g-3     :     0.000079
      g+4     :     0.000161
      g-4     :     0.000158


                      *****************************
                      * MAYER POPULATION ANALYSIS *
                      *****************************

  NA   - Mulliken gross atomic population
  ZA   - Total nuclear charge
  QA   - Mulliken gross atomic charge
  VA   - Mayer's total valence
  BVA  - Mayer's bonded valence
  FA   - Mayer's free valence

  ATOM       NA         ZA         QA         VA         BVA        FA
  0 Sc    21.0000    21.0000    -0.0000     1.9731     0.0000     1.9731





------------------------------------------------------------------------------- 
                                     TIMINGS                                   
------------------------------------------------------------------------------- 


Total execution time                   ...       15.600 sec

Fock Matrix Formation                  ...        0.408 sec (  2.6%)
Initial Guess                          ...        0.008 sec (  0.1%)
DIIS Solver                            ...        0.451 sec (  2.9%)
State Vector Update                    ...        0.021 sec (  0.1%)
Sigma-vector construction              ...       11.049 sec ( 70.8%)
  <0|H|D>                              ...        0.002 sec (  0.0% of sigma)
  <D|H|D>(0-ext Fock)                  ...        0.006 sec (  0.1% of sigma)
  <D|H|D>(0-ext)                       ...        0.010 sec (  0.1% of sigma)
  <D|H|D>(2-ext Fock)                  ...        0.004 sec (  0.0% of sigma)
  <D|H|D>(2-ext)                       ...        0.083 sec (  0.8% of sigma)
  <D|H|D>(4-ext)                       ...        4.878 sec ( 44.1% of sigma)
  <S|H|0>                              ...        0.262 sec (  2.4% of sigma)
  <S|H|S>                              ...        0.001 sec (  0.0% of sigma)
  <S|H|D>(1-ext)                       ...        0.002 sec (  0.0% of sigma)
  <D|H|S>(1-ext)                       ...        0.050 sec (  0.5% of sigma)
  Fock-dressing                        ...        4.219 sec ( 38.2% of sigma)
  (ik|jl)-dressing                     ...        0.013 sec (  0.1% of sigma)
  (ij|ab),(ia|jb)-dressing             ...        1.193 sec ( 10.8% of sigma)
  Pair energies                        ...        0.003 sec (  0.0% of sigma)
Total Time for computing (T)           ...        0.581 sec (  3.7% of ALL)
  I/O of integral and amplitudes       ...        0.181 sec ( 31.2% of (T))
  External N**7 contributions          ...        0.135 sec ( 23.3% of (T))
  Internal N**7 contributions          ...        0.059 sec ( 10.1% of (T))
  N**6 triples energy contributions    ...        0.180 sec ( 31.0% of (T))


-------------------
EXTRAPOLATED ENERGY
-------------------


-----------------------------------------------------------------
                      EP1 - MDCI extrapolation:
-----------------------------------------------------------------
NOTE: We use as reference SCF energy, for the extrapolation, the one from the MDCI module and not the one 
from the SCF calculation. In case the first step is a DFT calculation these two might be different.

NOTE: For the SCF part we extrapolate based on the scheme proposed in J. Chem. Phys. 2008, 129, 184116
using the exponents from J. Chem. Theory Comput., 7, 33-43 (2011)

NOTE: For the correlation part we extrapolate based on the scheme proposed in J. Chem. Phys. 1997, 106, 9639
using the exponents from J. Chem. Theory Comput., 7, 33-43 (2011)


Alpha(3/4)     :  7.880 (SCF Extrapolation)
Beta(3/4)      :  2.970 (correlation extrapolation)

SCF energy with basis def2-TZVPP:                      -759.725040996
SCF energy with basis def2-QZVPP:                      -759.740132441
Extrapolated CBS SCF energy (3/4) :                    -759.742211116 (-0.002078676) 

MDCI energy with basis def2-TZVPP:                       -0.265678094
MDCI energy with basis def2-QZVPP:                       -0.312429858
Extrapolated CBS correlation energy (3/4) :              -0.347060768 (-0.034630910)

Estimated CBS total energy (3/4) :                     -760.089271884



-------------------------   --------------------
FINAL SINGLE POINT ENERGY      -760.089271884492
-------------------------   --------------------


                            ***************************************
                            *     ORCA property calculations      *
                            ***************************************

                                    ---------------------
                                    Active property flags
                                    ---------------------
   (+) Dipole Moment


------------------------------------------------------------------------------
                       ORCA ELECTRIC PROPERTIES CALCULATION
------------------------------------------------------------------------------

Dipole Moment Calculation                       ... on
Quadrupole Moment Calculation                   ... off
Polarizability Calculation                      ... off
GBWName                                         ... 61_Sc.gbw
Electron density file                           ... 61_Sc.scfp
The origin for moment calculation is the CENTER OF MASS  = ( 0.000000,  0.000000  0.000000)

-------------
DIPOLE MOMENT
-------------
                                X             Y             Z
Electronic contribution:     -0.00000      -0.00000      -0.00000
Nuclear contribution   :      0.00000       0.00000       0.00000
                        -----------------------------------------
Total Dipole Moment    :     -0.00000      -0.00000      -0.00000
                        -----------------------------------------
Magnitude (a.u.)       :      0.00000
Magnitude (Debye)      :      0.00000



--------------------
Rotational spectrum 
--------------------
 
Rotational constants in cm-1:     0.000000     0.000000     0.000000 
Rotational constants in MHz :     0.000000     0.000000     0.000000 

 Dipole components along the rotational axes: 
x,y,z [a.u.] :    -0.000000    -0.000000    -0.000000 
x,y,z [Debye]:    -0.000000    -0.000000    -0.000000 

 

                           *** MDCI DENSITY ***

------------------------------------------------------------------------------
                       ORCA ELECTRIC PROPERTIES CALCULATION
------------------------------------------------------------------------------

Dipole Moment Calculation                       ... on
Quadrupole Moment Calculation                   ... off
Polarizability Calculation                      ... off
GBWName                                         ... 61_Sc.gbw
Electron density file                           ... 61_Sc.mdcip
The origin for moment calculation is the CENTER OF MASS  = ( 0.000000,  0.000000  0.000000)

-------------
DIPOLE MOMENT
-------------
                                X             Y             Z
Electronic contribution:      0.00000       0.00000       0.00000
Nuclear contribution   :      0.00000       0.00000       0.00000
                        -----------------------------------------
Total Dipole Moment    :      0.00000       0.00000       0.00000
                        -----------------------------------------
Magnitude (a.u.)       :      0.00000
Magnitude (Debye)      :      0.00000



--------------------
Rotational spectrum 
--------------------
 
Rotational constants in cm-1:     0.000000     0.000000     0.000000 
Rotational constants in MHz :     0.000000     0.000000     0.000000 

 Dipole components along the rotational axes: 
x,y,z [a.u.] :     0.000000     0.000000     0.000000 
x,y,z [Debye]:     0.000000     0.000000     0.000000 

 

Timings for individual modules:

Sum of individual times         ...       31.000 sec (=   0.517 min)
GTO integral calculation        ...        1.789 sec (=   0.030 min)   5.8 %
SCF iterations                  ...        8.152 sec (=   0.136 min)  26.3 %
MDCI module                     ...       21.059 sec (=   0.351 min)  67.9 %
                             ****ORCA TERMINATED NORMALLY****
TOTAL RUN TIME: 0 days 0 hours 0 minutes 32 seconds 19 msec
