
                                 *****************
                                 * O   R   C   A *
                                 *****************

           --- An Ab Initio, DFT and Semiempirical electronic structure package ---

                  #######################################################
                  #                        -***-                        #
                  #          Department of theory and spectroscopy      #
                  #               Directorship: Frank Neese             #
                  #        Max Planck Institute fuer Kohlenforschung    #
                  #                Kaiser Wilhelm Platz 1               #
                  #                 D-45470 Muelheim/Ruhr               #
                  #                      Germany                        #
                  #                                                     #
                  #                  All rights reserved                #
                  #                        -***-                        #
                  #######################################################


                         Program Version 4.2.0 -  RELEASE  -


 With contributions from (in alphabetic order):
   Daniel Aravena         : Magnetic Suceptibility
   Michael Atanasov       : Ab Initio Ligand Field Theory (pilot matlab implementation)
   Alexander A. Auer      : GIAO ZORA, VPT2
   Ute Becker             : Parallelization
   Giovanni Bistoni       : ED, misc. LED, open-shell LED, HFLED
   Martin Brehm           : Molecular dynamics
   Dmytro Bykov           : SCF Hessian
   Vijay G. Chilkuri      : MRCI spin determinant printing, contributions to CSF-ICE
   Dipayan Datta          : RHF DLPNO-CCSD density
   Achintya Kumar Dutta   : EOM-CC, STEOM-CC
   Dmitry Ganyushin       : Spin-Orbit,Spin-Spin,Magnetic field MRCI
   Miquel Garcia          : C-PCM Hessian, Gaussian charge scheme
   Yang Guo               : DLPNO-NEVPT2, CIM, IAO-localization
   Andreas Hansen         : Spin unrestricted coupled pair/coupled cluster methods
   Benjamin Helmich-Paris : CASSCF linear response (MC-RPA)
   Lee Huntington         : MR-EOM, pCC
   Robert Izsak           : Overlap fitted RIJCOSX, COSX-SCS-MP3, EOM
   Christian Kollmar      : KDIIS, OOCD, Brueckner-CCSD(T), CCSD density
   Simone Kossmann        : Meta GGA functionals, TD-DFT gradient, OOMP2, MP2 Hessian
   Martin Krupicka        : AUTO-CI
   Lucas Lang             : DCDCAS
   Dagmar Lenk            : GEPOL surface, SMD
   Dimitrios Liakos       : Extrapolation schemes; Compound Job, initial MDCI parallelization
   Dimitrios Manganas     : Further ROCIS development; embedding schemes
   Dimitrios Pantazis     : SARC Basis sets
   Taras Petrenko         : DFT Hessian,TD-DFT gradient, ASA, ECA, R-Raman, ABS, FL, XAS/XES, NRVS
   Peter Pinski           : DLPNO-MP2, DLPNO-MP2 Gradient
   Christoph Reimann      : Effective Core Potentials
   Marius Retegan         : Local ZFS, SOC
   Christoph Riplinger    : Optimizer, TS searches, QM/MM, DLPNO-CCSD(T), (RO)-DLPNO pert. Triples
   Tobias Risthaus        : Range-separated hybrids, TD-DFT gradient, RPA, STAB
   Michael Roemelt        : Original ROCIS implementation
   Masaaki Saitow         : Open-shell DLPNO-CCSD energy and density
   Barbara Sandhoefer     : DKH picture change effects
   Avijit Sen             : IP-ROCIS
   Kantharuban Sivalingam : CASSCF convergence, NEVPT2, FIC-MRCI
   Bernardo de Souza      : ESD, SOC TD-DFT
   Georgi Stoychev        : AutoAux, RI-MP2 NMR
   Willem Van den Heuvel  : Paramagnetic NMR
   Boris Wezisla          : Elementary symmetry handling
   Frank Wennmohs         : Technical directorship


 We gratefully acknowledge several colleagues who have allowed us to
 interface, adapt or use parts of their codes:
   Stefan Grimme, W. Hujo, H. Kruse,             : VdW corrections, initial TS optimization,
                  C. Bannwarth                     DFT functionals, gCP, sTDA/sTD-DF
   Ed Valeev, F. Pavosevic, A. Kumar             : LibInt (2-el integral package), F12 methods
   Garnet Chan, S. Sharma, J. Yang, R. Olivares  : DMRG
   Ulf Ekstrom                                   : XCFun DFT Library
   Mihaly Kallay                                 : mrcc  (arbitrary order and MRCC methods)
   Andreas Klamt, Michael Diedenhofen            : otool_cosmo (COSMO solvation model)
   Jiri Pittner, Ondrej Demel                    : Mk-CCSD
   Frank Weinhold                                : gennbo (NPA and NBO analysis)
   Christopher J. Cramer and Donald G. Truhlar   : smd solvation model
   Lars Goerigk                                  : TD-DFT with DH, B97 family of functionals
   V. Asgeirsson, H. Jonsson                     : NEB implementation
   FAccTs GmbH                                   : IRC, NEB, NEB-TS, Multilevel, MM, QM/MM, CI optimization
   S Lehtola, MJT Oliveira, MAL Marques          : LibXC Library


 Your calculation uses the libint2 library for the computation of 2-el integrals
 For citations please refer to: http://libint.valeyev.net

 Your ORCA version has been built with support for libXC version: 4.2.3
 For citations please refer to: https://tddft.org/programs/libxc/

 This ORCA versions uses:
   CBLAS   interface :  Fast vector & matrix operations
   LAPACKE interface :  Fast linear algebra routines
   SCALAPACK package :  Parallel linear algebra routines


----- Orbital basis set information -----
Your calculation utilizes the basis: def2-TZVPP
   F. Weigend and R. Ahlrichs, Phys. Chem. Chem. Phys. 7, 3297 (2005).

================================================================================
                                        WARNINGS
                       Please study these warnings very carefully!
================================================================================


WARNING: your system is open-shell and RHF/RKS was chosen
  ===> : WILL SWITCH to UHF/UKS


WARNING: MDCI localization with Augmented Hessian Foster-Boys
  ===> : Switching off randomization!

WARNING: Post HF methods need fully converged wavefunctions
  ===> : Setting SCFConvForced true
         You can overwrite this default with %scf ConvForced false 


INFO   : the flag for use of LIBINT has been found!

================================================================================
                                       INPUT FILE
================================================================================
NAME = 62_Ti.in
|  1> #
|  2> # 62_Ti ccsd(t)/cbs
|  3> #
|  4> ! ccsd(t) extrapolate(3/4,def2) verytightscf
|  5> 
|  6> *xyz 0 3
|  7> Ti 0.0 0.0 0.0
|  8> *
|  9> 
| 10> %maxcore 5000
| 11> %pal
| 12> nprocs 24
| 13> end
| 14> 
| 15> 
| 16>                          ****END OF INPUT****
================================================================================

                   *****************************************
                   * Extrapolated Single Point Calculation *
                   *****************************************

----- Orbital basis set information -----
Your calculation utilizes the basis: def2-TZVPP
   F. Weigend and R. Ahlrichs, Phys. Chem. Chem. Phys. 7, 3297 (2005).

----- AuxJ basis set information -----
Your calculation utilizes the auxiliary basis: def2/J
   F. Weigend, Phys. Chem. Chem. Phys. 8, 1057 (2006).

----- AuxC basis set information -----
Your calculation utilizes the auxiliary basis: def2-TZVPP/C
  H-La, Hf-Rn : A. Hellweg, C. Hattig, S. Hofener and W. Klopper, Theor. Chem. Acc. 117, 587 (2007).
        Ce-Lu : J. Chmela and M. E. Harding, Mol. Phys. (2018).

----- AuxJK basis set information -----
Your calculation utilizes the auxiliary basis: def2/JK
   H-Ba, Hf-Rn: F. Weigend, J. Comput. Chem. 29, 167 (2008).

All done

                     -----------------------------------------
                     Extrapolated Energy 1 Basis=  def2-TZVPP
                     -----------------------------------------

---------------------------------
CARTESIAN COORDINATES (ANGSTROEM)
---------------------------------
  Ti     0.000000    0.000000    0.000000

----------------------------
CARTESIAN COORDINATES (A.U.)
----------------------------
  NO LB      ZA    FRAG     MASS         X           Y           Z
   0 Ti   22.0000    0    47.900    0.000000    0.000000    0.000000

--------------------------------
INTERNAL COORDINATES (ANGSTROEM)
--------------------------------
 Ti     0   0   0     0.000000000000     0.00000000     0.00000000

---------------------------
INTERNAL COORDINATES (A.U.)
---------------------------
 Ti     0   0   0     0.000000000000     0.00000000     0.00000000

---------------------
BASIS SET INFORMATION
---------------------
There are 1 groups of distinct atoms

 Group   1 Type Ti  : 17s12p7d2f1g contracted to 6s5p4d2f1g pattern {842111/63111/4111/11/1}

Atom   0Ti   basis set group =>   1
---------------------------------
AUXILIARY/J BASIS SET INFORMATION
---------------------------------
There are 1 groups of distinct atoms

 Group   1 Type Ti  : 19s5p5d3f3g contracted to 8s5p5d2f3g pattern {121111111/11111/11111/21/111}

Atom   0Ti   basis set group =>   1
---------------------------------
AUXILIARY/C BASIS SET INFORMATION
---------------------------------
There are 1 groups of distinct atoms

 Group   1 Type Ti  : 9s9p8d7f5g3h1i contracted to 9s9p8d7f5g3h1i pattern {111111111/111111111/11111111/1111111/11111/111/1}

Atom   0Ti   basis set group =>   1
----------------------------------
AUXILIARY/JK BASIS SET INFORMATION
----------------------------------
There are 1 groups of distinct atoms

 Group   1 Type Ti  : 19s14p12d10f7g3h1i contracted to 16s13p11d9f5g3h1i pattern {4111111111111111/2111111111111/21111111111/211111111/31111/111/1}

Atom   0Ti   basis set group =>   1


           ************************************************************
           *        Program running with 24 parallel MPI-processes    *
           *              working on a common directory               *
           ************************************************************
------------------------------------------------------------------------------
                           ORCA GTO INTEGRAL CALCULATION
------------------------------------------------------------------------------

                         BASIS SET STATISTICS AND STARTUP INFO

 # of primitive gaussian shells          ...   39
 # of primitive gaussian functions       ...  111
 # of contracted shells                  ...   18
 # of contracted basis functions         ...   64
 Highest angular momentum                ...    4
 Maximum contraction depth               ...    8
 Integral package used                   ... LIBINT
 Integral threshhold            Thresh   ...  1.000e-12
 Primitive cut-off              TCut     ...  1.000e-14


------------------------------ INTEGRAL EVALUATION ----------------------------


 * One electron integrals 
 Pre-screening matrix                    ... done
 Shell pair data                         ... done (   0.000 sec)



           ************************************************************
           *        Program running with 24 parallel MPI-processes    *
           *              working on a common directory               *
           ************************************************************
-------------------------------------------------------------------------------
                                 ORCA SCF
-------------------------------------------------------------------------------

------------
SCF SETTINGS
------------
Hamiltonian:
 Ab initio Hamiltonian  Method          .... Hartree-Fock(GTOs)


General Settings:
 Integral files         IntName         .... 62_Ti
 Hartree-Fock type      HFTyp           .... UHF
 Total Charge           Charge          ....    0
 Multiplicity           Mult            ....    3
 Number of Electrons    NEL             ....   22
 Basis Dimension        Dim             ....   64
 Nuclear Repulsion      ENuc            ....      0.0000000000 Eh

Convergence Acceleration:
 DIIS                   CNVDIIS         .... on
   Start iteration      DIISMaxIt       ....    12
   Startup error        DIISStart       ....  0.200000
   # of expansion vecs  DIISMaxEq       ....     5
   Bias factor          DIISBfac        ....   1.050
   Max. coefficient     DIISMaxC        ....  10.000
 Newton-Raphson         CNVNR           .... off
 SOSCF                  CNVSOSCF        .... off
 Level Shifting         CNVShift        .... on
   Level shift para.    LevelShift      ....    0.2500
   Turn off err/grad.   ShiftErr        ....    0.0010
 Zerner damping         CNVZerner       .... off
 Static damping         CNVDamp         .... on
   Fraction old density DampFac         ....    0.7000
   Max. Damping (<1)    DampMax         ....    0.9800
   Min. Damping (>=0)   DampMin         ....    0.0000
   Turn off err/grad.   DampErr         ....    0.1000
 Fernandez-Rico         CNVRico         .... off

SCF Procedure:
 Maximum # iterations   MaxIter         ....   125
 SCF integral mode      SCFMode         .... Direct
   Integral package                     .... LIBINT
 Reset frequency        DirectResetFreq ....    20
 Integral Threshold     Thresh          ....  1.000e-12 Eh
 Primitive CutOff       TCut            ....  1.000e-14 Eh

Convergence Tolerance:
 Convergence Check Mode ConvCheckMode   .... Total+1el-Energy
 Convergence forced     ConvForced      .... 1
 Energy Change          TolE            ....  1.000e-09 Eh
 1-El. energy change                    ....  1.000e-06 Eh
 DIIS Error             TolErr          ....  1.000e-08


Diagonalization of the overlap matrix:
Smallest eigenvalue                        ... 4.510e-02
Time for diagonalization                   ...    0.019 sec
Threshold for overlap eigenvalues          ... 1.000e-08
Number of eigenvalues below threshold      ... 0
Time for construction of square roots      ...    0.001 sec
Total time needed                          ...    0.021 sec

-------------------
DFT GRID GENERATION
-------------------

General Integration Accuracy     IntAcc      ...  4.340
Radial Grid Type                 RadialGrid  ... Gauss-Chebyshev
Angular Grid (max. acc.)         AngularGrid ... Lebedev-110
Angular grid pruning method      GridPruning ... 3 (G Style)
Weight generation scheme         WeightScheme... Becke
Basis function cutoff            BFCut       ...    1.0000e-12
Integration weight cutoff        WCut        ...    1.0000e-14
Grids for H and He will be reduced by one unit

# of grid points (after initial pruning)     ...   2972 (   0.0 sec)
# of grid points (after weights+screening)   ...   2972 (   0.0 sec)
Grid point division into batches done        ...    0.0 sec
Reduced shell lists constructed in    0.0 sec

Total number of grid points                  ...     2972
Total number of batches                      ...       47
Average number of points per batch           ...       63
Average number of grid points per atom       ...     2972
Average number of shells per batch           ...     6.00 (33.33%)
Average number of basis functions per batch  ...    22.00 (34.38%)
Average number of large shells per batch     ...     4.67 (77.78%)
Average number of large basis fcns per batch ...    16.67 (75.76%)
Maximum spatial batch extension              ...  18.71, 28.73, 28.73 au
Average spatial batch extension              ...   0.80,  1.22,  1.22 au

Time for grid setup =    0.021 sec

------------------------------
INITIAL GUESS: MODEL POTENTIAL
------------------------------
Loading Hartree-Fock densities                     ... done
Calculating cut-offs                               ... done
Setting up the integral package                    ... done
Initializing the effective Hamiltonian             ... done
Starting the Coulomb interaction                   ... done (   0.0 sec)
Reading the grid                                   ... done
Mapping shells                                     ... done
Starting the XC term evaluation                    ... done (   0.0 sec)
Transforming the Hamiltonian                       ... done (   0.0 sec)
Diagonalizing the Hamiltonian                      ... done (   0.0 sec)
Back transforming the eigenvectors                 ... done (   0.0 sec)
Now organizing SCF variables                       ... done
                      ------------------
                      INITIAL GUESS DONE (   0.1 sec)
                      ------------------
--------------
SCF ITERATIONS
--------------
ITER       Energy         Delta-E        Max-DP      RMS-DP      [F,P]     Damp
               ***  Starting incremental Fock matrix formation  ***
  0   -848.3602666848   0.000000000000 0.02656325  0.00052091  0.0957517 0.7000
  1   -848.3658468419  -0.005580157062 0.03472340  0.00059014  0.0669592 0.7000
                               ***Turning on DIIS***
  2   -848.3704059385  -0.004559096549 0.11579076  0.00189161  0.0465643 0.0000
  3   -848.3622400984   0.008165840070 0.05466149  0.00091511  0.0088659 0.0000
  4   -848.3989796333  -0.036739534937 0.03902475  0.00063935  0.0066668 0.0000
  5   -848.3889617248   0.010017908568 0.02859736  0.00047381  0.0028640 0.0000
  6   -848.3860861637   0.002875561011 0.01528270  0.00025014  0.0015459 0.0000
  7   -848.3869756533  -0.000889489551 0.01390963  0.00022486  0.0008198 0.0000
  8   -848.3866625222   0.000313131094 0.00418457  0.00007012  0.0004321 0.0000
  9   -848.3852540059   0.001408516289 0.00072245  0.00001569  0.0004401 0.0000
 10   -848.3850328172   0.000221188744 0.00023322  0.00000424  0.0004441 0.0000
 11   -848.3852776265  -0.000244809299 0.00003863  0.00000066  0.0004440 0.0000
 12   -848.3852262216   0.000051404835 0.00003687  0.00000060  0.0004443 0.0000
 13   -848.3857259509  -0.000499729310 0.00077273  0.00001578  0.0004443 0.0000
 14   -848.3852271934   0.000498757569 0.00013844  0.00000227  0.0004478 0.0000
 15   -848.3852947452  -0.000067551857 0.00008952  0.00000294  0.0004481 0.0000
 16   -848.3852823834   0.000012361829 0.00002210  0.00000085  0.0004497 0.0000
 17   -848.3854111642  -0.000128780785 0.00019375  0.00000640  0.0004489 0.0000
 18   -848.3855369999  -0.000125835671 0.00016326  0.00000363  0.0004523 0.0000
 19   -848.3855044294   0.000032570423 0.00003951  0.00000096  0.0004529 0.0000
               *** Restarting incremental Fock matrix formation ***
                                   *** Resetting DIIS ***
 20   -848.3855937882  -0.000089358812 0.00029662  0.00001272  0.0004539 0.0000
 21   -848.3855379299   0.000055858298 0.00002917  0.00000114  0.0004625 0.0000
 22   -848.3855306133   0.000007316663 0.00002846  0.00000111  0.0004635 0.0000
 23   -848.3855319466  -0.000001333293 0.00000224  0.00000009  0.0004625 0.0000
 24   -848.3855319190   0.000000027530 0.00000262  0.00000010  0.0004624 0.0000
 25   -848.3855984294  -0.000066510328 0.00032418  0.00001263  0.0004623 0.0000
 26   -848.3855488681   0.000049561260 0.00075086  0.00002861  0.0004737 0.0000
 27   -848.3855436858   0.000005182318 0.00094099  0.00003612  0.0004432 0.0000
 28   -848.3855319317   0.000011754126 0.00189457  0.00007409  0.0003978 0.0000
 29   -848.3855571372  -0.000025205552 0.00093323  0.00003475  0.0002951 0.0000
 30   -848.3856054392  -0.000048301983 0.00031871  0.00001283  0.0002346 0.0000
 31   -848.3857467698  -0.000141330568 0.00040848  0.00001732  0.0002050 0.0000
 32   -848.3857459899   0.000000779850 0.00058631  0.00002732  0.0001581 0.0000
 33   -848.3855781151   0.000167874802 0.00041476  0.00001825  0.0000753 0.0000
 34   -848.3855276758   0.000050439293 0.00027209  0.00000718  0.0000202 0.0000
 35   -848.3855661137  -0.000038437855 0.00010225  0.00000453  0.0000121 0.0000
 36   -848.3855600190   0.000006094651 0.00007286  0.00000291  0.0000070 0.0000
 37   -848.3855808866  -0.000020867608 0.00012553  0.00000496  0.0000056 0.0000
 38   -848.3855715310   0.000009355609 0.00008445  0.00000332  0.0000026 0.0000
 39   -848.3855699068   0.000001624265 0.00000655  0.00000026  0.0000006 0.0000
               *** Restarting incremental Fock matrix formation ***
                                   *** Resetting DIIS ***
 40   -848.3855690615   0.000000845292 0.00000368  0.00000008  0.0000004 0.0000
 41   -848.3855693022  -0.000000240685 0.00000330  0.00000009  0.0000004 0.0000
 42   -848.3855689009   0.000000401242 0.00000179  0.00000006  0.0000004 0.0000
 43   -848.3855690380  -0.000000137127 0.00000052  0.00000002  0.0000004 0.0000
 44   -848.3855691065  -0.000000068505 0.00000023  0.00000001  0.0000004 0.0000
 45   -848.3855690965   0.000000010065 0.00000015  0.00000001  0.0000004 0.0000
 46   -848.3855690564   0.000000040040 0.00000006  0.00000000  0.0000004 0.0000
 47   -848.3855690656  -0.000000009202 0.00000020  0.00000001  0.0000004 0.0000
 48   -848.3855690871  -0.000000021462 0.00000012  0.00000001  0.0000004 0.0000
 49   -848.3855690984  -0.000000011344 0.00000007  0.00000000  0.0000004 0.0000
                 **** Energy Check signals convergence ****

               *****************************************************
               *                     SUCCESS                       *
               *           SCF CONVERGED AFTER  50 CYCLES          *
               *****************************************************


----------------
TOTAL SCF ENERGY
----------------

Total Energy       :         -848.38556910 Eh          -23085.74499 eV

Components:
Nuclear Repulsion  :            0.00000000 Eh               0.00000 eV
Electronic Energy  :         -848.38556910 Eh          -23085.74499 eV
One Electron Energy:        -1162.74540450 Eh          -31639.91100 eV
Two Electron Energy:          314.35983541 Eh            8554.16601 eV

Virial components:
Potential Energy   :        -1696.71291084 Eh          -46169.90554 eV
Kinetic Energy     :          848.32734174 Eh           23084.16054 eV
Virial Ratio       :            2.00006864


---------------
SCF CONVERGENCE
---------------

  Last Energy change         ...   -2.6944e-11  Tolerance :   1.0000e-09
  Last MAX-Density change    ...    3.8241e-08  Tolerance :   1.0000e-08
  Last RMS-Density change    ...    1.8696e-09  Tolerance :   1.0000e-09
  Last DIIS Error            ...    3.9686e-07  Tolerance :   1.0000e-08

             **** THE GBW FILE WAS UPDATED (62_Ti.gbw) ****
             **** DENSITY FILE WAS UPDATED (62_Ti.scfp) ****
             **** ENERGY FILE WAS UPDATED (62_Ti.en.tmp) ****
----------------------
UHF SPIN CONTAMINATION
----------------------

Expectation value of <S**2>     :     2.009916
Ideal value S*(S+1) for S=1.0   :     2.000000
Deviation                       :     0.009916

             **** THE GBW FILE WAS UPDATED (62_Ti.gbw) ****
             **** DENSITY FILE WAS UPDATED (62_Ti.scfp) ****
----------------
ORBITAL ENERGIES
----------------
                 SPIN UP ORBITALS
  NO   OCC          E(Eh)            E(eV) 
   0   1.0000    -183.276688     -4987.2122 
   1   1.0000     -21.442913      -583.4913 
   2   1.0000     -17.811778      -484.6831 
   3   1.0000     -17.811778      -484.6831 
   4   1.0000     -17.809576      -484.6232 
   5   1.0000      -2.938919       -79.9721 
   6   1.0000      -1.905420       -51.8491 
   7   1.0000      -1.861358       -50.6501 
   8   1.0000      -1.861358       -50.6501 
   9   1.0000      -0.435759       -11.8576 
  10   1.0000      -0.435759       -11.8576 
  11   1.0000      -0.232456        -6.3254 
  12   0.0000       0.045259         1.2316 
  13   0.0000       0.045259         1.2316 
  14   0.0000       0.046087         1.2541 
  15   0.0000       0.099983         2.7207 
  16   0.0000       0.099983         2.7207 
  17   0.0000       0.116891         3.1808 
  18   0.0000       0.143809         3.9133 
  19   0.0000       0.161056         4.3826 
  20   0.0000       0.161056         4.3826 
  21   0.0000       0.207567         5.6482 
  22   0.0000       0.207567         5.6482 
  23   0.0000       0.229716         6.2509 
  24   0.0000       0.360065         9.7979 
  25   0.0000       0.360065         9.7979 
  26   0.0000       0.362031         9.8514 
  27   0.0000       0.627856        17.0848 
  28   0.0000       0.627856        17.0848 
  29   0.0000       0.690333        18.7849 
  30   0.0000       0.690333        18.7849 
  31   0.0000       0.709506        19.3066 
  32   0.0000       0.858297        23.3554 
  33   0.0000       0.858297        23.3554 
  34   0.0000       0.867685        23.6109 
  35   0.0000       0.867685        23.6109 
  36   0.0000       0.873808        23.7775 
  37   0.0000       0.874855        23.8060 
  38   0.0000       0.874855        23.8060 
  39   0.0000       1.670206        45.4486 
  40   0.0000       1.670206        45.4486 
  41   0.0000       1.680433        45.7269 
  42   0.0000       1.922683        52.3189 
  43   0.0000       2.312641        62.9301 
  44   0.0000       2.312641        62.9301 
  45   0.0000       2.371378        64.5285 
  46   0.0000       2.371378        64.5285 
  47   0.0000       2.398995        65.2800 
  48   0.0000       2.843802        77.3838 
  49   0.0000       2.843802        77.3838 
  50   0.0000       2.846248        77.4504 
  51   0.0000       2.846248        77.4504 
  52   0.0000       2.848658        77.5159 
  53   0.0000       2.848658        77.5159 
  54   0.0000       2.853827        77.6566 
  55   0.0000       2.853827        77.6566 
  56   0.0000       2.856312        77.7242 
  57   0.0000       3.241842        88.2150 
  58   0.0000       3.241842        88.2150 
  59   0.0000       3.273061        89.0645 
  60   0.0000       3.273061        89.0645 
  61   0.0000       3.294679        89.6528 
  62   0.0000       3.301079        89.8269 
  63   0.0000       3.301079        89.8269 

                 SPIN DOWN ORBITALS
  NO   OCC          E(Eh)            E(eV) 
   0   1.0000    -183.276450     -4987.2057 
   1   1.0000     -21.409712      -582.5879 
   2   1.0000     -17.785352      -483.9640 
   3   1.0000     -17.785352      -483.9640 
   4   1.0000     -17.763224      -483.3619 
   5   1.0000      -2.812667       -76.5366 
   6   1.0000      -1.740055       -47.3493 
   7   1.0000      -1.740055       -47.3493 
   8   1.0000      -1.678464       -45.6733 
   9   1.0000      -0.210641        -5.7318 
  10   0.0000       0.048576         1.3218 
  11   0.0000       0.048576         1.3218 
  12   0.0000       0.057398         1.5619 
  13   0.0000       0.116359         3.1663 
  14   0.0000       0.116359         3.1663 
  15   0.0000       0.124596         3.3904 
  16   0.0000       0.129795         3.5319 
  17   0.0000       0.129795         3.5319 
  18   0.0000       0.157036         4.2732 
  19   0.0000       0.230735         6.2786 
  20   0.0000       0.230735         6.2786 
  21   0.0000       0.247344         6.7306 
  22   0.0000       0.263048         7.1579 
  23   0.0000       0.263048         7.1579 
  24   0.0000       0.374767        10.1979 
  25   0.0000       0.374767        10.1979 
  26   0.0000       0.389355        10.5949 
  27   0.0000       0.708811        19.2877 
  28   0.0000       0.708811        19.2877 
  29   0.0000       0.724066        19.7028 
  30   0.0000       0.737011        20.0551 
  31   0.0000       0.737011        20.0551 
  32   0.0000       0.881650        23.9909 
  33   0.0000       0.881650        23.9909 
  34   0.0000       0.895968        24.3805 
  35   0.0000       0.897980        24.4353 
  36   0.0000       0.897980        24.4353 
  37   0.0000       0.898264        24.4430 
  38   0.0000       0.898264        24.4430 
  39   0.0000       1.701432        46.2983 
  40   0.0000       1.701432        46.2983 
  41   0.0000       1.734255        47.1915 
  42   0.0000       1.966073        53.4996 
  43   0.0000       2.396142        65.2023 
  44   0.0000       2.396142        65.2023 
  45   0.0000       2.420443        65.8636 
  46   0.0000       2.437918        66.3391 
  47   0.0000       2.437918        66.3391 
  48   0.0000       2.854933        77.6867 
  49   0.0000       2.854933        77.6867 
  50   0.0000       2.885259        78.5119 
  51   0.0000       2.885259        78.5119 
  52   0.0000       2.885478        78.5179 
  53   0.0000       2.887556        78.5744 
  54   0.0000       2.887556        78.5744 
  55   0.0000       2.891128        78.6716 
  56   0.0000       2.891128        78.6716 
  57   0.0000       3.323860        90.4468 
  58   0.0000       3.323860        90.4468 
  59   0.0000       3.364691        91.5579 
  60   0.0000       3.372220        91.7628 
  61   0.0000       3.372220        91.7628 
  62   0.0000       3.375986        91.8652 
  63   0.0000       3.375986        91.8652 

                    ********************************
                    * MULLIKEN POPULATION ANALYSIS *
                    ********************************

--------------------------------------------
MULLIKEN ATOMIC CHARGES AND SPIN POPULATIONS
--------------------------------------------
   0 Ti:   -0.000000    2.000000
Sum of atomic charges         :   -0.0000000
Sum of atomic spin populations:    2.0000000

-----------------------------------------------------
MULLIKEN REDUCED ORBITAL CHARGES AND SPIN POPULATIONS
-----------------------------------------------------
CHARGE
  0 Tis       :     7.997537  s :     7.997537
      pz      :     3.999620  p :    11.998590
      px      :     3.999620
      py      :     3.999349
      dz2     :     0.000634  d :     2.002395
      dxz     :     0.000018
      dyz     :     0.999941
      dx2y2   :     0.001856
      dxy     :     0.999945
      f0      :     0.000142  f :     0.001410
      f+1     :     0.000024
      f-1     :     0.000244
      f+2     :     0.000237
      f-2     :     0.000000
      f+3     :     0.000356
      f-3     :     0.000407
      g0      :     0.000007  g :     0.000068
      g+1     :     0.000000
      g-1     :     0.000006
      g+2     :     0.000015
      g-2     :     0.000001
      g+3     :     0.000000
      g-3     :     0.000005
      g+4     :     0.000026
      g-4     :     0.000009

SPIN
  0 Tis       :     0.002275  s :     0.002275
      pz      :    -0.000183  p :    -0.001006
      px      :    -0.000183
      py      :    -0.000640
      dz2     :    -0.000545  d :     1.997678
      dxz     :     0.000018
      dyz     :     0.999941
      dx2y2   :    -0.001681
      dxy     :     0.999945
      f0      :     0.000068  f :     0.001006
      f+1     :     0.000011
      f-1     :     0.000240
      f+2     :     0.000114
      f-2     :     0.000000
      f+3     :     0.000171
      f-3     :     0.000400
      g0      :     0.000004  g :     0.000047
      g+1     :     0.000000
      g-1     :     0.000006
      g+2     :     0.000008
      g-2     :     0.000001
      g+3     :     0.000000
      g-3     :     0.000005
      g+4     :     0.000014
      g-4     :     0.000009


                     *******************************
                     * LOEWDIN POPULATION ANALYSIS *
                     *******************************

-------------------------------------------
LOEWDIN ATOMIC CHARGES AND SPIN POPULATIONS
-------------------------------------------
   0 Ti:   -0.000000    2.000000

----------------------------------------------------
LOEWDIN REDUCED ORBITAL CHARGES AND SPIN POPULATIONS
----------------------------------------------------
CHARGE
  0 Tis       :     7.997537  s :     7.997537
      pz      :     3.999620  p :    11.998590
      px      :     3.999620
      py      :     3.999349
      dz2     :     0.000634  d :     2.002395
      dxz     :     0.000018
      dyz     :     0.999941
      dx2y2   :     0.001856
      dxy     :     0.999945
      f0      :     0.000142  f :     0.001410
      f+1     :     0.000024
      f-1     :     0.000244
      f+2     :     0.000237
      f-2     :     0.000000
      f+3     :     0.000356
      f-3     :     0.000407
      g0      :     0.000007  g :     0.000068
      g+1     :     0.000000
      g-1     :     0.000006
      g+2     :     0.000015
      g-2     :     0.000001
      g+3     :     0.000000
      g-3     :     0.000005
      g+4     :     0.000026
      g-4     :     0.000009

SPIN
  0 Tis       :     0.002275  s :     0.002275
      pz      :    -0.000183  p :    -0.001006
      px      :    -0.000183
      py      :    -0.000640
      dz2     :    -0.000545  d :     1.997678
      dxz     :     0.000018
      dyz     :     0.999941
      dx2y2   :    -0.001681
      dxy     :     0.999945
      f0      :     0.000068  f :     0.001006
      f+1     :     0.000011
      f-1     :     0.000240
      f+2     :     0.000114
      f-2     :     0.000000
      f+3     :     0.000171
      f-3     :     0.000400
      g0      :     0.000004  g :     0.000047
      g+1     :     0.000000
      g-1     :     0.000006
      g+2     :     0.000008
      g-2     :     0.000001
      g+3     :     0.000000
      g-3     :     0.000005
      g+4     :     0.000014
      g-4     :     0.000009


                      *****************************
                      * MAYER POPULATION ANALYSIS *
                      *****************************

  NA   - Mulliken gross atomic population
  ZA   - Total nuclear charge
  QA   - Mulliken gross atomic charge
  VA   - Mayer's total valence
  BVA  - Mayer's bonded valence
  FA   - Mayer's free valence

  ATOM       NA         ZA         QA         VA         BVA        FA
  0 Ti    22.0000    22.0000    -0.0000     2.0198     0.0000     2.0198

  Mayer bond orders larger than 0.100000


-------
TIMINGS
-------

Total SCF time: 0 days 0 hours 0 min 5 sec 

Total time                  ....       5.774 sec
Sum of individual times     ....       5.427 sec  ( 94.0%)

Fock matrix formation       ....       5.168 sec  ( 89.5%)
Diagonalization             ....       0.069 sec  (  1.2%)
Density matrix formation    ....       0.015 sec  (  0.3%)
Population analysis         ....       0.003 sec  (  0.1%)
Initial guess               ....       0.103 sec  (  1.8%)
Orbital Transformation      ....       0.000 sec  (  0.0%)
Orbital Orthonormalization  ....       0.000 sec  (  0.0%)
DIIS solution               ....       0.047 sec  (  0.8%)


           ************************************************************
           *        Program running with 24 parallel MPI-processes    *
           *              working on a common directory               *
           ************************************************************


------------------------------------------------------------------------------- 
                              ORCA-MATRIX DRIVEN CI                            
------------------------------------------------------------------------------- 

--------------------------------
AUTOMATIC CHOICE OF INCORE LEVEL
--------------------------------

Memory available                           ...   2500.00 MB
Memory needed for S+T                      ...      1.73 MB
Memory needed for J+K                      ...      3.49 MB
Memory needed for DIIS                     ...     24.26 MB
Memory needed for 3-ext                    ...      7.51 MB
Memory needed for 4-ext                    ...     28.43 MB
Memory needed for triples                  ...      5.36 MB
 -> Final InCoreLevel    ... 5
 -> check shows that triples correction can be computed


Wavefunction type
-----------------
Correlation treatment                      ...      CCSD     
Single excitations                         ... ON
Orbital optimization                       ... OFF
Calculation of Z vector                    ... OFF
Calculation of Brueckner orbitals          ... OFF
Perturbative triple excitations            ... ON
Calculation of F12 correction              ... OFF
Frozen core treatment                      ... chemical core (10 el)
Reference Wavefunction                     ... UHF
  Alpha-MOs occ    :     5 ...   11 (  7 MO's/  7 electrons)
  Beta-MOs occ     :     5 ...    9 (  5 MO's/  5 electrons)
  Alpha-MOs virt   :    12 ...   63 ( 52 MO's              )
  Beta-MOs virt    :    10 ...   63 ( 54 MO's              )
Number of AO's                             ...     64
Number of electrons                        ...     22
Number of correlated electrons             ...     12

Algorithmic settings
--------------------
Integral transformation                    ... AO direct full transformation
K(C) Formation                             ... FULL-MO TRAFO
Maximum number of iterations               ...        50
Convergence tolerance (max. residuum)      ... 1.000e-06
Level shift for amplitude update           ... 2.000e-01
Maximum number of DIIS vectors             ...         7
DIIS turned on at iteration                ...         0
Damping before turning on DIIS             ...     0.500
Damping after turning on DIIS              ...     0.000
Pair specific amplitude update             ... OFF
Natural orbital iterations                 ... OFF
Perturbative natural orbital generation    ... OFF
Printlevel                                 ... 2

Memory handling:
----------------
Maximum memory for working arrays          ...   2500 MB
Data storage in matrix containers          ... UNCOMPRESSED
Data type for integral storage             ... DOUBLE
In-Core Storage of quantities:
   Amplitudes+Sigma Vector      ... YES
   J+K operators                ... YES
   DIIS vectors                 ... YES
   3-external integrals         ... YES
   4-external integrals         ... YES


Initializing the integral package          ... done
Warning: reference  - re-canonicalizations have been set to INT 1 VIRT 1

--------------------------
UNRESTRICTED FOCK OPERATOR
--------------------------

<ss|ss>:          231 b            0 skpd (  0.0%)    0.000 s ( 0.002 ms/b)
<ss|sp>:          630 b            0 skpd (  0.0%)    0.001 s ( 0.001 ms/b)
<ss|sd>:          504 b            0 skpd (  0.0%)    0.001 s ( 0.001 ms/b)
<ss|sf>:          252 b            0 skpd (  0.0%)    0.000 s ( 0.001 ms/b)
<ss|sg>:          126 b            0 skpd (  0.0%)    0.000 s ( 0.002 ms/b)
<ss|pp>:          315 b            0 skpd (  0.0%)    0.001 s ( 0.002 ms/b)
<ss|pd>:          420 b            0 skpd (  0.0%)    0.000 s ( 0.001 ms/b)
<ss|pf>:          210 b            0 skpd (  0.0%)    0.000 s ( 0.001 ms/b)
<ss|pg>:          105 b            0 skpd (  0.0%)    0.000 s ( 0.003 ms/b)
<ss|dd>:          210 b            0 skpd (  0.0%)    0.001 s ( 0.003 ms/b)
<ss|df>:          168 b            0 skpd (  0.0%)    0.000 s ( 0.001 ms/b)
<ss|dg>:           84 b            0 skpd (  0.0%)    0.000 s ( 0.004 ms/b)
<ss|ff>:           63 b            0 skpd (  0.0%)    0.000 s ( 0.002 ms/b)
<ss|fg>:           42 b            0 skpd (  0.0%)    0.000 s ( 0.005 ms/b)
<ss|gg>:           21 b            0 skpd (  0.0%)    0.000 s ( 0.013 ms/b)
<sp|sp>:          465 b            0 skpd (  0.0%)    0.001 s ( 0.002 ms/b)
<sp|sd>:          720 b            0 skpd (  0.0%)    0.001 s ( 0.001 ms/b)
<sp|sf>:          360 b            0 skpd (  0.0%)    0.000 s ( 0.001 ms/b)
<sp|sg>:          180 b            0 skpd (  0.0%)    0.001 s ( 0.003 ms/b)
<sp|pp>:          450 b            0 skpd (  0.0%)    0.001 s ( 0.002 ms/b)
<sp|pd>:          600 b            0 skpd (  0.0%)    0.001 s ( 0.002 ms/b)
<sp|pf>:          300 b            0 skpd (  0.0%)    0.001 s ( 0.002 ms/b)
<sp|pg>:          150 b            0 skpd (  0.0%)    0.001 s ( 0.005 ms/b)
<sp|dd>:          300 b            0 skpd (  0.0%)    0.001 s ( 0.004 ms/b)
<sp|df>:          240 b            0 skpd (  0.0%)    0.001 s ( 0.003 ms/b)
<sp|dg>:          120 b            0 skpd (  0.0%)    0.001 s ( 0.007 ms/b)
<sp|ff>:           90 b            0 skpd (  0.0%)    0.000 s ( 0.004 ms/b)
<sp|fg>:           60 b            0 skpd (  0.0%)    0.001 s ( 0.009 ms/b)
<sp|gg>:           30 b            0 skpd (  0.0%)    0.001 s ( 0.024 ms/b)
<sd|sd>:          300 b            0 skpd (  0.0%)    0.001 s ( 0.002 ms/b)
<sd|sf>:          288 b            0 skpd (  0.0%)    0.000 s ( 0.001 ms/b)
<sd|sg>:          144 b            0 skpd (  0.0%)    0.001 s ( 0.004 ms/b)
<sd|pp>:          360 b            0 skpd (  0.0%)    0.001 s ( 0.003 ms/b)
<sd|pd>:          480 b            0 skpd (  0.0%)    0.001 s ( 0.003 ms/b)
<sd|pf>:          240 b            0 skpd (  0.0%)    0.001 s ( 0.003 ms/b)
<sd|pg>:          120 b            0 skpd (  0.0%)    0.001 s ( 0.010 ms/b)
<sd|dd>:          240 b            0 skpd (  0.0%)    0.002 s ( 0.007 ms/b)
<sd|df>:          192 b            0 skpd (  0.0%)    0.001 s ( 0.005 ms/b)
<sd|dg>:           96 b            0 skpd (  0.0%)    0.001 s ( 0.015 ms/b)
<sd|ff>:           72 b            0 skpd (  0.0%)    0.001 s ( 0.008 ms/b)
<sd|fg>:           48 b            0 skpd (  0.0%)    0.001 s ( 0.018 ms/b)
<sd|gg>:           24 b            0 skpd (  0.0%)    0.001 s ( 0.051 ms/b)
<sf|sf>:           78 b            0 skpd (  0.0%)    0.000 s ( 0.002 ms/b)
<sf|sg>:           72 b            0 skpd (  0.0%)    0.000 s ( 0.005 ms/b)
<sf|pp>:          180 b            0 skpd (  0.0%)    0.001 s ( 0.004 ms/b)
<sf|pd>:          240 b            0 skpd (  0.0%)    0.001 s ( 0.004 ms/b)
<sf|pf>:          120 b            0 skpd (  0.0%)    0.000 s ( 0.004 ms/b)
<sf|pg>:           60 b            0 skpd (  0.0%)    0.001 s ( 0.013 ms/b)
<sf|dd>:          120 b            0 skpd (  0.0%)    0.001 s ( 0.010 ms/b)
<sf|df>:           96 b            0 skpd (  0.0%)    0.001 s ( 0.007 ms/b)
<sf|dg>:           48 b            0 skpd (  0.0%)    0.001 s ( 0.021 ms/b)
<sf|ff>:           36 b            0 skpd (  0.0%)    0.001 s ( 0.015 ms/b)
<sf|fg>:           24 b            0 skpd (  0.0%)    0.001 s ( 0.029 ms/b)
<sf|gg>:           12 b            0 skpd (  0.0%)    0.001 s ( 0.076 ms/b)
<sg|sg>:           21 b            0 skpd (  0.0%)    0.000 s ( 0.009 ms/b)
<sg|pp>:           90 b            0 skpd (  0.0%)    0.001 s ( 0.008 ms/b)
<sg|pd>:          120 b            0 skpd (  0.0%)    0.001 s ( 0.008 ms/b)
<sg|pf>:           60 b            0 skpd (  0.0%)    0.000 s ( 0.007 ms/b)
<sg|pg>:           30 b            0 skpd (  0.0%)    0.001 s ( 0.027 ms/b)
<sg|dd>:           60 b            0 skpd (  0.0%)    0.001 s ( 0.019 ms/b)
<sg|df>:           48 b            0 skpd (  0.0%)    0.001 s ( 0.013 ms/b)
<sg|dg>:           24 b            0 skpd (  0.0%)    0.001 s ( 0.046 ms/b)
<sg|ff>:           18 b            0 skpd (  0.0%)    0.000 s ( 0.021 ms/b)
<sg|fg>:           12 b            0 skpd (  0.0%)    0.001 s ( 0.052 ms/b)
<sg|gg>:            6 b            0 skpd (  0.0%)    0.001 s ( 0.141 ms/b)
<pp|pp>:          120 b            0 skpd (  0.0%)    0.001 s ( 0.009 ms/b)
<pp|pd>:          300 b            0 skpd (  0.0%)    0.001 s ( 0.004 ms/b)
<pp|pf>:          150 b            0 skpd (  0.0%)    0.001 s ( 0.004 ms/b)
<pp|pg>:           75 b            0 skpd (  0.0%)    0.001 s ( 0.013 ms/b)
<pp|dd>:          150 b            0 skpd (  0.0%)    0.002 s ( 0.010 ms/b)
<pp|df>:          120 b            0 skpd (  0.0%)    0.001 s ( 0.007 ms/b)
<pp|dg>:           60 b            0 skpd (  0.0%)    0.001 s ( 0.021 ms/b)
<pp|ff>:           45 b            0 skpd (  0.0%)    0.001 s ( 0.012 ms/b)
<pp|fg>:           30 b            0 skpd (  0.0%)    0.001 s ( 0.026 ms/b)
<pp|gg>:           15 b            0 skpd (  0.0%)    0.001 s ( 0.074 ms/b)
<pd|pd>:          210 b            0 skpd (  0.0%)    0.002 s ( 0.010 ms/b)
<pd|pf>:          200 b            0 skpd (  0.0%)    0.001 s ( 0.006 ms/b)
<pd|pg>:          100 b            0 skpd (  0.0%)    0.002 s ( 0.021 ms/b)
<pd|dd>:          200 b            0 skpd (  0.0%)    0.003 s ( 0.016 ms/b)
<pd|df>:          160 b            0 skpd (  0.0%)    0.002 s ( 0.011 ms/b)
<pd|dg>:           80 b            0 skpd (  0.0%)    0.003 s ( 0.035 ms/b)
<pd|ff>:           60 b            0 skpd (  0.0%)    0.001 s ( 0.021 ms/b)
<pd|fg>:           40 b            0 skpd (  0.0%)    0.002 s ( 0.047 ms/b)
<pd|gg>:           20 b            0 skpd (  0.0%)    0.003 s ( 0.130 ms/b)
<pf|pf>:           55 b            0 skpd (  0.0%)    0.000 s ( 0.008 ms/b)
<pf|pg>:           50 b            0 skpd (  0.0%)    0.001 s ( 0.026 ms/b)
<pf|dd>:          100 b            0 skpd (  0.0%)    0.002 s ( 0.018 ms/b)
<pf|df>:           80 b            0 skpd (  0.0%)    0.001 s ( 0.015 ms/b)
<pf|dg>:           40 b            0 skpd (  0.0%)    0.002 s ( 0.043 ms/b)
<pf|ff>:           30 b            0 skpd (  0.0%)    0.001 s ( 0.036 ms/b)
<pf|fg>:           20 b            0 skpd (  0.0%)    0.001 s ( 0.069 ms/b)
<pf|gg>:           10 b            0 skpd (  0.0%)    0.002 s ( 0.173 ms/b)
<pg|pg>:           15 b            0 skpd (  0.0%)    0.001 s ( 0.038 ms/b)
<pg|dd>:           50 b            0 skpd (  0.0%)    0.002 s ( 0.037 ms/b)
<pg|df>:           40 b            0 skpd (  0.0%)    0.001 s ( 0.025 ms/b)
<pg|dg>:           20 b            0 skpd (  0.0%)    0.002 s ( 0.085 ms/b)
<pg|ff>:           15 b            0 skpd (  0.0%)    0.001 s ( 0.044 ms/b)
<pg|fg>:           10 b            0 skpd (  0.0%)    0.001 s ( 0.116 ms/b)
<pg|gg>:            5 b            0 skpd (  0.0%)    0.001 s ( 0.292 ms/b)
<dd|dd>:           55 b            0 skpd (  0.0%)    0.003 s ( 0.046 ms/b)
<dd|df>:           80 b            0 skpd (  0.0%)    0.002 s ( 0.019 ms/b)
<dd|dg>:           40 b            0 skpd (  0.0%)    0.002 s ( 0.061 ms/b)
<dd|ff>:           30 b            0 skpd (  0.0%)    0.001 s ( 0.037 ms/b)
<dd|fg>:           20 b            0 skpd (  0.0%)    0.002 s ( 0.082 ms/b)
<dd|gg>:           10 b            0 skpd (  0.0%)    0.002 s ( 0.225 ms/b)
<df|df>:           36 b            0 skpd (  0.0%)    0.001 s ( 0.037 ms/b)
<df|dg>:           32 b            0 skpd (  0.0%)    0.002 s ( 0.069 ms/b)
<df|ff>:           24 b            0 skpd (  0.0%)    0.001 s ( 0.062 ms/b)
<df|fg>:           16 b            0 skpd (  0.0%)    0.002 s ( 0.118 ms/b)
<df|gg>:            8 b            0 skpd (  0.0%)    0.002 s ( 0.304 ms/b)
<dg|dg>:           10 b            0 skpd (  0.0%)    0.001 s ( 0.121 ms/b)
<dg|ff>:           12 b            0 skpd (  0.0%)    0.001 s ( 0.072 ms/b)
<dg|fg>:            8 b            0 skpd (  0.0%)    0.001 s ( 0.183 ms/b)
<dg|gg>:            4 b            0 skpd (  0.0%)    0.002 s ( 0.472 ms/b)
<ff|ff>:            6 b            0 skpd (  0.0%)    0.001 s ( 0.092 ms/b)
<ff|fg>:            6 b            0 skpd (  0.0%)    0.001 s ( 0.168 ms/b)
<ff|gg>:            3 b            0 skpd (  0.0%)    0.001 s ( 0.472 ms/b)
<fg|fg>:            3 b            0 skpd (  0.0%)    0.001 s ( 0.325 ms/b)
<fg|gg>:            2 b            0 skpd (  0.0%)    0.002 s ( 0.931 ms/b)
<gg|gg>:            1 b            0 skpd (  0.0%)    0.001 s ( 1.180 ms/b)
Recanonicalizing the internal orbitals
Recanonicalizing the virtual orbitals
Time needed for Fock operator              ...            0.195 sec
Reference energy                           ...   -848.385569062
Warning: for UHF the TrafoType has to be JK
Warning: for UHF the K(C)-option cannot be MO but must be AOX

-------------------------------
PARTIAL EXCHANGE TRANSFORMATION
-------------------------------

Transformation type                        ... two-operators
Generation of integrals (i,mue|j,nue)      ... ON
Generation of integrals (mue,kappa|nue,tau)... ON
Generation of integrals (i,mue|a,nue)      ... ON
Dimension of the basis                     ...   64
Number of internal alpha-MOs               ...    7 (   5-  11)
Number of internal beta-MOs                ...    5 (   5-   9)
Number of external alpha-MOs               ...   52 (  12-  63)
Number of external beta-MOs                ...   54 (  10-  63)
Pair cutoff                                ... 0.000e+00 Eh
Number of AO pairs in the trafo            ... 2080
Total Number of distinct AO pairs          ... 2080
Memory devoted for trafo                   ... 2500.0 MB 
Max. Number of MO pairs treated together   ... 80000      
Number Format for Storage                  ... Double (8 Byte)
Integral package used                      ... LIBINT

Starting integral evaluation:
    ... done with AO integral generation
Closing buffer AOK[aa] ( 0.00 GB; CompressionRatio= 0.00)
Closing buffer AOK[bb] ( 0.00 GB; CompressionRatio= 0.00)
Closing buffer AOK[ab] ( 0.00 GB; CompressionRatio= 0.00)
Closing buffer AOK[ba] ( 0.00 GB; CompressionRatio= 0.00)
Collecting buffer AOK 
Closing buffer IAAO1[aa] ( 0.00 GB; CompressionRatio= 0.00)
Closing buffer IAAO1[bb] ( 0.00 GB; CompressionRatio= 0.00)
Closing buffer IAAO1[ab] ( 0.00 GB; CompressionRatio= 0.00)
Closing buffer IAAO1[ba] ( 0.00 GB; CompressionRatio= 0.00)
Closing buffer IAAO2[aa] ( 0.00 GB; CompressionRatio= 0.00)
Closing buffer IAAO2[bb] ( 0.00 GB; CompressionRatio= 0.00)
Closing buffer IAAO2[ab] ( 0.00 GB; CompressionRatio= 0.00)
Closing buffer IAAO2[ba] ( 0.00 GB; CompressionRatio= 0.00)
Collecting buffer IAAO 
Closing buffer PRQS    ( 0.00 GB; CompressionRatio= 0.00)
Collecting buffer PRQS 
Number of alpha/alpha MO pairs in trafo    ...   28
Number of beta /beta  MO pairs in trafo    ...   15
Number of alpha/ beta MO pairs in trafo    ...   35
------------------------
SORTING OF (i,mue|j,nue)
------------------------

SORTING OF ALPHA/ALPHA PAIRS
IBATCH = 1 of  1
Closing buffer KAO[aa] ( 0.00 GB; CompressionRatio= 1.00)
Collecting buffer KAO 
SORTING OF BETA /BETA  PAIRS
IBATCH = 1 of  1
Closing buffer KAO[bb] ( 0.00 GB; CompressionRatio= 1.00)
Collecting buffer KAO 
SORTING OF ALPHA/BETA  PAIRS
IBATCH = 1 of  1
Closing buffer KAO[ab] ( 0.00 GB; CompressionRatio= 0.999633923124)
Collecting buffer KAO[ab] 
------------------------
SORTING OF (i,mue|a,nue)
------------------------

Number of alpha/alpha (i,a) pairs in trafo  ...  364
Number of beta /beta  (i,a) pairs in trafo  ...  270
Number of alpha/ beta (i,a) pairs in trafo  ...  378
Number of beta /alpha (i,a) pairs in trafo  ...  260
Setting up the alpha/alpha list             ... done
Setting up the beta /beta  list             ... done
Setting up the alpha/beta  list             ... done
Setting up the beta /alpha list             ... done
    ... Now sorting (i,mue|a,nue)integrals
    ... Integrals (i,b|a,c) will be made on the fly
SORTING OF ALPHA/ALPHA PAIRS
IBATCH = 1 of  1
Closing buffer IPAQ[aa]  0.00 GB; CompressionRatio= 1.00)
SORTING OF BETA /BETA  PAIRS
IBATCH = 1 of  1
Closing buffer IPAQ[bb]( 0.00 GB; CompressionRatio= 1.00)
SORTING OF ALPHA/BETA  PAIRS (NMatSort_ab=16)
IBATCH = 1 of  1
Closing buffer IPAQ[ab]( 0.00 GB; CompressionRatio= 1.00)
SORTING OF BETA/ALPHA  PAIRS
IBATCH = 1 of  1
Closing buffer IPAQ[ba]( 0.00 GB; CompressionRatio= 1.00)
N(AO-Batches) Done                         ...         0 
N(AO-Batches) Skipped                      ...         0 
N(IJ)-pairs Skipped                        ...         0 
TOTAL TIME for half transformation         ...     0.346 sec
AO-integral generation                     ...     0.000 sec
Half transformation                        ...     0.000 sec
K-integral sorting                         ...     0.142 sec
<ss|**>: 
------------------------------
PARTIAL COULOMB TRANSFORMATION
------------------------------

Transformation type                        ... two-operators
Dimension of the basis                     ...   64
Number of internal alpha-MOs               ...    7 (5-11)
Number of internal beta-MOs                ...    5 (5-9)
Pair cutoff                                ... 0.000e+00 Eh
Number of AO pairs included in the trafo   ... 2080
Total Number of distinct AO pairs          ... 2080
Memory devoted for trafo                   ... 2500.0 MB 
Max. Number of MO pairs treated together   ... 157538      
Max. Number of MOs treated per batch       ... 2461      
Number Format for Storage                  ... Double (8 Byte)
AO-integral source                         ... DIRECT
Integral package used                      ... LIBINT

Starting integral evaluation:
        3591 b        0 skpd     0.001 s (  0.000 ms/b)
<sp|**>: <sd|**>:         5130 b        0 skpd     0.008 s (  0.001 ms/b)
        4104 b        0 skpd     0.009 s (  0.002 ms/b)
<sf|**>:         2052 b        0 skpd     0.005 s (  0.003 ms/b)
<sg|**>:         1026 b        0 skpd     0.010 s (  0.010 ms/b)
<pp|**>:         2565 b        0 skpd     0.012 s (  0.005 ms/b)
<pd|**>:         3420 b        0 skpd     0.017 s (  0.005 ms/b)
<pf|**>:         1710 b        0 skpd     0.008 s (  0.005 ms/b)
<pg|**>:          855 b        0 skpd     0.015 s (  0.018 ms/b)
<dd|**>:         1710 b        0 skpd     0.022 s (  0.013 ms/b)
<df|**>:         1368 b        0 skpd     0.012 s (  0.009 ms/b)
<dg|**>:          684 b        0 skpd     0.019 s (  0.028 ms/b)
<ff|**>:          513 b        0 skpd     0.008 s (  0.016 ms/b)
<fg|**>:          342 b        0 skpd     0.012 s (  0.036 ms/b)
<gg|**>:          171 b        0 skpd     0.018 s (  0.106 ms/b)
Closing buffer AOJ[aa] ( 0.00 GB; CompressionRatio= 0.95)
Closing buffer AOJ[bb] ( 0.00 GB; CompressionRatio= 0.00)
Collecting buffer AOJ 
    ... done with AO integral generation
Number of Alpha-MO pairs included          ...   28
Number of Beta-MO pairs included           ...   15
    ... Now sorting integrals
SORTING ALPHA/ALPHA PAIRS
IBATCH = 1 of  1
Closing buffer JAO[aa] ( 0.00 GB; CompressionRatio= 1.00)
SORTING BETA/BETA PAIRS
IBATCH = 1 of  1
Closing buffer JAO[bb] ( 0.00 GB; CompressionRatio= 1.00)
Collecting buffer JAO 
TOTAL TIME for half transformation         ...     0.190 sec
AO-integral generation                     ...     0.179 sec
Half transformation                        ...     0.002 sec
J-integral sorting                         ...     0.006 sec

-------------------------- SECOND HALF TRANSFORMATION -------------------------
Formation of (ij|kl),(ij|ka), (ij|ab)      ... ok (     0.015 sec)
Formation of (ik|jl),(ik|ja), (ia|jb)      ... ok (     0.021 sec)


-----------------------
SPIN UNRESTRICTED GUESS
-----------------------

Entering MDCI_UHF_Guess, Tailored=0
Spin-components of the MP2 energy:
EMP2(aa)=     -0.051490308
EMP2(bb)=     -0.032047483
EMP2(ab)=     -0.207872430

Initial guess performed in     0.005 sec
E(0)                                       ...   -848.385569062
E(MP2)                                     ...     -0.291410222
Initial E(tot)                             ...   -848.676979284
<T|T>                                      ...      0.090009564
Number of pairs included                   ... 66

------------------------------------------------
                  UHF COUPLED CLUSTER ITERATIONS
------------------------------------------------

Number of amplitudes to be optimized       ...       141569

Iter       E(tot)           E(Corr)          Delta-E          Residual     Time      <S|S>**1/2
  0   -848.676979284     -0.291410222     -0.000000000      0.017815250    0.23      0.000001373
                           *** Turning on DIIS ***
  1   -848.693608142     -0.308039081     -0.016628858      0.009318759    0.22      0.031728314
  2   -848.701519736     -0.315950675     -0.007911594      0.005359708    0.22      0.049854769
  3   -848.703650339     -0.318081278     -0.002130603      0.004204309    0.23      0.062157709
  4   -848.704945071     -0.319376009     -0.001294732      0.003065630    0.22      0.071480872
  5   -848.705347834     -0.319778773     -0.000402763      0.001994508    0.22      0.074515473
  6   -848.705434185     -0.319865123     -0.000086351      0.000827270    0.22      0.074090587
  7   -848.705460276     -0.319891215     -0.000026091      0.000181871    0.22      0.073192893
  8   -848.705467811     -0.319898749     -0.000007534      0.000072186    0.22      0.072866483
  9   -848.705476650     -0.319907589     -0.000008840      0.000045101    0.22      0.072809603
 10   -848.705478963     -0.319909902     -0.000002313      0.000024011    0.22      0.072829463
 11   -848.705479367     -0.319910305     -0.000000404      0.000010629    0.22      0.072865179
 12   -848.705478569     -0.319909507      0.000000798      0.000008269    0.23      0.072873617
 13   -848.705477934     -0.319908873      0.000000635      0.000006350    0.23      0.072872138
 14   -848.705477420     -0.319908358      0.000000514      0.000004310    0.22      0.072868817
 15   -848.705477266     -0.319908205      0.000000154      0.000002390    0.21      0.072868404
 16   -848.705477356     -0.319908295     -0.000000090      0.000001518    0.22      0.072871322
 17   -848.705477452     -0.319908390     -0.000000096      0.000000941    0.21      0.072874609
               --- The Coupled-Cluster iterations have converged ---

----------------------
COUPLED CLUSTER ENERGY
----------------------

E(0)                                       ...   -848.385569062
E(CORR)                                    ...     -0.319908390
E(TOT)                                     ...   -848.705477452
Singles norm <S|S>**1/2                    ...      0.072874609 ( 0.040314588, 0.032560021)  
T1 diagnostic                              ...      0.021037087                              

------------------
LARGEST AMPLITUDES
------------------
  11a-> 12a   9b-> 11b       0.118839
  11a-> 13a   9b-> 10b       0.118839
  11a-> 14a   9b-> 12b       0.105741
   9b-> 18b  -1b-> -1b       0.076672
  10a-> 15a   9a-> 16a       0.053211
  10a-> 16a   9a-> 15a       0.053211
  11a-> 18a  -1a-> -1a       0.049433
  10a-> 15a   9a-> 22a       0.043343
  10a-> 22a   9a-> 15a       0.043343
  10a-> 16a   9a-> 21a       0.043343
  10a-> 21a   9a-> 16a       0.043343
  11a-> 12a   9b-> 25b       0.039912
  11a-> 13a   9b-> 24b       0.039912
  11a-> 25a   9b-> 10b       0.039395
  11a-> 24a   9b-> 11b       0.039395
  11a-> 14a   9b-> 26b       0.037429

----------------------
UHF TRIPLES CORRECTION (Algorithm 1)
----------------------

Multiplier for the singles contribution    ...      1.000000000

SPIN-CASE Alpha-Alpha-Alpha:
10% done
20% done
30% done
40% done
50% done
60% done
70% done
80% done
90% done


SPIN-CASE Beta-Beta-Beta:
10% done
20% done
30% done
40% done
50% done
60% done
70% done
80% done
90% done


SPIN-CASE Alpha-Alpha-Beta:
10% done
20% done
30% done
40% done
50% done
60% done
70% done
80% done
90% done


SPIN-CASE Beta-Beta-Alpha:
10% done
20% done
30% done
40% done
50% done
60% done
70% done
80% done
90% done


Triples Correction (T)                     ...     -0.011221026
    alpha-alpha-alpha ... -0.000708031 (  6.3%)
    alpha-alpha-beta  ... -0.006531258 ( 58.2%)
    alpha-beta -beta  ... -0.003798751 ( 33.9%)
    beta -beta -beta  ... -0.000182986 (  1.6%)
Scaling of triples based on CCSD energies (Peterson et al. Molecular Physics 113, 1551 (2015))
E(T*) = f*E(T) where f = E(F12-CCSD)/E(CCSD) 
f = CCSD (with F12)/ CCSD (without F12)    ...      1.000000000
Scaled triples correction (T)              ...     -0.011221026

Final correlation energy                   ...     -0.331129416
E(CCSD)                                    ...   -848.705477452
E(CCSD(T))                                 ...   -848.716698478



        !!!!!!!!!!!!!!!!!!!!!!!!!!!!!!!!!!!!!!!!!!!!!!!!!!!!!!!!!!!!!!!!!!!!!!!!!! 
        !  Warning: Densities are linearized densities                           !
        !!!!!!!!!!!!!!!!!!!!!!!!!!!!!!!!!!!!!!!!!!!!!!!!!!!!!!!!!!!!!!!!!!!!!!!!!! 

NORM  =      1.148092117 sqrt=     1.071490605
W(HF) =      0.871010248
------------------------------------------------------------------------------
                           ORCA POPULATION ANALYSIS
------------------------------------------------------------------------------
Input electron density              ... 62_Ti.mdcip
Input spin density                  ... 62_Ti.mdcir
BaseName (.gbw .S,...)              ... 62_Ti

                    ********************************
                    * MULLIKEN POPULATION ANALYSIS *
                    ********************************

------------------------------------------
MULLIKEN ATOMIC CHARGES AND SPIN DENSITIES
------------------------------------------
   0 Ti:   -0.000000    2.000000
Sum of atomic charges       :   -0.0000000
Sum of atomic spin densities:    2.0000000

---------------------------------------------------
MULLIKEN REDUCED ORBITAL CHARGES AND SPIN DENSITIES
---------------------------------------------------
CHARGE
  0 Tis       :     7.866034  s :     7.866034
      pz      :     4.017564  p :    12.051572
      px      :     4.017564
      py      :     4.016445
      dz2     :     0.027765  d :     2.060665
      dxz     :     0.029977
      dyz     :     0.989794
      dx2y2   :     0.023330
      dxy     :     0.989798
      f0      :     0.001936  f :     0.020090
      f+1     :     0.001232
      f-1     :     0.003690
      f+2     :     0.002499
      f-2     :     0.004144
      f+3     :     0.003203
      f-3     :     0.003387
      g0      :     0.000142  g :     0.001639
      g+1     :     0.000100
      g-1     :     0.000207
      g+2     :     0.000152
      g-2     :     0.000214
      g+3     :     0.000208
      g-3     :     0.000209
      g+4     :     0.000204
      g-4     :     0.000203

SPIN
  0 Tis       :     0.011805  s :     0.011805
      pz      :     0.002843  p :     0.013273
      px      :     0.002843
      py      :     0.007587
      dz2     :     0.006810  d :     1.962151
      dxz     :     0.009997
      dyz     :     0.972457
      dx2y2   :     0.000426
      dxy     :     0.972461
      f0      :     0.000791  f :     0.011866
      f+1     :     0.000157
      f-1     :     0.002517
      f+2     :     0.001298
      f-2     :     0.002928
      f+3     :     0.001931
      f-3     :     0.002244
      g0      :     0.000061  g :     0.000905
      g+1     :     0.000015
      g-1     :     0.000124
      g+2     :     0.000072
      g-2     :     0.000120
      g+3     :     0.000133
      g-3     :     0.000123
      g+4     :     0.000129
      g-4     :     0.000128


                     *******************************
                     * LOEWDIN POPULATION ANALYSIS *
                     *******************************

-----------------------------------------
LOEWDIN ATOMIC CHARGES AND SPIN DENSITIES
-----------------------------------------
   0 Ti:   -0.000000    2.000000

--------------------------------------------------
LOEWDIN REDUCED ORBITAL CHARGES AND SPIN DENSITIES
--------------------------------------------------
CHARGE
  0 Tis       :     7.866034  s :     7.866034
      pz      :     4.017564  p :    12.051572
      px      :     4.017564
      py      :     4.016445
      dz2     :     0.027765  d :     2.060665
      dxz     :     0.029977
      dyz     :     0.989794
      dx2y2   :     0.023330
      dxy     :     0.989798
      f0      :     0.001936  f :     0.020090
      f+1     :     0.001232
      f-1     :     0.003690
      f+2     :     0.002499
      f-2     :     0.004144
      f+3     :     0.003203
      f-3     :     0.003387
      g0      :     0.000142  g :     0.001639
      g+1     :     0.000100
      g-1     :     0.000207
      g+2     :     0.000152
      g-2     :     0.000214
      g+3     :     0.000208
      g-3     :     0.000209
      g+4     :     0.000204
      g-4     :     0.000203

SPIN
  0 Tis       :     0.011805  s :     0.011805
      pz      :     0.002843  p :     0.013273
      px      :     0.002843
      py      :     0.007587
      dz2     :     0.006810  d :     1.962151
      dxz     :     0.009997
      dyz     :     0.972457
      dx2y2   :     0.000426
      dxy     :     0.972461
      f0      :     0.000791  f :     0.011866
      f+1     :     0.000157
      f-1     :     0.002517
      f+2     :     0.001298
      f-2     :     0.002928
      f+3     :     0.001931
      f-3     :     0.002244
      g0      :     0.000061  g :     0.000905
      g+1     :     0.000015
      g-1     :     0.000124
      g+2     :     0.000072
      g-2     :     0.000120
      g+3     :     0.000133
      g-3     :     0.000123
      g+4     :     0.000129
      g-4     :     0.000128


                      *****************************
                      * MAYER POPULATION ANALYSIS *
                      *****************************

  NA   - Mulliken gross atomic population
  ZA   - Total nuclear charge
  QA   - Mulliken gross atomic charge
  VA   - Mayer's total valence
  BVA  - Mayer's bonded valence
  FA   - Mayer's free valence

  ATOM       NA         ZA         QA         VA         BVA        FA
  0 Ti    22.0000    22.0000    -0.0000     2.9460     0.0000     2.9460





------------------------------------------------------------------------------- 
                                     TIMINGS                                   
------------------------------------------------------------------------------- 


Total execution time                   ...        5.160 sec

Fock Matrix Formation                  ...        0.195 sec (  3.8%)
Initial Guess                          ...        0.005 sec (  0.1%)
DIIS Solver                            ...        0.230 sec (  4.5%)
State Vector Update                    ...        0.011 sec (  0.2%)
Sigma-vector construction              ...        3.718 sec ( 72.1%)
  <D|H|D>(0-ext Fock)                  ...        0.003 sec (  0.1% of sigma)
  <D|H|D>(0-ext)                       ...        0.005 sec (  0.1% of sigma)
  <D|H|D>(2-ext Fock)                  ...        0.003 sec (  0.1% of sigma)
  <D|H|D>(2-ext)                       ...        0.031 sec (  0.8% of sigma)
  <D|H|D>(4-ext)                       ...        1.482 sec ( 39.9% of sigma)
  <S|H|0>                              ...        0.055 sec (  1.5% of sigma)
  <S|H|S>                              ...        0.001 sec (  0.0% of sigma)
  <S|H|D>(1-ext)                       ...        0.001 sec (  0.0% of sigma)
  <D|H|S>(1-ext)                       ...        0.019 sec (  0.5% of sigma)
  Fock-dressing                        ...        1.444 sec ( 38.8% of sigma)
  (ik|jl)-dressing                     ...        0.007 sec (  0.2% of sigma)
  (ij|ab),(ia|jb)-dressing             ...        0.504 sec ( 13.6% of sigma)
  Pair energies                        ...        0.002 sec (  0.0% of sigma)
Total Time for computing (T)           ...        0.114 sec (  2.2% of ALL)
  I/O of integral and amplitudes       ...        0.030 sec ( 26.6% of (T))
  External N**7 contributions          ...        0.027 sec ( 23.9% of (T))
  Internal N**7 contributions          ...        0.011 sec (  9.5% of (T))
  N**6 triples energy contributions    ...        0.040 sec ( 35.5% of (T))

----- Orbital basis set information -----
Your calculation utilizes the basis: def2-QZVPP
   F. Weigend and R. Ahlrichs, Phys. Chem. Chem. Phys. 7, 3297 (2005).

----- AuxJ basis set information -----
Your calculation utilizes the auxiliary basis: def2/J
   F. Weigend, Phys. Chem. Chem. Phys. 8, 1057 (2006).

----- AuxC basis set information -----
Your calculation utilizes the auxiliary basis: def2-QZVPP/C
  H-La, Hf-Rn : A. Hellweg, C. Hattig, S. Hofener and W. Klopper, Theor. Chem. Acc. 117, 587 (2007).
        Ce-Lu : J. Chmela and M. E. Harding, Mol. Phys. (2018).

----- AuxJK basis set information -----
Your calculation utilizes the auxiliary basis: def2/JK
   H-Ba, Hf-Rn: F. Weigend, J. Comput. Chem. 29, 167 (2008).

All done

                     -----------------------------------------
                     Extrapolated Energy 2 Basis=  def2-QZVPP
                     -----------------------------------------

---------------------------------
CARTESIAN COORDINATES (ANGSTROEM)
---------------------------------
  Ti     0.000000    0.000000    0.000000

----------------------------
CARTESIAN COORDINATES (A.U.)
----------------------------
  NO LB      ZA    FRAG     MASS         X           Y           Z
   0 Ti   22.0000    0    47.900    0.000000    0.000000    0.000000

--------------------------------
INTERNAL COORDINATES (ANGSTROEM)
--------------------------------
 Ti     0   0   0     0.000000000000     0.00000000     0.00000000

---------------------------
INTERNAL COORDINATES (A.U.)
---------------------------
 Ti     0   0   0     0.000000000000     0.00000000     0.00000000

---------------------
BASIS SET INFORMATION
---------------------
There are 1 groups of distinct atoms

 Group   1 Type Ti  : 24s18p9d3f2g contracted to 11s6p5d3f2g pattern {114111111111/951111/51111/111/11}

Atom   0Ti   basis set group =>   1
---------------------------------
AUXILIARY/J BASIS SET INFORMATION
---------------------------------
There are 1 groups of distinct atoms

 Group   1 Type Ti  : 19s5p5d3f3g contracted to 8s5p5d2f3g pattern {121111111/11111/11111/21/111}

Atom   0Ti   basis set group =>   1
---------------------------------
AUXILIARY/C BASIS SET INFORMATION
---------------------------------
There are 1 groups of distinct atoms

 Group   1 Type Ti  : 15s13p11d8f7g5h2i contracted to 15s13p11d8f7g5h2i pattern {111111111111111/1111111111111/11111111111/11111111/1111111/11111/11}

Atom   0Ti   basis set group =>   1
----------------------------------
AUXILIARY/JK BASIS SET INFORMATION
----------------------------------
There are 1 groups of distinct atoms

 Group   1 Type Ti  : 19s14p12d10f7g3h1i contracted to 16s13p11d9f5g3h1i pattern {4111111111111111/2111111111111/21111111111/211111111/31111/111/1}

Atom   0Ti   basis set group =>   1

Checking for AutoStart:
The File: 62_Ti.gbw exists
Trying to determine its content:
     ... Fine, the file contains calculation information
     ... Fine, the calculation information was read
     ... Fine, the file contains a basis set
     ... Fine, the basis set was read
     ... Fine, the file contains a geometry
     ... Fine, the geometry was read
     ... Fine, the file contains a set of orbitals
     ... Fine, the orbitals can be read
     => possible old guess file was deleted
     => GBW file was renamed to GES file
     => GES file is set as startup file
     => Guess is set to MORead
     ... now leaving AutoStart



           ************************************************************
           *        Program running with 24 parallel MPI-processes    *
           *              working on a common directory               *
           ************************************************************
------------------------------------------------------------------------------
                           ORCA GTO INTEGRAL CALCULATION
------------------------------------------------------------------------------

                         BASIS SET STATISTICS AND STARTUP INFO

 # of primitive gaussian shells          ...   56
 # of primitive gaussian functions       ...  162
 # of contracted shells                  ...   27
 # of contracted basis functions         ...   93
 Highest angular momentum                ...    4
 Maximum contraction depth               ...   11
 Integral package used                   ... LIBINT
 Integral threshhold            Thresh   ...  1.000e-12
 Primitive cut-off              TCut     ...  1.000e-14


------------------------------ INTEGRAL EVALUATION ----------------------------


 * One electron integrals 
 Pre-screening matrix                    ... done
 Shell pair data                         ... done (   0.000 sec)



           ************************************************************
           *        Program running with 24 parallel MPI-processes    *
           *              working on a common directory               *
           ************************************************************
-------------------------------------------------------------------------------
                                 ORCA SCF
-------------------------------------------------------------------------------

------------
SCF SETTINGS
------------
Hamiltonian:
 Ab initio Hamiltonian  Method          .... Hartree-Fock(GTOs)


General Settings:
 Integral files         IntName         .... 62_Ti
 Hartree-Fock type      HFTyp           .... UHF
 Total Charge           Charge          ....    0
 Multiplicity           Mult            ....    3
 Number of Electrons    NEL             ....   22
 Basis Dimension        Dim             ....   93
 Nuclear Repulsion      ENuc            ....      0.0000000000 Eh

Convergence Acceleration:
 DIIS                   CNVDIIS         .... on
   Start iteration      DIISMaxIt       ....    12
   Startup error        DIISStart       ....  0.200000
   # of expansion vecs  DIISMaxEq       ....     5
   Bias factor          DIISBfac        ....   1.050
   Max. coefficient     DIISMaxC        ....  10.000
 Newton-Raphson         CNVNR           .... off
 SOSCF                  CNVSOSCF        .... off
 Level Shifting         CNVShift        .... on
   Level shift para.    LevelShift      ....    0.2500
   Turn off err/grad.   ShiftErr        ....    0.0010
 Zerner damping         CNVZerner       .... off
 Static damping         CNVDamp         .... on
   Fraction old density DampFac         ....    0.7000
   Max. Damping (<1)    DampMax         ....    0.9800
   Min. Damping (>=0)   DampMin         ....    0.0000
   Turn off err/grad.   DampErr         ....    0.1000
 Fernandez-Rico         CNVRico         .... off

SCF Procedure:
 Maximum # iterations   MaxIter         ....   125
 SCF integral mode      SCFMode         .... Direct
   Integral package                     .... LIBINT
 Reset frequency        DirectResetFreq ....    20
 Integral Threshold     Thresh          ....  1.000e-12 Eh
 Primitive CutOff       TCut            ....  1.000e-14 Eh

Convergence Tolerance:
 Convergence Check Mode ConvCheckMode   .... Total+1el-Energy
 Convergence forced     ConvForced      .... 1
 Energy Change          TolE            ....  1.000e-09 Eh
 1-El. energy change                    ....  1.000e-06 Eh
 DIIS Error             TolErr          ....  1.000e-08


Diagonalization of the overlap matrix:
Smallest eigenvalue                        ... 1.203e-03
Time for diagonalization                   ...    0.003 sec
Threshold for overlap eigenvalues          ... 1.000e-08
Number of eigenvalues below threshold      ... 0
Time for construction of square roots      ...    0.002 sec
Total time needed                          ...    0.004 sec

---------------------
INITIAL GUESS: MOREAD
---------------------
Guess MOs are being read from file: 62_Ti.ges
Input Geometry matches current geometry (good)
Atom 0: N(Shells)= 27 and 18 - projection required
Input basis set needs projection
NBasis(read)= 64
NBasis(calc)= 93
Basis set overlap was calculated
Using GuessMode=FMatrix for the initial guess
C*T matrix was formed
Effective Fockian was calculated
Effective Fockian was diagonalized
Initial density was built
C*T matrix was formed
Effective Fockian was calculated
Effective Fockian was diagonalized
Initial density was built
                      ------------------
                      INITIAL GUESS DONE (   0.0 sec)
                      ------------------
--------------
SCF ITERATIONS
--------------
ITER       Energy         Delta-E        Max-DP      RMS-DP      [F,P]     Damp
               ***  Starting incremental Fock matrix formation  ***
  0   -848.4000298145   0.000000000000 0.00702815  0.00016760  0.0493800 0.7000
  1   -848.4005359733  -0.000506158786 0.00499408  0.00012099  0.0345348 0.7000
                               ***Turning on DIIS***
  2   -848.4008941459  -0.000358172549 0.01176468  0.00028849  0.0241516 0.0000
  3   -848.4016490970  -0.000754951095 0.00421956  0.00004219  0.0005171 0.0000
  4   -848.4012545957   0.000394501206 0.00147950  0.00001427  0.0001421 0.0000
  5   -848.4018496398  -0.000595044088 0.00070981  0.00000703  0.0000403 0.0000
  6   -848.4016571225   0.000192517316 0.00019826  0.00000216  0.0000183 0.0000
  7   -848.4017363242  -0.000079201706 0.00003499  0.00000052  0.0000042 0.0000
  8   -848.4017462983  -0.000009974044 0.00003272  0.00000050  0.0000025 0.0000
  9   -848.4017456943   0.000000603922 0.00000998  0.00000033  0.0000012 0.0000
 10   -848.4017451023   0.000000592005 0.00000565  0.00000011  0.0000006 0.0000
 11   -848.4017446487   0.000000453618 0.00000011  0.00000000  0.0000006 0.0000
 12   -848.4017447360  -0.000000087317 0.00000007  0.00000000  0.0000006 0.0000
 13   -848.4017451348  -0.000000398802 0.00000116  0.00000001  0.0000006 0.0000
 14   -848.4017452755  -0.000000140652 0.00000041  0.00000001  0.0000006 0.0000
 15   -848.4017455829  -0.000000307363 0.00000122  0.00000004  0.0000006 0.0000
 16   -848.4017455101   0.000000072753 0.00000073  0.00000002  0.0000006 0.0000
 17   -848.4017454618   0.000000048309 0.00000035  0.00000001  0.0000006 0.0000
 18   -848.4017453813   0.000000080472 0.00000039  0.00000001  0.0000006 0.0000
 19   -848.4017452446   0.000000136710 0.00000065  0.00000002  0.0000006 0.0000
               *** Restarting incremental Fock matrix formation ***
                                   *** Resetting DIIS ***
 20   -848.4017454147  -0.000000170110 0.00000073  0.00000003  0.0000006 0.0000
 21   -848.4017454360  -0.000000021251 0.00000000  0.00000000  0.0000007 0.0000
                 **** Energy Check signals convergence ****

               *****************************************************
               *                     SUCCESS                       *
               *           SCF CONVERGED AFTER  22 CYCLES          *
               *****************************************************


----------------
TOTAL SCF ENERGY
----------------

Total Energy       :         -848.40174544 Eh          -23086.18517 eV

Components:
Nuclear Repulsion  :            0.00000000 Eh               0.00000 eV
Electronic Energy  :         -848.40174544 Eh          -23086.18517 eV
One Electron Energy:        -1162.78439594 Eh          -31640.97201 eV
Two Electron Energy:          314.38265051 Eh            8554.78684 eV

Virial components:
Potential Energy   :        -1696.78905615 Eh          -46171.97756 eV
Kinetic Energy     :          848.38731071 Eh           23085.79238 eV
Virial Ratio       :            2.00001701


---------------
SCF CONVERGENCE
---------------

  Last Energy change         ...    1.2278e-11  Tolerance :   1.0000e-09
  Last MAX-Density change    ...    2.0281e-12  Tolerance :   1.0000e-08
  Last RMS-Density change    ...    8.0335e-14  Tolerance :   1.0000e-09
  Last DIIS Error            ...    6.5447e-07  Tolerance :   1.0000e-08

             **** THE GBW FILE WAS UPDATED (62_Ti.gbw) ****
             **** DENSITY FILE WAS UPDATED (62_Ti.scfp) ****
             **** ENERGY FILE WAS UPDATED (62_Ti.en.tmp) ****
----------------------
UHF SPIN CONTAMINATION
----------------------

Expectation value of <S**2>     :     2.010094
Ideal value S*(S+1) for S=1.0   :     2.000000
Deviation                       :     0.010094

             **** THE GBW FILE WAS UPDATED (62_Ti.gbw) ****
             **** DENSITY FILE WAS UPDATED (62_Ti.scfp) ****
----------------
ORBITAL ENERGIES
----------------
                 SPIN UP ORBITALS
  NO   OCC          E(Eh)            E(eV) 
   0   1.0000    -183.276065     -4987.1953 
   1   1.0000     -21.442322      -583.4753 
   2   1.0000     -17.811373      -484.6721 
   3   1.0000     -17.811373      -484.6721 
   4   1.0000     -17.809634      -484.6248 
   5   1.0000      -2.938512       -79.9610 
   6   1.0000      -1.905776       -51.8588 
   7   1.0000      -1.860706       -50.6324 
   8   1.0000      -1.860706       -50.6324 
   9   1.0000      -0.436896       -11.8886 
  10   1.0000      -0.436896       -11.8886 
  11   1.0000      -0.232438        -6.3249 
  12   0.0000       0.021413         0.5827 
[...]
       12474 b        0 skpd     0.018 s (  0.001 ms/b)
<sg|**>:         8316 b        0 skpd     0.031 s (  0.004 ms/b)
<pp|**>:         7938 b        0 skpd     0.059 s (  0.007 ms/b)
<pd|**>:        11340 b        0 skpd     0.081 s (  0.007 ms/b)
<pf|**>:         6804 b        0 skpd     0.026 s (  0.004 ms/b)
<pg|**>:         4536 b        0 skpd     0.049 s (  0.011 ms/b)
<dd|**>:         5670 b        0 skpd     0.076 s (  0.013 ms/b)
<df|**>:         5670 b        0 skpd     0.032 s (  0.006 ms/b)
<dg|**>:         3780 b        0 skpd     0.050 s (  0.013 ms/b)
<ff|**>:         2268 b        0 skpd     0.017 s (  0.008 ms/b)
<fg|**>:         2268 b        0 skpd     0.025 s (  0.011 ms/b)
<gg|**>:         1134 b        0 skpd     0.040 s (  0.035 ms/b)
Closing buffer AOJ[aa] ( 0.00 GB; CompressionRatio= 0.95)
Closing buffer AOJ[bb] ( 0.00 GB; CompressionRatio= 0.00)
Collecting buffer AOJ 
    ... done with AO integral generation
Number of Alpha-MO pairs included          ...   28
Number of Beta-MO pairs included           ...   15
    ... Now sorting integrals
SORTING ALPHA/ALPHA PAIRS
IBATCH = 1 of  1
Closing buffer JAO[aa] ( 0.00 GB; CompressionRatio= 1.00)
SORTING BETA/BETA PAIRS
IBATCH = 1 of  1
Closing buffer JAO[bb] ( 0.00 GB; CompressionRatio= 1.00)
Collecting buffer JAO 
TOTAL TIME for half transformation         ...     0.608 sec
AO-integral generation                     ...     0.584 sec
Half transformation                        ...     0.008 sec
J-integral sorting                         ...     0.010 sec

-------------------------- SECOND HALF TRANSFORMATION -------------------------
Formation of (ij|kl),(ij|ka), (ij|ab)      ... ok (     0.024 sec)
Formation of (ik|jl),(ik|ja), (ia|jb)      ... ok (     0.035 sec)


-----------------------
SPIN UNRESTRICTED GUESS
-----------------------

Entering MDCI_UHF_Guess, Tailored=0
Spin-components of the MP2 energy:
EMP2(aa)=     -0.055255732
EMP2(bb)=     -0.032699836
EMP2(ab)=     -0.228629271

Initial guess performed in     0.010 sec
E(0)                                       ...   -848.401745415
E(MP2)                                     ...     -0.316584839
Initial E(tot)                             ...   -848.718330254
<T|T>                                      ...      0.092125108
Number of pairs included                   ... 66

------------------------------------------------
                  UHF COUPLED CLUSTER ITERATIONS
------------------------------------------------

Number of amplitudes to be optimized       ...       339115

Iter       E(tot)           E(Corr)          Delta-E          Residual     Time      <S|S>**1/2
  0   -848.718330254     -0.316584839     -0.000000000      0.016784116    0.78      0.000003823
                           *** Turning on DIIS ***
  1   -848.734696208     -0.332950793     -0.016365954      0.007055807    0.82      0.031848749
  2   -848.742728179     -0.340982764     -0.008031971      0.004470120    0.81      0.049517710
  3   -848.744881563     -0.343136148     -0.002153384      0.003386061    0.81      0.061961558
  4   -848.746168957     -0.344423542     -0.001287394      0.002332874    0.81      0.071701385
  5   -848.746589161     -0.344843747     -0.000420204      0.001487540    0.82      0.075530968
  6   -848.746670320     -0.344924905     -0.000081158      0.000724980    0.82      0.075628363
  7   -848.746695808     -0.344950394     -0.000025489      0.000163350    0.87      0.074758570
  8   -848.746690405     -0.344944991      0.000005403      0.000060237    0.84      0.074248223
  9   -848.746699721     -0.344954307     -0.000009316      0.000040734    0.82      0.074141853
 10   -848.746700603     -0.344955188     -0.000000882      0.000021880    0.82      0.074116167
 11   -848.746702210     -0.344956796     -0.000001607      0.000013658    0.84      0.074155763
 12   -848.746701728     -0.344956313      0.000000483      0.000010223    0.82      0.074171467
 13   -848.746701139     -0.344955724      0.000000589      0.000007675    0.83      0.074174912
 14   -848.746700657     -0.344955242      0.000000483      0.000005326    0.81      0.074173805
 15   -848.746700637     -0.344955222      0.000000020      0.000002071    0.82      0.074176091
 16   -848.746700843     -0.344955428     -0.000000206      0.000000740    0.81      0.074178799
               --- The Coupled-Cluster iterations have converged ---

----------------------
COUPLED CLUSTER ENERGY
----------------------

E(0)                                       ...   -848.401745415
E(CORR)                                    ...     -0.344955428
E(TOT)                                     ...   -848.746700843
Singles norm <S|S>**1/2                    ...      0.074178799 ( 0.039777839, 0.034400961)  
T1 diagnostic                              ...      0.021413575                              

------------------
LARGEST AMPLITUDES
------------------
  11a-> 12a   9b-> 11b       0.072394
  11a-> 13a   9b-> 10b       0.072394
   9b-> 13b  -1b-> -1b       0.070219
  11a-> 14a   9b-> 12b       0.061644
  11a-> 12a   9b-> 17b       0.059512
  11a-> 13a   9b-> 16b       0.059512
  11a-> 19a   9b-> 10b       0.057790
  11a-> 18a   9b-> 11b       0.057790
  11a-> 14a   9b-> 21b       0.055739
  11a-> 20a   9b-> 12b       0.049823
  11a-> 19a   9b-> 16b       0.048965
  11a-> 18a   9b-> 17b       0.048965
  11a-> 20a   9b-> 21b       0.046520
  11a-> 15a  -1a-> -1a       0.044060
   9b-> 30b  -1b-> -1b       0.041379
  10a-> 24a   9a-> 25a       0.039541

----------------------
UHF TRIPLES CORRECTION (Algorithm 1)
----------------------

Multiplier for the singles contribution    ...      1.000000000

SPIN-CASE Alpha-Alpha-Alpha:
10% done
20% done
30% done
40% done
50% done
60% done
70% done
80% done
90% done


SPIN-CASE Beta-Beta-Beta:
10% done
20% done
30% done
40% done
50% done
60% done
70% done
80% done
90% done


SPIN-CASE Alpha-Alpha-Beta:
10% done
20% done
30% done
40% done
50% done
60% done
70% done
80% done
90% done


SPIN-CASE Beta-Beta-Alpha:
10% done
20% done
30% done
40% done
50% done
60% done
70% done
80% done
90% done


Triples Correction (T)                     ...     -0.012748094
    alpha-alpha-alpha ... -0.000782979 (  6.1%)
    alpha-alpha-beta  ... -0.007397517 ( 58.0%)
    alpha-beta -beta  ... -0.004357044 ( 34.2%)
    beta -beta -beta  ... -0.000210554 (  1.7%)
Scaling of triples based on CCSD energies (Peterson et al. Molecular Physics 113, 1551 (2015))
E(T*) = f*E(T) where f = E(F12-CCSD)/E(CCSD) 
f = CCSD (with F12)/ CCSD (without F12)    ...      1.000000000
Scaled triples correction (T)              ...     -0.012748094

Final correlation energy                   ...     -0.357703522
E(CCSD)                                    ...   -848.746700843
E(CCSD(T))                                 ...   -848.759448937



        !!!!!!!!!!!!!!!!!!!!!!!!!!!!!!!!!!!!!!!!!!!!!!!!!!!!!!!!!!!!!!!!!!!!!!!!!! 
        !  Warning: Densities are linearized densities                           !
        !!!!!!!!!!!!!!!!!!!!!!!!!!!!!!!!!!!!!!!!!!!!!!!!!!!!!!!!!!!!!!!!!!!!!!!!!! 

NORM  =      1.147490830 sqrt=     1.071209984
W(HF) =      0.871466659
------------------------------------------------------------------------------
                           ORCA POPULATION ANALYSIS
------------------------------------------------------------------------------
Input electron density              ... 62_Ti.mdcip
Input spin density                  ... 62_Ti.mdcir
BaseName (.gbw .S,...)              ... 62_Ti

                    ********************************
                    * MULLIKEN POPULATION ANALYSIS *
                    ********************************

------------------------------------------
MULLIKEN ATOMIC CHARGES AND SPIN DENSITIES
------------------------------------------
   0 Ti:   -0.000000    2.000000
Sum of atomic charges       :   -0.0000000
Sum of atomic spin densities:    2.0000000

---------------------------------------------------
MULLIKEN REDUCED ORBITAL CHARGES AND SPIN DENSITIES
---------------------------------------------------
CHARGE
  0 Tis       :     7.868279  s :     7.868279
      pz      :     4.015420  p :    12.045213
      px      :     4.015420
      py      :     4.014372
      dz2     :     0.027235  d :     2.061015
      dxz     :     0.029171
      dyz     :     0.990626
      dx2y2   :     0.023353
      dxy     :     0.990630
      f0      :     0.002238  f :     0.022705
      f+1     :     0.001485
      f-1     :     0.004127
      f+2     :     0.002841
      f-2     :     0.004624
      f+3     :     0.003594
      f-3     :     0.003796
      g0      :     0.000250  g :     0.002788
      g+1     :     0.000190
      g-1     :     0.000348
      g+2     :     0.000265
      g-2     :     0.000362
      g+3     :     0.000342
      g-3     :     0.000352
      g+4     :     0.000340
      g-4     :     0.000338

SPIN
  0 Tis       :     0.011563  s :     0.011563
      pz      :     0.002875  p :     0.013332
      px      :     0.002875
      py      :     0.007582
      dz2     :     0.005965  d :     1.961113
      dxz     :     0.008890
      dyz     :     0.973074
      dx2y2   :     0.000106
      dxy     :     0.973078
      f0      :     0.000843  f :     0.012683
      f+1     :     0.000164
      f-1     :     0.002693
      f+2     :     0.001386
      f-2     :     0.003133
      f+3     :     0.002065
      f-3     :     0.002399
      g0      :     0.000089  g :     0.001309
      g+1     :     0.000022
      g-1     :     0.000180
      g+2     :     0.000104
      g-2     :     0.000173
      g+3     :     0.000192
      g-3     :     0.000178
      g+4     :     0.000187
      g-4     :     0.000185


                     *******************************
                     * LOEWDIN POPULATION ANALYSIS *
                     *******************************

-----------------------------------------
LOEWDIN ATOMIC CHARGES AND SPIN DENSITIES
-----------------------------------------
   0 Ti:   -0.000000    2.000000

--------------------------------------------------
LOEWDIN REDUCED ORBITAL CHARGES AND SPIN DENSITIES
--------------------------------------------------
CHARGE
  0 Tis       :     7.868279  s :     7.868279
      pz      :     4.015420  p :    12.045213
      px      :     4.015420
      py      :     4.014372
      dz2     :     0.027235  d :     2.061015
      dxz     :     0.029171
      dyz     :     0.990626
      dx2y2   :     0.023353
      dxy     :     0.990630
      f0      :     0.002238  f :     0.022705
      f+1     :     0.001485
      f-1     :     0.004127
      f+2     :     0.002841
      f-2     :     0.004624
      f+3     :     0.003594
      f-3     :     0.003796
      g0      :     0.000250  g :     0.002788
      g+1     :     0.000190
      g-1     :     0.000348
      g+2     :     0.000265
      g-2     :     0.000362
      g+3     :     0.000342
      g-3     :     0.000352
      g+4     :     0.000340
      g-4     :     0.000338

SPIN
  0 Tis       :     0.011563  s :     0.011563
      pz      :     0.002875  p :     0.013332
      px      :     0.002875
      py      :     0.007582
      dz2     :     0.005965  d :     1.961113
      dxz     :     0.008890
      dyz     :     0.973074
      dx2y2   :     0.000106
      dxy     :     0.973078
      f0      :     0.000843  f :     0.012683
      f+1     :     0.000164
      f-1     :     0.002693
      f+2     :     0.001386
      f-2     :     0.003133
      f+3     :     0.002065
      f-3     :     0.002399
      g0      :     0.000089  g :     0.001309
      g+1     :     0.000022
      g-1     :     0.000180
      g+2     :     0.000104
      g-2     :     0.000173
      g+3     :     0.000192
      g-3     :     0.000178
      g+4     :     0.000187
      g-4     :     0.000185


                      *****************************
                      * MAYER POPULATION ANALYSIS *
                      *****************************

  NA   - Mulliken gross atomic population
  ZA   - Total nuclear charge
  QA   - Mulliken gross atomic charge
  VA   - Mayer's total valence
  BVA  - Mayer's bonded valence
  FA   - Mayer's free valence

  ATOM       NA         ZA         QA         VA         BVA        FA
  0 Ti    22.0000    22.0000    -0.0000     2.9401     0.0000     2.9401





------------------------------------------------------------------------------- 
                                     TIMINGS                                   
------------------------------------------------------------------------------- 


Total execution time                   ...       17.197 sec

Fock Matrix Formation                  ...        0.374 sec (  2.2%)
Initial Guess                          ...        0.010 sec (  0.1%)
DIIS Solver                            ...        0.535 sec (  3.1%)
State Vector Update                    ...        0.026 sec (  0.1%)
Sigma-vector construction              ...       13.393 sec ( 77.9%)
  <0|H|D>                              ...        0.001 sec (  0.0% of sigma)
  <D|H|D>(0-ext Fock)                  ...        0.006 sec (  0.0% of sigma)
  <D|H|D>(0-ext)                       ...        0.014 sec (  0.1% of sigma)
  <D|H|D>(2-ext Fock)                  ...        0.003 sec (  0.0% of sigma)
  <D|H|D>(2-ext)                       ...        0.083 sec (  0.6% of sigma)
  <D|H|D>(4-ext)                       ...        7.299 sec ( 54.5% of sigma)
  <S|H|0>                              ...        0.186 sec (  1.4% of sigma)
  <S|H|S>                              ...        0.002 sec (  0.0% of sigma)
  <S|H|D>(1-ext)                       ...        0.002 sec (  0.0% of sigma)
  <D|H|S>(1-ext)                       ...        0.045 sec (  0.3% of sigma)
  Fock-dressing                        ...        4.105 sec ( 30.6% of sigma)
  (ik|jl)-dressing                     ...        0.017 sec (  0.1% of sigma)
  (ij|ab),(ia|jb)-dressing             ...        1.282 sec (  9.6% of sigma)
  Pair energies                        ...        0.003 sec (  0.0% of sigma)
Total Time for computing (T)           ...        0.661 sec (  3.8% of ALL)
  I/O of integral and amplitudes       ...        0.213 sec ( 32.2% of (T))
  External N**7 contributions          ...        0.146 sec ( 22.2% of (T))
  Internal N**7 contributions          ...        0.072 sec ( 11.0% of (T))
  N**6 triples energy contributions    ...        0.180 sec ( 27.2% of (T))


-------------------
EXTRAPOLATED ENERGY
-------------------


-----------------------------------------------------------------
                      EP1 - MDCI extrapolation:
-----------------------------------------------------------------
NOTE: We use as reference SCF energy, for the extrapolation, the one from the MDCI module and not the one 
from the SCF calculation. In case the first step is a DFT calculation these two might be different.

NOTE: For the SCF part we extrapolate based on the scheme proposed in J. Chem. Phys. 2008, 129, 184116
using the exponents from J. Chem. Theory Comput., 7, 33-43 (2011)

NOTE: For the correlation part we extrapolate based on the scheme proposed in J. Chem. Phys. 1997, 106, 9639
using the exponents from J. Chem. Theory Comput., 7, 33-43 (2011)


Alpha(3/4)     :  7.880 (SCF Extrapolation)
Beta(3/4)      :  2.970 (correlation extrapolation)

SCF energy with basis def2-TZVPP:                      -848.385569062
SCF energy with basis def2-QZVPP:                      -848.401745415
Extrapolated CBS SCF energy (3/4) :                    -848.403973524 (-0.002228110) 

MDCI energy with basis def2-TZVPP:                       -0.331129416
MDCI energy with basis def2-QZVPP:                       -0.357703522
Extrapolated CBS correlation energy (3/4) :              -0.377388030 (-0.019684508)

Estimated CBS total energy (3/4) :                     -848.781361555



-------------------------   --------------------
FINAL SINGLE POINT ENERGY      -848.781361554557
-------------------------   --------------------


                            ***************************************
                            *     ORCA property calculations      *
                            ***************************************

                                    ---------------------
                                    Active property flags
                                    ---------------------
   (+) Dipole Moment


------------------------------------------------------------------------------
                       ORCA ELECTRIC PROPERTIES CALCULATION
------------------------------------------------------------------------------

Dipole Moment Calculation                       ... on
Quadrupole Moment Calculation                   ... off
Polarizability Calculation                      ... off
GBWName                                         ... 62_Ti.gbw
Electron density file                           ... 62_Ti.scfp
The origin for moment calculation is the CENTER OF MASS  = ( 0.000000,  0.000000  0.000000)

-------------
DIPOLE MOMENT
-------------
                                X             Y             Z
Electronic contribution:      0.00000       0.00000       0.00000
Nuclear contribution   :      0.00000       0.00000       0.00000
                        -----------------------------------------
Total Dipole Moment    :      0.00000       0.00000       0.00000
                        -----------------------------------------
Magnitude (a.u.)       :      0.00000
Magnitude (Debye)      :      0.00000



--------------------
Rotational spectrum 
--------------------
 
Rotational constants in cm-1:     0.000000     0.000000     0.000000 
Rotational constants in MHz :     0.000000     0.000000     0.000000 

 Dipole components along the rotational axes: 
x,y,z [a.u.] :     0.000000     0.000000     0.000000 
x,y,z [Debye]:     0.000000     0.000000     0.000000 

 

                           *** MDCI DENSITY ***

------------------------------------------------------------------------------
                       ORCA ELECTRIC PROPERTIES CALCULATION
------------------------------------------------------------------------------

Dipole Moment Calculation                       ... on
Quadrupole Moment Calculation                   ... off
Polarizability Calculation                      ... off
GBWName                                         ... 62_Ti.gbw
Electron density file                           ... 62_Ti.mdcip
The origin for moment calculation is the CENTER OF MASS  = ( 0.000000,  0.000000  0.000000)

-------------
DIPOLE MOMENT
-------------
                                X             Y             Z
Electronic contribution:     -0.00000      -0.00000      -0.00000
Nuclear contribution   :      0.00000       0.00000       0.00000
                        -----------------------------------------
Total Dipole Moment    :     -0.00000      -0.00000      -0.00000
                        -----------------------------------------
Magnitude (a.u.)       :      0.00000
Magnitude (Debye)      :      0.00000



--------------------
Rotational spectrum 
--------------------
 
Rotational constants in cm-1:     0.000000     0.000000     0.000000 
Rotational constants in MHz :     0.000000     0.000000     0.000000 

 Dipole components along the rotational axes: 
x,y,z [a.u.] :    -0.000000    -0.000000    -0.000000 
x,y,z [Debye]:    -0.000000    -0.000000    -0.000000 

 

Timings for individual modules:

Sum of individual times         ...       36.069 sec (=   0.601 min)
GTO integral calculation        ...        1.833 sec (=   0.031 min)   5.1 %
SCF iterations                  ...       10.633 sec (=   0.177 min)  29.5 %
MDCI module                     ...       23.604 sec (=   0.393 min)  65.4 %
                             ****ORCA TERMINATED NORMALLY****
TOTAL RUN TIME: 0 days 0 hours 0 minutes 37 seconds 127 msec
