
                                 *****************
                                 * O   R   C   A *
                                 *****************

           --- An Ab Initio, DFT and Semiempirical electronic structure package ---

                  #######################################################
                  #                        -***-                        #
                  #          Department of theory and spectroscopy      #
                  #               Directorship: Frank Neese             #
                  #        Max Planck Institute fuer Kohlenforschung    #
                  #                Kaiser Wilhelm Platz 1               #
                  #                 D-45470 Muelheim/Ruhr               #
                  #                      Germany                        #
                  #                                                     #
                  #                  All rights reserved                #
                  #                        -***-                        #
                  #######################################################


                         Program Version 4.2.0 -  RELEASE  -


 With contributions from (in alphabetic order):
   Daniel Aravena         : Magnetic Suceptibility
   Michael Atanasov       : Ab Initio Ligand Field Theory (pilot matlab implementation)
   Alexander A. Auer      : GIAO ZORA, VPT2
   Ute Becker             : Parallelization
   Giovanni Bistoni       : ED, misc. LED, open-shell LED, HFLED
   Martin Brehm           : Molecular dynamics
   Dmytro Bykov           : SCF Hessian
   Vijay G. Chilkuri      : MRCI spin determinant printing, contributions to CSF-ICE
   Dipayan Datta          : RHF DLPNO-CCSD density
   Achintya Kumar Dutta   : EOM-CC, STEOM-CC
   Dmitry Ganyushin       : Spin-Orbit,Spin-Spin,Magnetic field MRCI
   Miquel Garcia          : C-PCM Hessian, Gaussian charge scheme
   Yang Guo               : DLPNO-NEVPT2, CIM, IAO-localization
   Andreas Hansen         : Spin unrestricted coupled pair/coupled cluster methods
   Benjamin Helmich-Paris : CASSCF linear response (MC-RPA)
   Lee Huntington         : MR-EOM, pCC
   Robert Izsak           : Overlap fitted RIJCOSX, COSX-SCS-MP3, EOM
   Christian Kollmar      : KDIIS, OOCD, Brueckner-CCSD(T), CCSD density
   Simone Kossmann        : Meta GGA functionals, TD-DFT gradient, OOMP2, MP2 Hessian
   Martin Krupicka        : AUTO-CI
   Lucas Lang             : DCDCAS
   Dagmar Lenk            : GEPOL surface, SMD
   Dimitrios Liakos       : Extrapolation schemes; Compound Job, initial MDCI parallelization
   Dimitrios Manganas     : Further ROCIS development; embedding schemes
   Dimitrios Pantazis     : SARC Basis sets
   Taras Petrenko         : DFT Hessian,TD-DFT gradient, ASA, ECA, R-Raman, ABS, FL, XAS/XES, NRVS
   Peter Pinski           : DLPNO-MP2, DLPNO-MP2 Gradient
   Christoph Reimann      : Effective Core Potentials
   Marius Retegan         : Local ZFS, SOC
   Christoph Riplinger    : Optimizer, TS searches, QM/MM, DLPNO-CCSD(T), (RO)-DLPNO pert. Triples
   Tobias Risthaus        : Range-separated hybrids, TD-DFT gradient, RPA, STAB
   Michael Roemelt        : Original ROCIS implementation
   Masaaki Saitow         : Open-shell DLPNO-CCSD energy and density
   Barbara Sandhoefer     : DKH picture change effects
   Avijit Sen             : IP-ROCIS
   Kantharuban Sivalingam : CASSCF convergence, NEVPT2, FIC-MRCI
   Bernardo de Souza      : ESD, SOC TD-DFT
   Georgi Stoychev        : AutoAux, RI-MP2 NMR
   Willem Van den Heuvel  : Paramagnetic NMR
   Boris Wezisla          : Elementary symmetry handling
   Frank Wennmohs         : Technical directorship


 We gratefully acknowledge several colleagues who have allowed us to
 interface, adapt or use parts of their codes:
   Stefan Grimme, W. Hujo, H. Kruse,             : VdW corrections, initial TS optimization,
                  C. Bannwarth                     DFT functionals, gCP, sTDA/sTD-DF
   Ed Valeev, F. Pavosevic, A. Kumar             : LibInt (2-el integral package), F12 methods
   Garnet Chan, S. Sharma, J. Yang, R. Olivares  : DMRG
   Ulf Ekstrom                                   : XCFun DFT Library
   Mihaly Kallay                                 : mrcc  (arbitrary order and MRCC methods)
   Andreas Klamt, Michael Diedenhofen            : otool_cosmo (COSMO solvation model)
   Jiri Pittner, Ondrej Demel                    : Mk-CCSD
   Frank Weinhold                                : gennbo (NPA and NBO analysis)
   Christopher J. Cramer and Donald G. Truhlar   : smd solvation model
   Lars Goerigk                                  : TD-DFT with DH, B97 family of functionals
   V. Asgeirsson, H. Jonsson                     : NEB implementation
   FAccTs GmbH                                   : IRC, NEB, NEB-TS, Multilevel, MM, QM/MM, CI optimization
   S Lehtola, MJT Oliveira, MAL Marques          : LibXC Library


 Your calculation uses the libint2 library for the computation of 2-el integrals
 For citations please refer to: http://libint.valeyev.net

 Your ORCA version has been built with support for libXC version: 4.2.3
 For citations please refer to: https://tddft.org/programs/libxc/

 This ORCA versions uses:
   CBLAS   interface :  Fast vector & matrix operations
   LAPACKE interface :  Fast linear algebra routines
   SCALAPACK package :  Parallel linear algebra routines


----- Orbital basis set information -----
Your calculation utilizes the basis: def2-TZVPP
   F. Weigend and R. Ahlrichs, Phys. Chem. Chem. Phys. 7, 3297 (2005).

================================================================================
                                        WARNINGS
                       Please study these warnings very carefully!
================================================================================


WARNING: your system is open-shell and RHF/RKS was chosen
  ===> : WILL SWITCH to UHF/UKS


WARNING: MDCI localization with Augmented Hessian Foster-Boys
  ===> : Switching off randomization!

WARNING: Post HF methods need fully converged wavefunctions
  ===> : Setting SCFConvForced true
         You can overwrite this default with %scf ConvForced false 


INFO   : the flag for use of LIBINT has been found!

================================================================================
                                       INPUT FILE
================================================================================
NAME = 64_Cr.in
|  1> #
|  2> # 64_Cr ccsd(t)/cbs
|  3> #
|  4> ! ccsd(t) extrapolate(3/4,def2) verytightscf
|  5> 
|  6> *xyz 0 7
|  7> Cr 0.0 0.0 0.0
|  8> *
|  9> 
| 10> %maxcore 5000
| 11> %pal
| 12> nprocs 24
| 13> end
| 14> 
| 15> 
| 16>                          ****END OF INPUT****
================================================================================

                   *****************************************
                   * Extrapolated Single Point Calculation *
                   *****************************************

----- Orbital basis set information -----
Your calculation utilizes the basis: def2-TZVPP
   F. Weigend and R. Ahlrichs, Phys. Chem. Chem. Phys. 7, 3297 (2005).

----- AuxJ basis set information -----
Your calculation utilizes the auxiliary basis: def2/J
   F. Weigend, Phys. Chem. Chem. Phys. 8, 1057 (2006).

----- AuxC basis set information -----
Your calculation utilizes the auxiliary basis: def2-TZVPP/C
  H-La, Hf-Rn : A. Hellweg, C. Hattig, S. Hofener and W. Klopper, Theor. Chem. Acc. 117, 587 (2007).
        Ce-Lu : J. Chmela and M. E. Harding, Mol. Phys. (2018).

----- AuxJK basis set information -----
Your calculation utilizes the auxiliary basis: def2/JK
   H-Ba, Hf-Rn: F. Weigend, J. Comput. Chem. 29, 167 (2008).

All done

                     -----------------------------------------
                     Extrapolated Energy 1 Basis=  def2-TZVPP
                     -----------------------------------------

---------------------------------
CARTESIAN COORDINATES (ANGSTROEM)
---------------------------------
  Cr     0.000000    0.000000    0.000000

----------------------------
CARTESIAN COORDINATES (A.U.)
----------------------------
  NO LB      ZA    FRAG     MASS         X           Y           Z
   0 Cr   24.0000    0    52.000    0.000000    0.000000    0.000000

--------------------------------
INTERNAL COORDINATES (ANGSTROEM)
--------------------------------
 Cr     0   0   0     0.000000000000     0.00000000     0.00000000

---------------------------
INTERNAL COORDINATES (A.U.)
---------------------------
 Cr     0   0   0     0.000000000000     0.00000000     0.00000000

---------------------
BASIS SET INFORMATION
---------------------
There are 1 groups of distinct atoms

 Group   1 Type Cr  : 17s12p7d2f1g contracted to 6s5p4d2f1g pattern {842111/63111/4111/11/1}

Atom   0Cr   basis set group =>   1
---------------------------------
AUXILIARY/J BASIS SET INFORMATION
---------------------------------
There are 1 groups of distinct atoms

 Group   1 Type Cr  : 19s5p5d3f3g contracted to 8s5p5d2f3g pattern {121111111/11111/11111/21/111}

Atom   0Cr   basis set group =>   1
---------------------------------
AUXILIARY/C BASIS SET INFORMATION
---------------------------------
There are 1 groups of distinct atoms

 Group   1 Type Cr  : 9s9p8d7f5g3h1i contracted to 9s9p8d7f5g3h1i pattern {111111111/111111111/11111111/1111111/11111/111/1}

Atom   0Cr   basis set group =>   1
----------------------------------
AUXILIARY/JK BASIS SET INFORMATION
----------------------------------
There are 1 groups of distinct atoms

 Group   1 Type Cr  : 19s14p12d10f7g3h1i contracted to 16s13p11d9f5g3h1i pattern {4111111111111111/2111111111111/21111111111/211111111/31111/111/1}

Atom   0Cr   basis set group =>   1


           ************************************************************
           *        Program running with 24 parallel MPI-processes    *
           *              working on a common directory               *
           ************************************************************
------------------------------------------------------------------------------
                           ORCA GTO INTEGRAL CALCULATION
------------------------------------------------------------------------------

                         BASIS SET STATISTICS AND STARTUP INFO

 # of primitive gaussian shells          ...   39
 # of primitive gaussian functions       ...  111
 # of contracted shells                  ...   18
 # of contracted basis functions         ...   64
 Highest angular momentum                ...    4
 Maximum contraction depth               ...    8
 Integral package used                   ... LIBINT
 Integral threshhold            Thresh   ...  1.000e-12
 Primitive cut-off              TCut     ...  1.000e-14


------------------------------ INTEGRAL EVALUATION ----------------------------


 * One electron integrals 
 Pre-screening matrix                    ... done
 Shell pair data                         ... done (   0.000 sec)



           ************************************************************
           *        Program running with 24 parallel MPI-processes    *
           *              working on a common directory               *
           ************************************************************
-------------------------------------------------------------------------------
                                 ORCA SCF
-------------------------------------------------------------------------------

------------
SCF SETTINGS
------------
Hamiltonian:
 Ab initio Hamiltonian  Method          .... Hartree-Fock(GTOs)


General Settings:
 Integral files         IntName         .... 64_Cr
 Hartree-Fock type      HFTyp           .... UHF
 Total Charge           Charge          ....    0
 Multiplicity           Mult            ....    7
 Number of Electrons    NEL             ....   24
 Basis Dimension        Dim             ....   64
 Nuclear Repulsion      ENuc            ....      0.0000000000 Eh

Convergence Acceleration:
 DIIS                   CNVDIIS         .... on
   Start iteration      DIISMaxIt       ....    12
   Startup error        DIISStart       ....  0.200000
   # of expansion vecs  DIISMaxEq       ....     5
   Bias factor          DIISBfac        ....   1.050
   Max. coefficient     DIISMaxC        ....  10.000
 Newton-Raphson         CNVNR           .... off
 SOSCF                  CNVSOSCF        .... off
 Level Shifting         CNVShift        .... on
   Level shift para.    LevelShift      ....    0.2500
   Turn off err/grad.   ShiftErr        ....    0.0010
 Zerner damping         CNVZerner       .... off
 Static damping         CNVDamp         .... on
   Fraction old density DampFac         ....    0.7000
   Max. Damping (<1)    DampMax         ....    0.9800
   Min. Damping (>=0)   DampMin         ....    0.0000
   Turn off err/grad.   DampErr         ....    0.1000
 Fernandez-Rico         CNVRico         .... off

SCF Procedure:
 Maximum # iterations   MaxIter         ....   125
 SCF integral mode      SCFMode         .... Direct
   Integral package                     .... LIBINT
 Reset frequency        DirectResetFreq ....    20
 Integral Threshold     Thresh          ....  1.000e-12 Eh
 Primitive CutOff       TCut            ....  1.000e-14 Eh

Convergence Tolerance:
 Convergence Check Mode ConvCheckMode   .... Total+1el-Energy
 Convergence forced     ConvForced      .... 1
 Energy Change          TolE            ....  1.000e-09 Eh
 1-El. energy change                    ....  1.000e-06 Eh
 DIIS Error             TolErr          ....  1.000e-08


Diagonalization of the overlap matrix:
Smallest eigenvalue                        ... 5.457e-02
Time for diagonalization                   ...    0.020 sec
Threshold for overlap eigenvalues          ... 1.000e-08
Number of eigenvalues below threshold      ... 0
Time for construction of square roots      ...    0.001 sec
Total time needed                          ...    0.021 sec

-------------------
DFT GRID GENERATION
-------------------

General Integration Accuracy     IntAcc      ...  4.340
Radial Grid Type                 RadialGrid  ... Gauss-Chebyshev
Angular Grid (max. acc.)         AngularGrid ... Lebedev-110
Angular grid pruning method      GridPruning ... 3 (G Style)
Weight generation scheme         WeightScheme... Becke
Basis function cutoff            BFCut       ...    1.0000e-12
Integration weight cutoff        WCut        ...    1.0000e-14
Grids for H and He will be reduced by one unit

# of grid points (after initial pruning)     ...   2972 (   0.0 sec)
# of grid points (after weights+screening)   ...   2972 (   0.0 sec)
Grid point division into batches done        ...    0.0 sec
Reduced shell lists constructed in    0.0 sec

Total number of grid points                  ...     2972
Total number of batches                      ...       47
Average number of points per batch           ...       63
Average number of grid points per atom       ...     2972
Average number of shells per batch           ...     4.67 (25.93%)
Average number of basis functions per batch  ...    14.00 (21.88%)
Average number of large shells per batch     ...     4.00 (85.71%)
Average number of large basis fcns per batch ...    12.00 (85.71%)
Maximum spatial batch extension              ...  18.71, 28.73, 28.73 au
Average spatial batch extension              ...   0.80,  1.22,  1.22 au

Time for grid setup =    0.020 sec

------------------------------
INITIAL GUESS: MODEL POTENTIAL
------------------------------
Loading Hartree-Fock densities                     ... done
Calculating cut-offs                               ... done
Setting up the integral package                    ... done
Initializing the effective Hamiltonian             ... done
Starting the Coulomb interaction                   ... done (   0.0 sec)
Reading the grid                                   ... done
Mapping shells                                     ... done
Starting the XC term evaluation                    ... done (   0.0 sec)
Transforming the Hamiltonian                       ... done (   0.0 sec)
Diagonalizing the Hamiltonian                      ... done (   0.0 sec)
Back transforming the eigenvectors                 ... done (   0.0 sec)
Now organizing SCF variables                       ... done
                      ------------------
                      INITIAL GUESS DONE (   0.1 sec)
                      ------------------
--------------
SCF ITERATIONS
--------------
ITER       Energy         Delta-E        Max-DP      RMS-DP      [F,P]     Damp
               ***  Starting incremental Fock matrix formation  ***
  0  -1043.3082142382   0.000000000000 0.04069466  0.00080809  0.1325135 0.7000
  1  -1043.3167721191  -0.008557880912 0.04912835  0.00074700  0.0813939 0.7000
                               ***Turning on DIIS***
  2  -1043.3218288962  -0.005056777127 0.15026213  0.00209948  0.0504182 0.0000
  3  -1043.2284474183   0.093381477898 0.04270903  0.00066088  0.0137466 0.0000
  4  -1043.4138406834  -0.185393265030 0.03836747  0.00054606  0.0068695 0.0000
  5  -1043.3330315548   0.080809128602 0.03698171  0.00053039  0.0029743 0.0000
  6  -1043.3304727851   0.002558769654 0.02404761  0.00035213  0.0018173 0.0000
  7  -1043.3328352881  -0.002362503026 0.01337958  0.00019894  0.0010220 0.0000
  8  -1043.3356147187  -0.002779430617 0.01293937  0.00019473  0.0005566 0.0000
  9  -1043.3356079034   0.000006815354 0.00293756  0.00004463  0.0000900 0.0000
 10  -1043.3346092180   0.000998685422 0.00047956  0.00000730  0.0000164 0.0000
 11  -1043.3345844356   0.000024782409 0.00010332  0.00000158  0.0000042 0.0000
 12  -1043.3346144393  -0.000030003783 0.00000489  0.00000008  0.0000005 0.0000
 13  -1043.3346119787   0.000002460600 0.00000094  0.00000002  0.0000001 0.0000
                            ***DIIS convergence achieved***

               *****************************************************
               *                     SUCCESS                       *
               *           SCF CONVERGED AFTER  14 CYCLES          *
               *****************************************************


----------------
TOTAL SCF ENERGY
----------------

Total Energy       :        -1043.33461127 Eh          -28390.57812 eV

Components:
Nuclear Repulsion  :            0.00000000 Eh               0.00000 eV
Electronic Energy  :        -1043.33461127 Eh          -28390.57812 eV
One Electron Energy:        -1439.64505724 Eh          -39174.73361 eV
Two Electron Energy:          396.31044596 Eh           10784.15549 eV

Virial components:
Potential Energy   :        -2086.60435415 Eh          -56779.39108 eV
Kinetic Energy     :         1043.26974288 Eh           28388.81296 eV
Virial Ratio       :            2.00006218


---------------
SCF CONVERGENCE
---------------

  Last Energy change         ...    7.0650e-07  Tolerance :   1.0000e-09
  Last MAX-Density change    ...    1.1767e-07  Tolerance :   1.0000e-08
  Last RMS-Density change    ...    1.9027e-09  Tolerance :   1.0000e-09
  Last DIIS Error            ...    1.2021e-08  Tolerance :   1.0000e-08

             **** THE GBW FILE WAS UPDATED (64_Cr.gbw) ****
             **** DENSITY FILE WAS UPDATED (64_Cr.scfp) ****
             **** ENERGY FILE WAS UPDATED (64_Cr.en.tmp) ****
----------------------
UHF SPIN CONTAMINATION
----------------------

Expectation value of <S**2>     :    12.000049
Ideal value S*(S+1) for S=3.0   :    12.000000
Deviation                       :     0.000049

             **** THE GBW FILE WAS UPDATED (64_Cr.gbw) ****
             **** DENSITY FILE WAS UPDATED (64_Cr.scfp) ****
----------------
ORBITAL ENERGIES
----------------
                 SPIN UP ORBITALS
  NO   OCC          E(Eh)            E(eV) 
   0   1.0000    -220.389614     -5997.1063 
   1   1.0000     -26.262137      -714.6291 
   2   1.0000     -22.190971      -603.8470 
   3   1.0000     -22.190971      -603.8470 
   4   1.0000     -22.190971      -603.8470 
   5   1.0000      -3.459914       -94.1491 
   6   1.0000      -2.262707       -61.5714 
   7   1.0000      -2.262707       -61.5714 
   8   1.0000      -2.262707       -61.5714 
   9   1.0000      -0.373588       -10.1658 
  10   1.0000      -0.373588       -10.1658 
  11   1.0000      -0.373588       -10.1658 
  12   1.0000      -0.373588       -10.1658 
  13   1.0000      -0.373588       -10.1658 
  14   1.0000      -0.222480        -6.0540 
  15   0.0000       0.060058         1.6343 
  16   0.0000       0.060058         1.6343 
  17   0.0000       0.060058         1.6343 
  18   0.0000       0.157995         4.2993 
  19   0.0000       0.157995         4.2993 
  20   0.0000       0.157995         4.2993 
  21   0.0000       0.157995         4.2993 
  22   0.0000       0.157995         4.2993 
  23   0.0000       0.160961         4.3800 
  24   0.0000       0.444010        12.0821 
  25   0.0000       0.444010        12.0821 
  26   0.0000       0.444010        12.0821 
  27   0.0000       0.649804        17.6821 
  28   0.0000       0.649804        17.6821 
  29   0.0000       0.649804        17.6821 
  30   0.0000       0.649804        17.6821 
  31   0.0000       0.649804        17.6821 
  32   0.0000       1.775618        48.3170 
  33   0.0000       1.775618        48.3170 
  34   0.0000       1.775618        48.3170 
  35   0.0000       1.775618        48.3170 
  36   0.0000       1.775618        48.3170 
  37   0.0000       1.775618        48.3170 
  38   0.0000       1.775618        48.3170 
  39   0.0000       2.053520        55.8791 
  40   0.0000       2.053520        55.8791 
  41   0.0000       2.053520        55.8791 
  42   0.0000       2.304168        62.6996 
  43   0.0000       2.484529        67.6075 
  44   0.0000       2.484529        67.6075 
  45   0.0000       2.484529        67.6075 
  46   0.0000       2.484529        67.6075 
  47   0.0000       2.484529        67.6075 
  48   0.0000       6.088717       165.6824 
  49   0.0000       6.088717       165.6824 
  50   0.0000       6.088717       165.6824 
  51   0.0000       6.088717       165.6824 
  52   0.0000       6.088717       165.6824 
  53   0.0000       6.088717       165.6824 
  54   0.0000       6.088717       165.6824 
  55   0.0000       6.088717       165.6824 
  56   0.0000       6.088717       165.6824 
  57   0.0000       6.801523       185.0789 
  58   0.0000       6.801523       185.0789 
  59   0.0000       6.801523       185.0789 
  60   0.0000       6.801523       185.0789 
  61   0.0000       6.801523       185.0789 
  62   0.0000       6.801523       185.0789 
  63   0.0000       6.801523       185.0789 

                 SPIN DOWN ORBITALS
  NO   OCC          E(Eh)            E(eV) 
   0   1.0000    -220.387519     -5997.0493 
   1   1.0000     -26.160778      -711.8709 
   2   1.0000     -22.092421      -601.1653 
   3   1.0000     -22.092421      -601.1653 
   4   1.0000     -22.092421      -601.1653 
   5   1.0000      -3.112353       -84.6914 
   6   1.0000      -1.841045       -50.0974 
   7   1.0000      -1.841045       -50.0974 
   8   1.0000      -1.841045       -50.0974 
   9   0.0000       0.031070         0.8454 
  10   0.0000       0.120948         3.2912 
  11   0.0000       0.120948         3.2912 
  12   0.0000       0.120948         3.2912 
  13   0.0000       0.158511         4.3133 
  14   0.0000       0.158511         4.3133 
  15   0.0000       0.158511         4.3133 
  16   0.0000       0.158511         4.3133 
  17   0.0000       0.158511         4.3133 
  18   0.0000       0.245509         6.6806 
  19   0.0000       0.396467        10.7884 
  20   0.0000       0.396467        10.7884 
  21   0.0000       0.396467        10.7884 
  22   0.0000       0.396467        10.7884 
  23   0.0000       0.396467        10.7884 
  24   0.0000       0.520659        14.1678 
  25   0.0000       0.520659        14.1678 
  26   0.0000       0.520659        14.1678 
  27   0.0000       0.832779        22.6611 
  28   0.0000       0.832779        22.6611 
  29   0.0000       0.832779        22.6611 
  30   0.0000       0.832779        22.6611 
  31   0.0000       0.832779        22.6611 
  32   0.0000       1.920526        52.2602 
  33   0.0000       1.920526        52.2602 
  34   0.0000       1.920526        52.2602 
  35   0.0000       1.920526        52.2602 
  36   0.0000       1.920526        52.2602 
  37   0.0000       1.920526        52.2602 
  38   0.0000       1.920526        52.2602 
  39   0.0000       2.166943        58.9655 
  40   0.0000       2.166943        58.9655 
  41   0.0000       2.166943        58.9655 
  42   0.0000       2.438125        66.3448 
  43   0.0000       2.671822        72.7040 
  44   0.0000       2.671822        72.7040 
  45   0.0000       2.671822        72.7040 
  46   0.0000       2.671822        72.7040 
  47   0.0000       2.671822        72.7040 
  48   0.0000       6.216203       169.1515 
  49   0.0000       6.216203       169.1515 
  50   0.0000       6.216203       169.1515 
  51   0.0000       6.216203       169.1515 
  52   0.0000       6.216203       169.1515 
  53   0.0000       6.216203       169.1515 
  54   0.0000       6.216203       169.1515 
  55   0.0000       6.216203       169.1515 
  56   0.0000       6.216203       169.1515 
  57   0.0000       7.043482       191.6629 
  58   0.0000       7.043482       191.6629 
  59   0.0000       7.043482       191.6629 
  60   0.0000       7.043482       191.6629 
  61   0.0000       7.043482       191.6629 
  62   0.0000       7.043482       191.6629 
  63   0.0000       7.043482       191.6629 

                    ********************************
                    * MULLIKEN POPULATION ANALYSIS *
                    ********************************

--------------------------------------------
MULLIKEN ATOMIC CHARGES AND SPIN POPULATIONS
--------------------------------------------
   0 Cr:    0.000000    6.000000
Sum of atomic charges         :    0.0000000
Sum of atomic spin populations:    6.0000000

-----------------------------------------------------
MULLIKEN REDUCED ORBITAL CHARGES AND SPIN POPULATIONS
-----------------------------------------------------
CHARGE
  0 Crs       :     7.000000  s :     7.000000
      pz      :     4.000000  p :    12.000000
      px      :     4.000000
      py      :     4.000000
      dz2     :     1.000000  d :     5.000000
      dxz     :     1.000000
      dyz     :     1.000000
      dx2y2   :     1.000000
      dxy     :     1.000000
      f0      :     0.000000  f :     0.000000
      f+1     :     0.000000
      f-1     :     0.000000
      f+2     :     0.000000
      f-2     :     0.000000
      f+3     :     0.000000
      f-3     :     0.000000
      g0      :     0.000000  g :     0.000000
      g+1     :     0.000000
      g-1     :     0.000000
      g+2     :     0.000000
      g-2     :     0.000000
      g+3     :     0.000000
      g-3     :     0.000000
      g+4     :     0.000000
      g-4     :     0.000000

SPIN
  0 Crs       :     1.000000  s :     1.000000
      pz      :    -0.000000  p :     0.000000
      px      :    -0.000000
      py      :     0.000000
      dz2     :     1.000000  d :     5.000000
      dxz     :     1.000000
      dyz     :     1.000000
      dx2y2   :     1.000000
      dxy     :     1.000000
      f0      :     0.000000  f :     0.000000
      f+1     :     0.000000
      f-1     :     0.000000
      f+2     :     0.000000
      f-2     :     0.000000
      f+3     :     0.000000
      f-3     :     0.000000
      g0      :     0.000000  g :     0.000000
      g+1     :     0.000000
      g-1     :     0.000000
      g+2     :     0.000000
      g-2     :     0.000000
      g+3     :     0.000000
      g-3     :     0.000000
      g+4     :     0.000000
      g-4     :     0.000000


                     *******************************
                     * LOEWDIN POPULATION ANALYSIS *
                     *******************************

-------------------------------------------
LOEWDIN ATOMIC CHARGES AND SPIN POPULATIONS
-------------------------------------------
   0 Cr:    0.000000    6.000000

----------------------------------------------------
LOEWDIN REDUCED ORBITAL CHARGES AND SPIN POPULATIONS
----------------------------------------------------
CHARGE
  0 Crs       :     7.000000  s :     7.000000
      pz      :     4.000000  p :    12.000000
      px      :     4.000000
      py      :     4.000000
      dz2     :     1.000000  d :     5.000000
      dxz     :     1.000000
      dyz     :     1.000000
      dx2y2   :     1.000000
      dxy     :     1.000000
      f0      :     0.000000  f :     0.000000
      f+1     :     0.000000
      f-1     :     0.000000
      f+2     :     0.000000
      f-2     :     0.000000
      f+3     :     0.000000
      f-3     :     0.000000
      g0      :     0.000000  g :     0.000000
      g+1     :     0.000000
      g-1     :     0.000000
      g+2     :     0.000000
      g-2     :     0.000000
      g+3     :     0.000000
      g-3     :     0.000000
      g+4     :     0.000000
      g-4     :     0.000000

SPIN
  0 Crs       :     1.000000  s :     1.000000
      pz      :    -0.000000  p :     0.000000
      px      :    -0.000000
      py      :     0.000000
      dz2     :     1.000000  d :     5.000000
      dxz     :     1.000000
      dyz     :     1.000000
      dx2y2   :     1.000000
      dxy     :     1.000000
      f0      :     0.000000  f :     0.000000
      f+1     :     0.000000
      f-1     :     0.000000
      f+2     :     0.000000
      f-2     :     0.000000
      f+3     :     0.000000
      f-3     :     0.000000
      g0      :     0.000000  g :     0.000000
      g+1     :     0.000000
      g-1     :     0.000000
      g+2     :     0.000000
      g-2     :     0.000000
      g+3     :     0.000000
      g-3     :     0.000000
      g+4     :     0.000000
      g-4     :     0.000000


                      *****************************
                      * MAYER POPULATION ANALYSIS *
                      *****************************

  NA   - Mulliken gross atomic population
  ZA   - Total nuclear charge
  QA   - Mulliken gross atomic charge
  VA   - Mayer's total valence
  BVA  - Mayer's bonded valence
  FA   - Mayer's free valence

  ATOM       NA         ZA         QA         VA         BVA        FA
  0 Cr    24.0000    24.0000     0.0000     6.0001     0.0000     6.0001

  Mayer bond orders larger than 0.100000


-------
TIMINGS
-------

Total SCF time: 0 days 0 hours 0 min 1 sec 

Total time                  ....       1.973 sec
Sum of individual times     ....       1.752 sec  ( 88.8%)

Fock matrix formation       ....       1.590 sec  ( 80.6%)
Diagonalization             ....       0.016 sec  (  0.8%)
Density matrix formation    ....       0.005 sec  (  0.2%)
Population analysis         ....       0.003 sec  (  0.2%)
Initial guess               ....       0.105 sec  (  5.3%)
Orbital Transformation      ....       0.000 sec  (  0.0%)
Orbital Orthonormalization  ....       0.000 sec  (  0.0%)
DIIS solution               ....       0.012 sec  (  0.6%)


           ************************************************************
           *        Program running with 24 parallel MPI-processes    *
           *              working on a common directory               *
           ************************************************************


------------------------------------------------------------------------------- 
                              ORCA-MATRIX DRIVEN CI                            
------------------------------------------------------------------------------- 

--------------------------------
AUTOMATIC CHOICE OF INCORE LEVEL
--------------------------------

Memory available                           ...   2500.00 MB
Memory needed for S+T                      ...      3.02 MB
Memory needed for J+K                      ...      6.09 MB
Memory needed for DIIS                     ...     42.31 MB
Memory needed for 3-ext                    ...      8.98 MB
Memory needed for 4-ext                    ...     22.44 MB
Memory needed for triples                  ...      4.49 MB
 -> Final InCoreLevel    ... 5
 -> check shows that triples correction can be computed


Wavefunction type
-----------------
Correlation treatment                      ...      CCSD     
Single excitations                         ... ON
Orbital optimization                       ... OFF
Calculation of Z vector                    ... OFF
Calculation of Brueckner orbitals          ... OFF
Perturbative triple excitations            ... ON
Calculation of F12 correction              ... OFF
Frozen core treatment                      ... chemical core (10 el)
Reference Wavefunction                     ... UHF
  Alpha-MOs occ    :     5 ...   14 ( 10 MO's/ 10 electrons)
  Beta-MOs occ     :     5 ...    8 (  4 MO's/  4 electrons)
  Alpha-MOs virt   :    15 ...   63 ( 49 MO's              )
  Beta-MOs virt    :     9 ...   63 ( 55 MO's              )
Number of AO's                             ...     64
Number of electrons                        ...     24
Number of correlated electrons             ...     14

Algorithmic settings
--------------------
Integral transformation                    ... AO direct full transformation
K(C) Formation                             ... FULL-MO TRAFO
Maximum number of iterations               ...        50
Convergence tolerance (max. residuum)      ... 1.000e-06
Level shift for amplitude update           ... 2.000e-01
Maximum number of DIIS vectors             ...         7
DIIS turned on at iteration                ...         0
Damping before turning on DIIS             ...     0.500
Damping after turning on DIIS              ...     0.000
Pair specific amplitude update             ... OFF
Natural orbital iterations                 ... OFF
Perturbative natural orbital generation    ... OFF
Printlevel                                 ... 2

Memory handling:
----------------
Maximum memory for working arrays          ...   2500 MB
Data storage in matrix containers          ... UNCOMPRESSED
Data type for integral storage             ... DOUBLE
In-Core Storage of quantities:
   Amplitudes+Sigma Vector      ... YES
   J+K operators                ... YES
   DIIS vectors                 ... YES
   3-external integrals         ... YES
   4-external integrals         ... YES


Initializing the integral package          ... done
Warning: reference  - re-canonicalizations have been set to INT 1 VIRT 1

--------------------------
UNRESTRICTED FOCK OPERATOR
--------------------------

<ss|ss>:          231 b            0 skpd (  0.0%)    0.000 s ( 0.002 ms/b)
<ss|sp>:          630 b            0 skpd (  0.0%)    0.001 s ( 0.001 ms/b)
<ss|sd>:          504 b            0 skpd (  0.0%)    0.001 s ( 0.001 ms/b)
<ss|sf>:          252 b            0 skpd (  0.0%)    0.000 s ( 0.001 ms/b)
<ss|sg>:          126 b            0 skpd (  0.0%)    0.000 s ( 0.002 ms/b)
<ss|pp>:          315 b            0 skpd (  0.0%)    0.001 s ( 0.002 ms/b)
<ss|pd>:          420 b            0 skpd (  0.0%)    0.000 s ( 0.001 ms/b)
<ss|pf>:          210 b            0 skpd (  0.0%)    0.001 s ( 0.003 ms/b)
<ss|pg>:          105 b            0 skpd (  0.0%)    0.000 s ( 0.003 ms/b)
<ss|dd>:          210 b            0 skpd (  0.0%)    0.001 s ( 0.002 ms/b)
<ss|df>:          168 b            0 skpd (  0.0%)    0.000 s ( 0.001 ms/b)
<ss|dg>:           84 b            0 skpd (  0.0%)    0.001 s ( 0.006 ms/b)
<ss|ff>:           63 b            0 skpd (  0.0%)    0.000 s ( 0.003 ms/b)
<ss|fg>:           42 b            0 skpd (  0.0%)    0.000 s ( 0.006 ms/b)
<ss|gg>:           21 b            0 skpd (  0.0%)    0.000 s ( 0.012 ms/b)
<sp|sp>:          465 b            0 skpd (  0.0%)    0.001 s ( 0.001 ms/b)
<sp|sd>:          720 b            0 skpd (  0.0%)    0.001 s ( 0.001 ms/b)
<sp|sf>:          360 b            0 skpd (  0.0%)    0.001 s ( 0.002 ms/b)
<sp|sg>:          180 b            0 skpd (  0.0%)    0.000 s ( 0.003 ms/b)
<sp|pp>:          450 b            0 skpd (  0.0%)    0.001 s ( 0.002 ms/b)
<sp|pd>:          600 b            0 skpd (  0.0%)    0.001 s ( 0.002 ms/b)
<sp|pf>:          300 b            0 skpd (  0.0%)    0.001 s ( 0.003 ms/b)
<sp|pg>:          150 b            0 skpd (  0.0%)    0.001 s ( 0.008 ms/b)
<sp|dd>:          300 b            0 skpd (  0.0%)    0.001 s ( 0.004 ms/b)
<sp|df>:          240 b          213 skpd ( 88.8%)    0.000 s ( 0.013 ms/b)
<sp|dg>:          120 b          111 skpd ( 92.5%)    0.001 s ( 0.099 ms/b)
<sp|ff>:           90 b           56 skpd ( 62.2%)    0.000 s ( 0.010 ms/b)
<sp|fg>:           60 b           42 skpd ( 70.0%)    0.000 s ( 0.015 ms/b)
<sp|gg>:           30 b           14 skpd ( 46.7%)    0.000 s ( 0.026 ms/b)
<sd|sd>:          300 b            0 skpd (  0.0%)    0.001 s ( 0.002 ms/b)
<sd|sf>:          288 b            0 skpd (  0.0%)    0.000 s ( 0.002 ms/b)
<sd|sg>:          144 b            0 skpd (  0.0%)    0.001 s ( 0.004 ms/b)
<sd|pp>:          360 b            0 skpd (  0.0%)    0.001 s ( 0.003 ms/b)
<sd|pd>:          480 b            0 skpd (  0.0%)    0.001 s ( 0.003 ms/b)
<sd|pf>:          240 b          223 skpd ( 92.9%)    0.000 s ( 0.010 ms/b)
<sd|pg>:          120 b          119 skpd ( 99.2%)    0.000 s ( 0.023 ms/b)
<sd|dd>:          240 b            0 skpd (  0.0%)    0.002 s ( 0.007 ms/b)
<sd|df>:          192 b            0 skpd (  0.0%)    0.001 s ( 0.005 ms/b)
<sd|dg>:           96 b            0 skpd (  0.0%)    0.003 s ( 0.033 ms/b)
<sd|ff>: done
<sd|fg>:           48 b           44 skpd ( 91.7%)    0.000 s ( 0.048 ms/b)
<sd|gg>:           24 b           17 skpd ( 70.8%)    0.000 s ( 0.053 ms/b)
<sf|sf>:           78 b            0 skpd (  0.0%)    0.000 s ( 0.002 ms/b)
<sf|sg>:           72 b            0 skpd (  0.0%)    0.000 s ( 0.006 ms/b)
<sf|pp>:          180 b            0 skpd (  0.0%)    0.001 s ( 0.004 ms/b)
<sf|pd>:          240 b          226 skpd ( 94.2%)    0.000 s ( 0.010 ms/b)
<sf|pf>:          120 b          105 skpd ( 87.5%)    0.000 s ( 0.009 ms/b)
<sf|pg>:           60 b           55 skpd ( 91.7%)    0.000 s ( 0.018 ms/b)
<sf|dd>:          120 b            0 skpd (  0.0%)    0.001 s ( 0.010 ms/b)
<sf|df>: done
<sf|dg>: done
<sf|ff>: done
<sf|fg>:           24 b           22 skpd ( 91.7%)    0.000 s ( 0.043 ms/b)
<sf|gg>:           12 b            9 skpd ( 75.0%)    0.000 s ( 0.058 ms/b)
<sg|sg>:           21 b            0 skpd (  0.0%)    0.000 s ( 0.009 ms/b)
<sg|pp>:           90 b            0 skpd (  0.0%)    0.001 s ( 0.008 ms/b)
<sg|pd>:          120 b          119 skpd ( 99.2%)    0.000 s ( 0.041 ms/b)
<sg|pf>:           60 b           56 skpd ( 93.3%)    0.000 s ( 0.021 ms/b)
<sg|pg>: done
<sg|dd>:           60 b            0 skpd (  0.0%)    0.001 s ( 0.019 ms/b)
<sg|df>: done
<sg|dg>: done
<sg|ff>:           18 b           14 skpd ( 77.8%)    0.000 s ( 0.029 ms/b)
<sg|fg>: done
<sg|gg>:            6 b            4 skpd ( 66.7%)    0.000 s ( 0.108 ms/b)
<pp|pp>:          120 b            0 skpd (  0.0%)    0.001 s ( 0.008 ms/b)
<pp|pd>:          300 b            0 skpd (  0.0%)    0.001 s ( 0.004 ms/b)
<pp|pf>:          150 b            0 skpd (  0.0%)    0.001 s ( 0.004 ms/b)
<pp|pg>:           75 b            0 skpd (  0.0%)    0.001 s ( 0.013 ms/b)
<pp|dd>:          150 b            0 skpd (  0.0%)    0.002 s ( 0.010 ms/b)
<pp|df>:          120 b            0 skpd (  0.0%)    0.001 s ( 0.007 ms/b)
<pp|dg>:           60 b            0 skpd (  0.0%)    0.001 s ( 0.020 ms/b)
<pp|ff>:           45 b            0 skpd (  0.0%)    0.001 s ( 0.012 ms/b)
<pp|fg>:           30 b            0 skpd (  0.0%)    0.001 s ( 0.026 ms/b)
<pp|gg>:           15 b            0 skpd (  0.0%)    0.001 s ( 0.070 ms/b)
<pd|pd>:          210 b            0 skpd (  0.0%)    0.002 s ( 0.010 ms/b)
<pd|pf>:          200 b            0 skpd (  0.0%)    0.001 s ( 0.006 ms/b)
<pd|pg>:          100 b            0 skpd (  0.0%)    0.002 s ( 0.021 ms/b)
<pd|dd>:          200 b            0 skpd (  0.0%)    0.003 s ( 0.015 ms/b)
<pd|df>:          160 b            0 skpd (  0.0%)    0.002 s ( 0.011 ms/b)
<pd|dg>:           80 b            0 skpd (  0.0%)    0.003 s ( 0.035 ms/b)
<pd|ff>:           60 b           45 skpd ( 75.0%)    0.001 s ( 0.038 ms/b)
<pd|fg>:           40 b           32 skpd ( 80.0%)    0.001 s ( 0.105 ms/b)
<pd|gg>:           20 b           13 skpd ( 65.0%)    0.001 s ( 0.169 ms/b)
<pf|pf>:           55 b            0 skpd (  0.0%)    0.000 s ( 0.009 ms/b)
<pf|pg>:           50 b            0 skpd (  0.0%)    0.001 s ( 0.026 ms/b)
<pf|dd>:          100 b            0 skpd (  0.0%)    0.002 s ( 0.018 ms/b)
<pf|df>:           80 b           65 skpd ( 81.2%)    0.000 s ( 0.028 ms/b)
<pf|dg>:           40 b           36 skpd ( 90.0%)    0.000 s ( 0.050 ms/b)
<pf|ff>:           30 b           18 skpd ( 60.0%)    0.000 s ( 0.035 ms/b)
<pf|fg>:           20 b           14 skpd ( 70.0%)    0.000 s ( 0.083 ms/b)
<pf|gg>:           10 b            7 skpd ( 70.0%)    0.001 s ( 0.202 ms/b)
<pg|pg>:           15 b            0 skpd (  0.0%)    0.001 s ( 0.041 ms/b)
<pg|dd>:           50 b            0 skpd (  0.0%)    0.002 s ( 0.035 ms/b)
<pg|df>:           40 b           36 skpd ( 90.0%)    0.000 s ( 0.086 ms/b)
<pg|dg>: done
<pg|ff>:           15 b           11 skpd ( 73.3%)    0.000 s ( 0.064 ms/b)
<pg|fg>:           10 b            8 skpd ( 80.0%)    0.000 s ( 0.207 ms/b)
<pg|gg>: done
<dd|dd>:           55 b            0 skpd (  0.0%)    0.002 s ( 0.045 ms/b)
<dd|df>:           80 b            0 skpd (  0.0%)    0.002 s ( 0.019 ms/b)
<dd|dg>:           40 b            0 skpd (  0.0%)    0.002 s ( 0.059 ms/b)
<dd|ff>:           30 b            0 skpd (  0.0%)    0.001 s ( 0.036 ms/b)
<dd|fg>:           20 b            0 skpd (  0.0%)    0.002 s ( 0.080 ms/b)
<dd|gg>:           10 b            0 skpd (  0.0%)    0.002 s ( 0.223 ms/b)
<df|df>:           36 b            0 skpd (  0.0%)    0.001 s ( 0.040 ms/b)
<df|dg>:           32 b            0 skpd (  0.0%)    0.002 s ( 0.067 ms/b)
<df|ff>: done
<df|fg>:           16 b           14 skpd ( 87.5%)    0.000 s ( 0.189 ms/b)
<df|gg>:            8 b            4 skpd ( 50.0%)    0.001 s ( 0.354 ms/b)
<dg|dg>:           10 b            0 skpd (  0.0%)    0.002 s ( 0.150 ms/b)
<dg|ff>:           12 b            8 skpd ( 66.7%)    0.001 s ( 0.126 ms/b)
<dg|fg>: done
<dg|gg>:            4 b            2 skpd ( 50.0%)    0.001 s ( 0.561 ms/b)
<ff|ff>: done
<ff|fg>: done
<ff|gg>: done
<fg|fg>: done
<fg|gg>: done
<gg|gg>: done
Recanonicalizing the internal orbitals
Recanonicalizing the virtual orbitals
Time needed for Fock operator              ...            0.097 sec
Reference energy                           ...  -1043.334611154
Warning: for UHF the TrafoType has to be JK
Warning: for UHF the K(C)-option cannot be MO but must be AOX

-------------------------------
PARTIAL EXCHANGE TRANSFORMATION
-------------------------------

Transformation type                        ... two-operators
Generation of integrals (i,mue|j,nue)      ... ON
Generation of integrals (mue,kappa|nue,tau)... ON
Generation of integrals (i,mue|a,nue)      ... ON
Dimension of the basis                     ...   64
Number of internal alpha-MOs               ...   10 (   5-  14)
Number of internal beta-MOs                ...    4 (   5-   8)
Number of external alpha-MOs               ...   49 (  15-  63)
Number of external beta-MOs                ...   55 (   9-  63)
Pair cutoff                                ... 0.000e+00 Eh
Number of AO pairs in the trafo            ... 2080
Total Number of distinct AO pairs          ... 2080
Memory devoted for trafo                   ... 2500.0 MB 
Max. Number of MO pairs treated together   ... 80000      
Number Format for Storage                  ... Double (8 Byte)
Integral package used                      ... LIBINT

Starting integral evaluation:
    ... done with AO integral generation
Closing buffer AOK[aa] ( 0.00 GB; CompressionRatio= 0.00)
Closing buffer AOK[bb] ( 0.00 GB; CompressionRatio= 0.00)
Closing buffer AOK[ab] ( 0.00 GB; CompressionRatio= 0.00)
Closing buffer AOK[ba] ( 0.00 GB; CompressionRatio= 0.00)
Collecting buffer AOK 
Closing buffer IAAO1[aa] ( 0.00 GB; CompressionRatio= 0.00)
Closing buffer IAAO1[bb] ( 0.00 GB; CompressionRatio= 0.00)
Closing buffer IAAO1[ab] ( 0.00 GB; CompressionRatio= 0.00)
Closing buffer IAAO1[ba] ( 0.00 GB; CompressionRatio= 0.00)
Closing buffer IAAO2[aa] ( 0.00 GB; CompressionRatio= 0.00)
Closing buffer IAAO2[bb] ( 0.00 GB; CompressionRatio= 0.00)
Closing buffer IAAO2[ab] ( 0.00 GB; CompressionRatio= 0.00)
Closing buffer IAAO2[ba] ( 0.00 GB; CompressionRatio= 0.00)
Collecting buffer IAAO 
Closing buffer PRQS    ( 0.00 GB; CompressionRatio= 0.00)
Collecting buffer PRQS 
Number of alpha/alpha MO pairs in trafo    ...   55
Number of beta /beta  MO pairs in trafo    ...   10
Number of alpha/ beta MO pairs in trafo    ...   40
------------------------
SORTING OF (i,mue|j,nue)
------------------------

SORTING OF ALPHA/ALPHA PAIRS
IBATCH = 1 of  1
Closing buffer KAO[aa] ( 0.00 GB; CompressionRatio= 1.00)
Collecting buffer KAO 
SORTING OF BETA /BETA  PAIRS
IBATCH = 1 of  1
Closing buffer KAO[bb] ( 0.00 GB; CompressionRatio= 1.00)
Collecting buffer KAO 
SORTING OF ALPHA/BETA  PAIRS
IBATCH = 1 of  1
Closing buffer KAO[ab] ( 0.00 GB; CompressionRatio= 0.999633923124)
Collecting buffer KAO[ab] 
------------------------
SORTING OF (i,mue|a,nue)
------------------------

Number of alpha/alpha (i,a) pairs in trafo  ...  490
Number of beta /beta  (i,a) pairs in trafo  ...  220
Number of alpha/ beta (i,a) pairs in trafo  ...  550
Number of beta /alpha (i,a) pairs in trafo  ...  196
Setting up the alpha/alpha list             ... done
Setting up the beta /beta  list             ... done
Setting up the alpha/beta  list             ... done
Setting up the beta /alpha list             ... done
    ... Now sorting (i,mue|a,nue)integrals
    ... Integrals (i,b|a,c) will be made on the fly
SORTING OF ALPHA/ALPHA PAIRS
IBATCH = 1 of  1
Closing buffer IPAQ[aa]  0.00 GB; CompressionRatio= 1.00)
SORTING OF BETA /BETA  PAIRS
IBATCH = 1 of  1
Closing buffer IPAQ[bb]( 0.00 GB; CompressionRatio= 1.00)
SORTING OF ALPHA/BETA  PAIRS (NMatSort_ab=23)
IBATCH = 1 of  1
Closing buffer IPAQ[ab]( 0.00 GB; CompressionRatio= 1.00)
SORTING OF BETA/ALPHA  PAIRS
IBATCH = 1 of  1
Closing buffer IPAQ[ba]( 0.00 GB; CompressionRatio= 1.00)
N(AO-Batches) Done                         ...         0 
N(AO-Batches) Skipped                      ...         0 
N(IJ)-pairs Skipped                        ...         0 
TOTAL TIME for half transformation         ...     0.355 sec
AO-integral generation                     ...     0.000 sec
Half transformation                        ...     0.000 sec
K-integral sorting                         ...     0.156 sec
<ss|**>: 
------------------------------
PARTIAL COULOMB TRANSFORMATION
------------------------------

Transformation type                        ... two-operators
Dimension of the basis                     ...   64
Number of internal alpha-MOs               ...   10 (5-14)
Number of internal beta-MOs                ...    4 (5-8)
Pair cutoff                                ... 0.000e+00 Eh
Number of AO pairs included in the trafo   ... 2080
Total Number of distinct AO pairs          ... 2080
Memory devoted for trafo                   ... 2500.0 MB 
Max. Number of MO pairs treated together   ... 157538      
Max. Number of MOs treated per batch       ... 2461      
Number Format for Storage                  ... Double (8 Byte)
AO-integral source                         ... DIRECT
Integral package used                      ... LIBINT

Starting integral evaluation:
<sp|**>:         3591 b        0 skpd     0.001 s (  0.000 ms/b)
<sd|**>:         5130 b        0 skpd     0.008 s (  0.001 ms/b)
<sf|**>:         4104 b        0 skpd     0.009 s (  0.002 ms/b)
<sg|**>:         2052 b        0 skpd     0.005 s (  0.002 ms/b)
<pp|**>:         1026 b        0 skpd     0.010 s (  0.009 ms/b)
        2565 b        0 skpd     0.012 s (  0.005 ms/b)
<pd|**>:         3420 b        0 skpd     0.016 s (  0.005 ms/b)
<pf|**>:         1710 b        0 skpd     0.008 s (  0.005 ms/b)
<pg|**>: <dd|**>:          855 b        0 skpd     0.015 s (  0.017 ms/b)
        1710 b        0 skpd     0.022 s (  0.013 ms/b)
<df|**>:         1368 b        0 skpd     0.012 s (  0.009 ms/b)
<dg|**>:          684 b        0 skpd     0.019 s (  0.027 ms/b)
<ff|**>:          513 b        0 skpd     0.008 s (  0.015 ms/b)
<fg|**>:          342 b        0 skpd     0.012 s (  0.035 ms/b)
<gg|**>:          171 b        0 skpd     0.017 s (  0.100 ms/b)
Closing buffer AOJ[aa] ( 0.00 GB; CompressionRatio= 0.97)
Closing buffer AOJ[bb] ( 0.00 GB; CompressionRatio= 0.00)
Collecting buffer AOJ 
    ... done with AO integral generation
Number of Alpha-MO pairs included          ...   55
Number of Beta-MO pairs included           ...   10
    ... Now sorting integrals
SORTING ALPHA/ALPHA PAIRS
IBATCH = 1 of  1
Closing buffer JAO[aa] ( 0.00 GB; CompressionRatio= 1.00)
SORTING BETA/BETA PAIRS
IBATCH = 1 of  1
Closing buffer JAO[bb] ( 0.00 GB; CompressionRatio= 1.00)
Collecting buffer JAO 
TOTAL TIME for half transformation         ...     0.184 sec
AO-integral generation                     ...     0.173 sec
Half transformation                        ...     0.002 sec
J-integral sorting                         ...     0.005 sec

-------------------------- SECOND HALF TRANSFORMATION -------------------------
Formation of (ij|kl),(ij|ka), (ij|ab)      ... ok (     0.018 sec)
Formation of (ik|jl),(ik|ja), (ia|jb)      ... ok (     0.024 sec)


-----------------------
SPIN UNRESTRICTED GUESS
-----------------------

Entering MDCI_UHF_Guess, Tailored=0
Spin-components of the MP2 energy:
EMP2(aa)=     -0.141462495
EMP2(bb)=     -0.028652166
EMP2(ab)=     -0.238663413

Initial guess performed in     0.007 sec
E(0)                                       ...  -1043.334611154
E(MP2)                                     ...     -0.408778073
Initial E(tot)                             ...  -1043.743389227
<T|T>                                      ...      0.073713799
Number of pairs included                   ... 91

------------------------------------------------
                  UHF COUPLED CLUSTER ITERATIONS
------------------------------------------------

Number of amplitudes to be optimized       ...       171227

Iter       E(tot)           E(Corr)          Delta-E          Residual     Time      <S|S>**1/2
  0  -1043.743389227     -0.408778073      0.000000000      0.020700873    0.20      0.000000023
                           *** Turning on DIIS ***
  1  -1043.734043598     -0.399432444      0.009345629      0.007473810    0.20      0.039072603
  2  -1043.740632205     -0.406021052     -0.006588608      0.004956186    0.19      0.044595795
  3  -1043.741372707     -0.406761553     -0.000740501      0.003066000    0.20      0.054742620
  4  -1043.741820329     -0.407209175     -0.000447622      0.001457831    0.20      0.061048232
  5  -1043.741992128     -0.407380974     -0.000171799      0.000376079    0.20      0.065365339
  6  -1043.742023997     -0.407412843     -0.000031869      0.000057609    0.21      0.066517161
  7  -1043.742029257     -0.407418104     -0.000005260      0.000007641    0.20      0.066709542
  8  -1043.742029959     -0.407418806     -0.000000702      0.000003374    0.20      0.066744468
  9  -1043.742029805     -0.407418652      0.000000154      0.000002071    0.20      0.066745315
 10  -1043.742029851     -0.407418698     -0.000000046      0.000001007    0.21      0.066745023
 11  -1043.742029769     -0.407418615      0.000000082      0.000000216    0.21      0.066743910
               --- The Coupled-Cluster iterations have converged ---

----------------------
COUPLED CLUSTER ENERGY
----------------------

E(0)                                       ...  -1043.334611154
E(CORR)                                    ...     -0.407418615
E(TOT)                                     ...  -1043.742029769
Singles norm <S|S>**1/2                    ...      0.066743910 ( 0.063739338, 0.003004573)  
T1 diagnostic                              ...      0.017838060                              

------------------
LARGEST AMPLITUDES
------------------
  14a-> 23a  -1a-> -1a       0.056046
  13a-> 22a  -1a-> -1a       0.023980
  12a-> 20a  -1a-> -1a       0.022111
  11a-> 21a  -1a-> -1a       0.021671
  12a-> 27a   9a-> 31a       0.021290
  12a-> 31a   9a-> 27a       0.021290
  13a-> 28a  10a-> 29a       0.020432
  13a-> 29a  10a-> 28a       0.020432
  13a-> 29a  11a-> 30a       0.020291
  13a-> 30a  11a-> 29a       0.020291
  10a-> 27a   9a-> 28a       0.019926
  10a-> 28a   9a-> 27a       0.019926
  13a-> 31a  12a-> 29a       0.019528
  13a-> 29a  12a-> 31a       0.019528
  10a-> 19a  -1a-> -1a       0.019501
   9a-> 18a  -1a-> -1a       0.019501

----------------------
UHF TRIPLES CORRECTION (Algorithm 1)
----------------------

Multiplier for the singles contribution    ...      1.000000000

SPIN-CASE Alpha-Alpha-Alpha:
10% done
20% done
30% done
40% done
50% done
60% done
70% done
80% done
90% done


SPIN-CASE Beta-Beta-Beta:
10% done
20% done
30% done
40% done
50% done
60% done
70% done
80% done
90% done


SPIN-CASE Alpha-Alpha-Beta:
10% done
20% done
30% done
40% done
50% done
60% done
70% done
80% done
90% done


SPIN-CASE Beta-Beta-Alpha:
10% done
20% done
30% done
40% done
50% done
60% done
70% done
80% done
90% done


Triples Correction (T)                     ...     -0.010260868
    alpha-alpha-alpha ... -0.002697408 ( 26.3%)
    alpha-alpha-beta  ... -0.005471744 ( 53.3%)
    alpha-beta -beta  ... -0.001963983 ( 19.1%)
    beta -beta -beta  ... -0.000127731 (  1.2%)
Scaling of triples based on CCSD energies (Peterson et al. Molecular Physics 113, 1551 (2015))
E(T*) = f*E(T) where f = E(F12-CCSD)/E(CCSD) 
f = CCSD (with F12)/ CCSD (without F12)    ...      1.000000000
Scaled triples correction (T)              ...     -0.010260868

Final correlation energy                   ...     -0.417679483
E(CCSD)                                    ...  -1043.742029769
E(CCSD(T))                                 ...  -1043.752290636



        !!!!!!!!!!!!!!!!!!!!!!!!!!!!!!!!!!!!!!!!!!!!!!!!!!!!!!!!!!!!!!!!!!!!!!!!!! 
        !  Warning: Densities are linearized densities                           !
        !!!!!!!!!!!!!!!!!!!!!!!!!!!!!!!!!!!!!!!!!!!!!!!!!!!!!!!!!!!!!!!!!!!!!!!!!! 

NORM  =      1.081161496 sqrt=     1.039789160
W(HF) =      0.924931200
------------------------------------------------------------------------------
                           ORCA POPULATION ANALYSIS
------------------------------------------------------------------------------
Input electron density              ... 64_Cr.mdcip
Input spin density                  ... 64_Cr.mdcir
BaseName (.gbw .S,...)              ... 64_Cr

                    ********************************
                    * MULLIKEN POPULATION ANALYSIS *
                    ********************************

------------------------------------------
MULLIKEN ATOMIC CHARGES AND SPIN DENSITIES
------------------------------------------
   0 Cr:    0.000000    6.000000
Sum of atomic charges       :    0.0000000
Sum of atomic spin densities:    6.0000000

---------------------------------------------------
MULLIKEN REDUCED ORBITAL CHARGES AND SPIN DENSITIES
---------------------------------------------------
CHARGE
  0 Crs       :     6.990164  s :     6.990164
      pz      :     3.990325  p :    11.970975
      px      :     3.990325
      py      :     3.990325
      dz2     :     1.001336  d :     5.006678
      dxz     :     1.001336
      dyz     :     1.001336
      dx2y2   :     1.001336
      dxy     :     1.001336
      f0      :     0.004187  f :     0.029307
      f+1     :     0.004187
      f-1     :     0.004187
      f+2     :     0.004187
      f-2     :     0.004187
      f+3     :     0.004187
      f-3     :     0.004187
      g0      :     0.000320  g :     0.002876
      g+1     :     0.000320
      g-1     :     0.000320
      g+2     :     0.000320
      g-2     :     0.000320
      g+3     :     0.000320
      g-3     :     0.000320
      g+4     :     0.000320
      g-4     :     0.000320

SPIN
  0 Crs       :     0.995691  s :     0.995691
      pz      :     0.011476  p :     0.034429
      px      :     0.011476
      py      :     0.011476
      dz2     :     0.988984  d :     4.944922
      dxz     :     0.988984
      dyz     :     0.988984
      dx2y2   :     0.988984
      dxy     :     0.988984
      f0      :     0.003304  f :     0.023129
      f+1     :     0.003304
      f-1     :     0.003304
      f+2     :     0.003304
      f-2     :     0.003304
      f+3     :     0.003304
      f-3     :     0.003304
      g0      :     0.000203  g :     0.001829
      g+1     :     0.000203
      g-1     :     0.000203
      g+2     :     0.000203
      g-2     :     0.000203
      g+3     :     0.000203
      g-3     :     0.000203
      g+4     :     0.000203
      g-4     :     0.000203


                     *******************************
                     * LOEWDIN POPULATION ANALYSIS *
                     *******************************

-----------------------------------------
LOEWDIN ATOMIC CHARGES AND SPIN DENSITIES
-----------------------------------------
   0 Cr:    0.000000    6.000000

--------------------------------------------------
LOEWDIN REDUCED ORBITAL CHARGES AND SPIN DENSITIES
--------------------------------------------------
CHARGE
  0 Crs       :     6.990164  s :     6.990164
      pz      :     3.990325  p :    11.970975
      px      :     3.990325
      py      :     3.990325
      dz2     :     1.001336  d :     5.006678
      dxz     :     1.001336
      dyz     :     1.001336
      dx2y2   :     1.001336
      dxy     :     1.001336
      f0      :     0.004187  f :     0.029307
      f+1     :     0.004187
      f-1     :     0.004187
      f+2     :     0.004187
      f-2     :     0.004187
      f+3     :     0.004187
      f-3     :     0.004187
      g0      :     0.000320  g :     0.002876
      g+1     :     0.000320
      g-1     :     0.000320
      g+2     :     0.000320
      g-2     :     0.000320
      g+3     :     0.000320
      g-3     :     0.000320
      g+4     :     0.000320
      g-4     :     0.000320

SPIN
  0 Crs       :     0.995691  s :     0.995691
      pz      :     0.011476  p :     0.034429
      px      :     0.011476
      py      :     0.011476
      dz2     :     0.988984  d :     4.944922
      dxz     :     0.988984
      dyz     :     0.988984
      dx2y2   :     0.988984
      dxy     :     0.988984
      f0      :     0.003304  f :     0.023129
      f+1     :     0.003304
      f-1     :     0.003304
      f+2     :     0.003304
      f-2     :     0.003304
      f+3     :     0.003304
      f-3     :     0.003304
      g0      :     0.000203  g :     0.001829
      g+1     :     0.000203
      g-1     :     0.000203
      g+2     :     0.000203
      g-2     :     0.000203
      g+3     :     0.000203
      g-3     :     0.000203
      g+4     :     0.000203
      g-4     :     0.000203


                      *****************************
                      * MAYER POPULATION ANALYSIS *
                      *****************************

  NA   - Mulliken gross atomic population
  ZA   - Total nuclear charge
  QA   - Mulliken gross atomic charge
  VA   - Mayer's total valence
  BVA  - Mayer's bonded valence
  FA   - Mayer's free valence

  ATOM       NA         ZA         QA         VA         BVA        FA
  0 Cr    24.0000    24.0000     0.0000     6.3701     0.0000     6.3701





------------------------------------------------------------------------------- 
                                     TIMINGS                                   
------------------------------------------------------------------------------- 


Total execution time                   ...        3.475 sec

Fock Matrix Formation                  ...        0.097 sec (  2.8%)
Initial Guess                          ...        0.007 sec (  0.2%)
DIIS Solver                            ...        0.191 sec (  5.5%)
State Vector Update                    ...        0.010 sec (  0.3%)
Sigma-vector construction              ...        2.218 sec ( 63.8%)
  <D|H|D>(0-ext Fock)                  ...        0.003 sec (  0.2% of sigma)
  <D|H|D>(0-ext)                       ...        0.009 sec (  0.4% of sigma)
  <D|H|D>(2-ext)                       ...        0.032 sec (  1.4% of sigma)
  <D|H|D>(4-ext)                       ...        0.974 sec ( 43.9% of sigma)
  <S|H|0>                              ...        0.030 sec (  1.4% of sigma)
  <S|H|D>(1-ext)                       ...        0.001 sec (  0.0% of sigma)
  <D|H|S>(1-ext)                       ...        0.017 sec (  0.7% of sigma)
  Fock-dressing                        ...        0.578 sec ( 26.1% of sigma)
  (ik|jl)-dressing                     ...        0.014 sec (  0.6% of sigma)
  (ij|ab),(ia|jb)-dressing             ...        0.423 sec ( 19.1% of sigma)
  Pair energies                        ...        0.001 sec (  0.1% of sigma)
Total Time for computing (T)           ...        0.144 sec (  4.1% of ALL)
  I/O of integral and amplitudes       ...        0.043 sec ( 29.7% of (T))
  External N**7 contributions          ...        0.037 sec ( 25.8% of (T))
  Internal N**7 contributions          ...        0.014 sec (  9.6% of (T))
  N**6 triples energy contributions    ...        0.044 sec ( 30.6% of (T))

----- Orbital basis set information -----
Your calculation utilizes the basis: def2-QZVPP
   F. Weigend and R. Ahlrichs, Phys. Chem. Chem. Phys. 7, 3297 (2005).

----- AuxJ basis set information -----
Your calculation utilizes the auxiliary basis: def2/J
   F. Weigend, Phys. Chem. Chem. Phys. 8, 1057 (2006).

----- AuxC basis set information -----
Your calculation utilizes the auxiliary basis: def2-QZVPP/C
  H-La, Hf-Rn : A. Hellweg, C. Hattig, S. Hofener and W. Klopper, Theor. Chem. Acc. 117, 587 (2007).
        Ce-Lu : J. Chmela and M. E. Harding, Mol. Phys. (2018).

----- AuxJK basis set information -----
Your calculation utilizes the auxiliary basis: def2/JK
   H-Ba, Hf-Rn: F. Weigend, J. Comput. Chem. 29, 167 (2008).

All done

                     -----------------------------------------
                     Extrapolated Energy 2 Basis=  def2-QZVPP
                     -----------------------------------------

---------------------------------
CARTESIAN COORDINATES (ANGSTROEM)
---------------------------------
  Cr     0.000000    0.000000    0.000000

----------------------------
CARTESIAN COORDINATES (A.U.)
----------------------------
  NO LB      ZA    FRAG     MASS         X           Y           Z
   0 Cr   24.0000    0    52.000    0.000000    0.000000    0.000000

--------------------------------
INTERNAL COORDINATES (ANGSTROEM)
--------------------------------
 Cr     0   0   0     0.000000000000     0.00000000     0.00000000

---------------------------
INTERNAL COORDINATES (A.U.)
---------------------------
 Cr     0   0   0     0.000000000000     0.00000000     0.00000000

---------------------
BASIS SET INFORMATION
---------------------
There are 1 groups of distinct atoms

 Group   1 Type Cr  : 24s18p9d3f2g contracted to 11s6p5d3f2g pattern {114111111111/951111/51111/111/11}

Atom   0Cr   basis set group =>   1
---------------------------------
AUXILIARY/J BASIS SET INFORMATION
---------------------------------
There are 1 groups of distinct atoms

 Group   1 Type Cr  : 19s5p5d3f3g contracted to 8s5p5d2f3g pattern {121111111/11111/11111/21/111}

Atom   0Cr   basis set group =>   1
---------------------------------
AUXILIARY/C BASIS SET INFORMATION
---------------------------------
There are 1 groups of distinct atoms

 Group   1 Type Cr  : 15s13p11d8f7g5h2i contracted to 15s13p11d8f7g5h2i pattern {111111111111111/1111111111111/11111111111/11111111/1111111/11111/11}

Atom   0Cr   basis set group =>   1
----------------------------------
AUXILIARY/JK BASIS SET INFORMATION
----------------------------------
There are 1 groups of distinct atoms

 Group   1 Type Cr  : 19s14p12d10f7g3h1i contracted to 16s13p11d9f5g3h1i pattern {4111111111111111/2111111111111/21111111111/211111111/31111/111/1}

Atom   0Cr   basis set group =>   1

Checking for AutoStart:
The File: 64_Cr.gbw exists
Trying to determine its content:
     ... Fine, the file contains calculation information
     ... Fine, the calculation information was read
     ... Fine, the file contains a basis set
     ... Fine, the basis set was read
     ... Fine, the file contains a geometry
     ... Fine, the geometry was read
     ... Fine, the file contains a set of orbitals
     ... Fine, the orbitals can be read
     => possible old guess file was deleted
     => GBW file was renamed to GES file
     => GES file is set as startup file
     => Guess is set to MORead
     ... now leaving AutoStart



           ************************************************************
           *        Program running with 24 parallel MPI-processes    *
           *              working on a common directory               *
           ************************************************************
------------------------------------------------------------------------------
                           ORCA GTO INTEGRAL CALCULATION
------------------------------------------------------------------------------

                         BASIS SET STATISTICS AND STARTUP INFO

 # of primitive gaussian shells          ...   56
 # of primitive gaussian functions       ...  162
 # of contracted shells                  ...   27
 # of contracted basis functions         ...   93
 Highest angular momentum                ...    4
 Maximum contraction depth               ...   11
 Integral package used                   ... LIBINT
 Integral threshhold            Thresh   ...  1.000e-12
 Primitive cut-off              TCut     ...  1.000e-14


------------------------------ INTEGRAL EVALUATION ----------------------------


 * One electron integrals 
 Pre-screening matrix                    ... done
 Shell pair data                         ... done (   0.000 sec)



           ************************************************************
           *        Program running with 24 parallel MPI-processes    *
           *              working on a common directory               *
           ************************************************************
-------------------------------------------------------------------------------
                                 ORCA SCF
-------------------------------------------------------------------------------

------------
SCF SETTINGS
------------
Hamiltonian:
 Ab initio Hamiltonian  Method          .... Hartree-Fock(GTOs)


General Settings:
 Integral files         IntName         .... 64_Cr
 Hartree-Fock type      HFTyp           .... UHF
 Total Charge           Charge          ....    0
 Multiplicity           Mult            ....    7
 Number of Electrons    NEL             ....   24
 Basis Dimension        Dim             ....   93
 Nuclear Repulsion      ENuc            ....      0.0000000000 Eh

Convergence Acceleration:
 DIIS                   CNVDIIS         .... on
   Start iteration      DIISMaxIt       ....    12
   Startup error        DIISStart       ....  0.200000
   # of expansion vecs  DIISMaxEq       ....     5
   Bias factor          DIISBfac        ....   1.050
   Max. coefficient     DIISMaxC        ....  10.000
 Newton-Raphson         CNVNR           .... off
 SOSCF                  CNVSOSCF        .... off
 Level Shifting         CNVShift        .... on
   Level shift para.    LevelShift      ....    0.2500
   Turn off err/grad.   ShiftErr        ....    0.0010
 Zerner damping         CNVZerner       .... off
 Static damping         CNVDamp         .... on
   Fraction old density DampFac         ....    0.7000
   Max. Damping (<1)    DampMax         ....    0.9800
   Min. Damping (>=0)   DampMin         ....    0.0000
   Turn off err/grad.   DampErr         ....    0.1000
 Fernandez-Rico         CNVRico         .... off

SCF Procedure:
 Maximum # iterations   MaxIter         ....   125
 SCF integral mode      SCFMode         .... Direct
   Integral package                     .... LIBINT
 Reset frequency        DirectResetFreq ....    20
 Integral Threshold     Thresh          ....  1.000e-12 Eh
 Primitive CutOff       TCut            ....  1.000e-14 Eh

Convergence Tolerance:
 Convergence Check Mode ConvCheckMode   .... Total+1el-Energy
 Convergence forced     ConvForced      .... 1
 Energy Change          TolE            ....  1.000e-09 Eh
 1-El. energy change                    ....  1.000e-06 Eh
 DIIS Error             TolErr          ....  1.000e-08


Diagonalization of the overlap matrix:
Smallest eigenvalue                        ... 1.196e-03
Time for diagonalization                   ...    0.003 sec
Threshold for overlap eigenvalues          ... 1.000e-08
Number of eigenvalues below threshold      ... 0
Time for construction of square roots      ...    0.001 sec
Total time needed                          ...    0.005 sec

---------------------
INITIAL GUESS: MOREAD
---------------------
Guess MOs are being read from file: 64_Cr.ges
Input Geometry matches current geometry (good)
Atom 0: N(Shells)= 27 and 18 - projection required
Input basis set needs projection
NBasis(read)= 64
NBasis(calc)= 93
Basis set overlap was calculated
Using GuessMode=FMatrix for the initial guess
C*T matrix was formed
Effective Fockian was calculated
Effective Fockian was diagonalized
Initial density was built
C*T matrix was formed
Effective Fockian was calculated
Effective Fockian was diagonalized
Initial density was built
                      ------------------
                      INITIAL GUESS DONE (   0.0 sec)
                      ------------------
--------------
SCF ITERATIONS
--------------
ITER       Energy         Delta-E        Max-DP      RMS-DP      [F,P]     Damp
               ***  Starting incremental Fock matrix formation  ***
  0  -1043.3541895321   0.000000000000 0.00677574  0.00015439  0.0600138 0.7000
  1  -1043.3546798420  -0.000490309805 0.00479563  0.00011099  0.0419274 0.7000
                               ***Turning on DIIS***
  2  -1043.3550259432  -0.000346101294 0.01128665  0.00026411  0.0292926 0.0000
  3  -1043.3558467055  -0.000820762213 0.00068092  0.00002004  0.0006369 0.0000
  4  -1043.3487507488   0.007095956703 0.00034056  0.00000630  0.0003960 0.0000
  5  -1043.3567681987  -0.008017449934 0.00025812  0.00000303  0.0000536 0.0000
  6  -1043.3558323401   0.000935858566 0.00016692  0.00000176  0.0000127 0.0000
  7  -1043.3558452585  -0.000012918362 0.00008822  0.00000094  0.0000051 0.0000
  8  -1043.3558471201  -0.000001861649 0.00001455  0.00000016  0.0000009 0.0000
  9  -1043.3558481439  -0.000001023775 0.00000050  0.00000001  0.0000001 0.0000
                            ***DIIS convergence achieved***

               *****************************************************
               *                     SUCCESS                       *
               *           SCF CONVERGED AFTER  10 CYCLES          *
               *****************************************************


----------------
TOTAL SCF ENERGY
----------------

Total Energy       :        -1043.35584778 Eh          -28391.15600 eV

Components:
Nuclear Repulsion  :            0.00000000 Eh               0.00000 eV
Electronic Energy  :        -1043.35584778 Eh          -28391.15600 eV
One Electron Energy:        -1439.72199332 Eh          -39176.82715 eV
Two Electron Energy:          396.36614553 Eh           10785.67115 eV

Virial components:
Potential Energy   :        -2086.69103233 Eh          -56781.74972 eV
Kinetic Energy     :         1043.33518455 Eh           28390.59372 eV
Virial Ratio       :            2.00001980


---------------
SCF CONVERGENCE
---------------

  Last Energy change         ...    3.5980e-07  Tolerance :   1.0000e-09
  Last MAX-Density change    ...    5.1282e-07  Tolerance :   1.0000e-08
  Last RMS-Density change    ...    5.0283e-09  Tolerance :   1.0000e-09
  Last DIIS Error            ...    1.8022e-08  Tolerance :   1.0000e-08

             **** THE GBW FILE WAS UPDATED (64_Cr.gbw) ****
             **** DENSITY FILE WAS UPDATED (64_Cr.scfp) ****
             **** ENERGY FILE WAS UPDATED (64_Cr.en.tmp) ****
----------------------
UHF SPIN CONTAMINATION
----------------------

Expectation value of <S**2>     :    12.000055
Ideal value S*(S+1) for S=3.0   :    12.000000
Deviation                       :     0.000055

             **** THE GBW FILE WAS UPDATED (64_Cr.gbw) ****
             **** DENSITY FILE WAS UPDATED (64_Cr.scfp) ****
----------------
ORBITAL ENERGIES
----------------
                 SPIN UP ORBITALS
  NO   OCC          E(Eh)            E(eV) 
   0   1.0000    -220.387690     -5997.0539 
   1   1.0000     -26.259338      -714.5529 
   2   1.0000     -22.188716      -603.7857 
   3   1.0000     -22.188716      -603.7857 
   4   1.0000     -22.188716      -603.7857 
   5   1.0000      -3.458540       -94.1117 
   6   1.0000      -2.261491       -61.5383 
   7   1.0000      -2.261491       -61.5383 
   8   1.0000      -2.261491       -61.5383 
   9   1.0000      -0.373398       -10.1607 
  10   1.0000      -0.373398       -10.1607 
  11   1.0000      -0.373398       -10.1607 
  12   1.0000      -0.373398       -10.1607 
  13   1.0000      -0.373398       -10.1607 
  14   1.0000      -0.222187        -6.0460 
  15   0.0000       0.027279         0.7423 
  16   0.0000       0.027279         0.7423 
  17   0.0000       0.027279         0.7423 
  18   0.0000       0.088358         2.4043 
  19   0.0000       0.131706         3.5839 
  20   0.0000       0.131706         3.5839 
  21   0.0000       0.131706         3.5839 
  22   0.0000       0.177186         4.8215 
  23   0.0000       0.177186         4.8215 
  24   0.0000       0.177186         4.8215 
  25   0.0000       0.177186         4.8215 
  26   0.0000       0.177186         4.8215 
  27   0.0000       0.452061        12.3012 
  28   0.0000       0.452061        12.3012 
  29   0.0000       0.452061        12.3012 
  30   0.0000       0.453412        12.3380 
  31   0.0000       0.618969        16.8430 
  32   0.0000       0.618969        16.8430 
  33   0.0000       0.618969        16.8430 
  34   0.0000       0.618969        16.8430 
  35   0.0000       0.618969        16.8430 
  36   0.0000       1.266211        34.4554 
  37   0.0000       1.266211        34.4554 
  38   0.0000       1.266211        34.4554 
  39   0.0000       1.266211        34.4554 
  40   0.0000       1.266211        34.4554 
  41   0.0000       1.266211        34.4554 
  42   0.0000       1.266211        34.4554 
  43   0.0000       1.504414        40.9372 
  44   0.0000       1.504414        40.9372 
  45   0.0000       1.504414        40.9372 
  46   0.0000       1.876940        51.0741 
  47   0.0000       1.876940        51.0741 
  48   0.0000       1.876940        51.0741 
  49   0.0000       1.876940        51.0741 
  50   0.0000       1.876940        51.0741 
  51   0.0000       2.226939        60.5981 
  52   0.0000       3.351343        91.1947 
  53   0.0000       3.351343        91.1947 
  54   0.0000       3.351343        91.1947 
  55   0.0000       3.351343        91.1947 
  56   0.0000       3.351343        91.1947 
  57   0.0000       3.351343        91.1947 
  58   0.0000       3.351343        91.1947 
  59   0.0000       3.351343        91.1947 
  60   0.0000       3.351343        91.1947 
  61   0.0000       3.929735       106.9335 
  62   0.0000       3.929735       106.9335 
  63   0.0000       3.929735       106.9335 
  64   0.0000       3.929735       106.9335 
  65   0.0000       3.929735       106.9335 
  66   0.0000       3.929735       106.9335 
  67   0.0000       3.929735       106.9335 
  68   0.0000       5.348174       145.5312 
  69   0.0000       5.348174       145.5312 
  70   0.0000       5.348174       145.5312 
  71   0.0000       5.348174       145.5312 
  72   0.0000       5.348174       145.5312 
  73   0.0000       8.759956       238.3705 
  74   0.0000      11.780954       320.5761 
  75   0.0000      11.780954       320.5761 
  76   0.0000      11.780954       320.5761 
  77   0.0000      11.780954       320.5761 
  78   0.0000      11.780954       320.5761 
  79   0.0000      11.780954       320.5761 
  80   0.0000      11.780954       320.5761 
  81   0.0000      11.815636       321.5198 
  82   0.0000      11.815636       321.5198 
  83   0.0000      11.815636       321.5198 
  84   0.0000      11.815636       321.5198 
  85   0.0000      11.815636       321.5198 
  86   0.0000      11.815636       321.5198 
  87   0.0000      11.815636       321.5198 
  88   0.0000      11.815636       321.5198 
  89   0.0000      11.815636       321.5198 
  90   0.0000      29.712134       808.5083 
  91   0.0000      99.620027      2710.7987 
  92   0.0000     627.285999     17069.3198 

                 SPIN DOWN ORBITALS
  NO   OCC          E(Eh)            E(eV) 
   0   1.0000    -220.386049     -5997.0093 
   1   1.0000     -26.158605      -711.8118 
   2   1.0000     -22.089727      -601.0920 
   3   1.0000     -22.089727      -601.0920 
   4   1.0000     -22.089727      -601.0920 
   5   1.0000      -3.111161       -84.6590 
   6   1.0000      -1.839780       -50.0630 
   7   1.0000      -1.839780       -50.0630 
   8   1.0000      -1.839780       -50.0630 
   9   0.0000       0.023035         0.6268 
  10   0.0000       0.050763         1.3813 
  11   0.0000       0.050763         1.3813 
  12   0.0000       0.050763         1.3813 
  13   0.0000       0.141339         3.8460 
  14   0.0000       0.175745         4.7823 
  15   0.0000       0.175745         4.7823 
  16   0.0000       0.175745         4.7823 
  17   0.0000       0.175745         4.7823 
  18   0.0000       0.175745         4.7823 
  19   0.0000       0.178693         4.8625 
  20   0.0000       0.178693         4.8625 
  21   0.0000       0.178693         4.8625 
  22   0.0000       0.401405        10.9228 
  23   0.0000       0.401405        10.9228 
  24   0.0000       0.401405        10.9228 
  25   0.0000       0.401405        10.9228 
  26   0.0000       0.401405        10.9228 
  27   0.0000       0.509987        13.8775 
  28   0.0000       0.509987        13.8775 
  29   0.0000       0.509987        13.8775 
  30   0.0000       0.524608        14.2753 
  31   0.0000       0.777366        21.1532 
  32   0.0000       0.777366        21.1532 
  33   0.0000       0.777366        21.1532 
  34   0.0000       0.777366        21.1532 
  35   0.0000       0.777366        21.1532 
  36   0.0000       1.360059        37.0091 
  37   0.0000       1.360059        37.0091 
  38   0.0000       1.360059        37.0091 
  39   0.0000       1.360059        37.0091 
  40   0.0000       1.360059        37.0091 
  41   0.0000       1.360059        37.0091 
  42   0.0000       1.360059        37.0091 
  43   0.0000       1.602308        43.6010 
  44   0.0000       1.602308        43.6010 
  45   0.0000       1.602308        43.6010 
  46   0.0000       2.029488        55.2252 
  47   0.0000       2.029488        55.2252 
  48   0.0000       2.029488        55.2252 
  49   0.0000       2.029488        55.2252 
  50   0.0000       2.029488        55.2252 
  51   0.0000       2.327091        63.3234 
  52   0.0000       3.429615        93.3246 
[...]
Max. Number of MO pairs treated together   ... 74966      
Max. Number of MOs treated per batch       ...  806      
Number Format for Storage                  ... Double (8 Byte)
AO-integral source                         ... DIRECT
Integral package used                      ... LIBINT

Starting integral evaluation:
<sp|**>:        24948 b        0 skpd     0.009 s (  0.000 ms/b)
<sd|**>:        24948 b        0 skpd     0.032 s (  0.001 ms/b)
<sf|**>:        20790 b        0 skpd     0.041 s (  0.002 ms/b)
       12474 b        0 skpd     0.017 s (  0.001 ms/b)
<sg|**>: <pp|**>:         8316 b        0 skpd     0.029 s (  0.003 ms/b)
        7938 b        0 skpd     0.058 s (  0.007 ms/b)
<pd|**>:        11340 b        0 skpd     0.073 s (  0.006 ms/b)
<pf|**>:         6804 b        0 skpd     0.026 s (  0.004 ms/b)
<pg|**>:         4536 b        0 skpd     0.047 s (  0.010 ms/b)
<dd|**>:         5670 b        0 skpd     0.075 s (  0.013 ms/b)
<df|**>:         5670 b        0 skpd     0.031 s (  0.005 ms/b)
<dg|**>:         3780 b        0 skpd     0.049 s (  0.013 ms/b)
<ff|**>:         2268 b        0 skpd     0.017 s (  0.007 ms/b)
<fg|**>:         2268 b        0 skpd     0.025 s (  0.011 ms/b)
<gg|**>:         1134 b        0 skpd     0.039 s (  0.035 ms/b)
Closing buffer AOJ[aa] ( 0.00 GB; CompressionRatio= 0.97)
Closing buffer AOJ[bb] ( 0.00 GB; CompressionRatio= 0.00)
Collecting buffer AOJ 
    ... done with AO integral generation
Number of Alpha-MO pairs included          ...   55
Number of Beta-MO pairs included           ...   10
    ... Now sorting integrals
SORTING ALPHA/ALPHA PAIRS
IBATCH = 1 of  1
Closing buffer JAO[aa] ( 0.00 GB; CompressionRatio= 1.00)
SORTING BETA/BETA PAIRS
IBATCH = 1 of  1
Closing buffer JAO[bb] ( 0.00 GB; CompressionRatio= 1.00)
Collecting buffer JAO 
TOTAL TIME for half transformation         ...     0.592 sec
AO-integral generation                     ...     0.568 sec
Half transformation                        ...     0.009 sec
J-integral sorting                         ...     0.011 sec

-------------------------- SECOND HALF TRANSFORMATION -------------------------
Formation of (ij|kl),(ij|ka), (ij|ab)      ... ok (     0.030 sec)
Formation of (ik|jl),(ik|ja), (ia|jb)      ... ok (     0.041 sec)


-----------------------
SPIN UNRESTRICTED GUESS
-----------------------

Entering MDCI_UHF_Guess, Tailored=0
Spin-components of the MP2 energy:
EMP2(aa)=     -0.151287648
EMP2(bb)=     -0.028724063
EMP2(ab)=     -0.256507941

Initial guess performed in     0.014 sec
E(0)                                       ...  -1043.355847875
E(MP2)                                     ...     -0.436519652
Initial E(tot)                             ...  -1043.792367527
<T|T>                                      ...      0.076009643
Number of pairs included                   ... 91

------------------------------------------------
                  UHF COUPLED CLUSTER ITERATIONS
------------------------------------------------

Number of amplitudes to be optimized       ...       420696

Iter       E(tot)           E(Corr)          Delta-E          Residual     Time      <S|S>**1/2
  0  -1043.792367527     -0.436519652      0.000000000      0.018722940    0.66      0.000000013
                           *** Turning on DIIS ***
  1  -1043.782381365     -0.426533490      0.009986161      0.007059727    0.70      0.037753684
  2  -1043.789146670     -0.433298795     -0.006765304      0.004063182    0.73      0.043676436
  3  -1043.789879860     -0.434031985     -0.000733190      0.002572455    0.70      0.053707649
  4  -1043.790344061     -0.434496186     -0.000464201      0.001406588    0.70      0.059996804
  5  -1043.790532905     -0.434685030     -0.000188844      0.000466564    0.72      0.064734528
  6  -1043.790568825     -0.434720950     -0.000035920      0.000117531    0.72      0.066119930
  7  -1043.790574011     -0.434726136     -0.000005186      0.000037964    0.72      0.066360028
  8  -1043.790575767     -0.434727892     -0.000001756      0.000009410    0.71      0.066435298
  9  -1043.790575877     -0.434728002     -0.000000110      0.000003516    0.73      0.066447536
 10  -1043.790576053     -0.434728178     -0.000000176      0.000001069    0.72      0.066452159
 11  -1043.790576056     -0.434728181     -0.000000003      0.000000279    0.75      0.066453154
               --- The Coupled-Cluster iterations have converged ---

----------------------
COUPLED CLUSTER ENERGY
----------------------

E(0)                                       ...  -1043.355847875
E(CORR)                                    ...     -0.434728181
E(TOT)                                     ...  -1043.790576056
Singles norm <S|S>**1/2                    ...      0.066453154 ( 0.063162412, 0.003290742)  
T1 diagnostic                              ...      0.017760353                              

------------------
LARGEST AMPLITUDES
------------------
  14a-> 18a  -1a-> -1a       0.049156
  14a-> 30a  -1a-> -1a       0.035309
  12a-> 26a  -1a-> -1a       0.019320
  13a-> 25a  -1a-> -1a       0.017819
  12a-> 33a  10a-> 32a       0.017202
  12a-> 32a  10a-> 33a       0.017202
  13a-> 34a  11a-> 35a       0.016339
  13a-> 35a  11a-> 34a       0.016339
  10a-> 23a  -1a-> -1a       0.014353
  13a-> 23a  -1a-> -1a       0.013921
  11a-> 24a  -1a-> -1a       0.013907
   8b-> 26b   7b-> 22b       0.013499
   8b-> 22b   7b-> 26b       0.013499
  11a-> 35a   9a-> 31a       0.013497
  11a-> 31a   9a-> 35a       0.013497
  12a-> 31a   9a-> 33a       0.013093

----------------------
UHF TRIPLES CORRECTION (Algorithm 1)
----------------------

Multiplier for the singles contribution    ...      1.000000000

SPIN-CASE Alpha-Alpha-Alpha:
10% done
20% done
30% done
40% done
50% done
60% done
70% done
80% done
90% done


SPIN-CASE Beta-Beta-Beta:
10% done
20% done
30% done
40% done
50% done
60% done
70% done
80% done
90% done


SPIN-CASE Alpha-Alpha-Beta:
10% done
20% done
30% done
40% done
50% done
60% done
70% done
80% done
90% done


SPIN-CASE Beta-Beta-Alpha:
10% done
20% done
30% done
40% done
50% done
60% done
70% done
80% done
90% done


Triples Correction (T)                     ...     -0.012610880
    alpha-alpha-alpha ... -0.003462572 ( 27.5%)
    alpha-alpha-beta  ... -0.006732468 ( 53.4%)
    alpha-beta -beta  ... -0.002279457 ( 18.1%)
    beta -beta -beta  ... -0.000136384 (  1.1%)
Scaling of triples based on CCSD energies (Peterson et al. Molecular Physics 113, 1551 (2015))
E(T*) = f*E(T) where f = E(F12-CCSD)/E(CCSD) 
f = CCSD (with F12)/ CCSD (without F12)    ...      1.000000000
Scaled triples correction (T)              ...     -0.012610880

Final correlation energy                   ...     -0.447339061
E(CCSD)                                    ...  -1043.790576056
E(CCSD(T))                                 ...  -1043.803186936



        !!!!!!!!!!!!!!!!!!!!!!!!!!!!!!!!!!!!!!!!!!!!!!!!!!!!!!!!!!!!!!!!!!!!!!!!!! 
        !  Warning: Densities are linearized densities                           !
        !!!!!!!!!!!!!!!!!!!!!!!!!!!!!!!!!!!!!!!!!!!!!!!!!!!!!!!!!!!!!!!!!!!!!!!!!! 

NORM  =      1.083343954 sqrt=     1.040838102
W(HF) =      0.923067873
------------------------------------------------------------------------------
                           ORCA POPULATION ANALYSIS
------------------------------------------------------------------------------
Input electron density              ... 64_Cr.mdcip
Input spin density                  ... 64_Cr.mdcir
BaseName (.gbw .S,...)              ... 64_Cr

                    ********************************
                    * MULLIKEN POPULATION ANALYSIS *
                    ********************************

------------------------------------------
MULLIKEN ATOMIC CHARGES AND SPIN DENSITIES
------------------------------------------
   0 Cr:   -0.000000    6.000000
Sum of atomic charges       :   -0.0000000
Sum of atomic spin densities:    6.0000000

---------------------------------------------------
MULLIKEN REDUCED ORBITAL CHARGES AND SPIN DENSITIES
---------------------------------------------------
CHARGE
  0 Crs       :     6.989056  s :     6.989056
      pz      :     3.990026  p :    11.970078
      px      :     3.990026
      py      :     3.990026
      dz2     :     1.000948  d :     5.004739
      dxz     :     1.000948
      dyz     :     1.000948
      dx2y2   :     1.000948
      dxy     :     1.000948
      f0      :     0.004606  f :     0.032243
      f+1     :     0.004606
      f-1     :     0.004606
      f+2     :     0.004606
      f-2     :     0.004606
      f+3     :     0.004606
      f-3     :     0.004606
      g0      :     0.000432  g :     0.003884
      g+1     :     0.000432
      g-1     :     0.000432
      g+2     :     0.000432
      g-2     :     0.000432
      g+3     :     0.000432
      g-3     :     0.000432
      g+4     :     0.000432
      g-4     :     0.000432

SPIN
  0 Crs       :     0.994771  s :     0.994771
      pz      :     0.011872  p :     0.035616
      px      :     0.011872
      py      :     0.011872
      dz2     :     0.988372  d :     4.941858
      dxz     :     0.988372
      dyz     :     0.988372
      dx2y2   :     0.988372
      dxy     :     0.988372
      f0      :     0.003622  f :     0.025357
      f+1     :     0.003622
      f-1     :     0.003622
      f+2     :     0.003622
      f-2     :     0.003622
      f+3     :     0.003622
      f-3     :     0.003622
      g0      :     0.000266  g :     0.002398
      g+1     :     0.000266
      g-1     :     0.000266
      g+2     :     0.000266
      g-2     :     0.000266
      g+3     :     0.000266
      g-3     :     0.000266
      g+4     :     0.000266
      g-4     :     0.000266


                     *******************************
                     * LOEWDIN POPULATION ANALYSIS *
                     *******************************

-----------------------------------------
LOEWDIN ATOMIC CHARGES AND SPIN DENSITIES
-----------------------------------------
   0 Cr:   -0.000000    6.000000

--------------------------------------------------
LOEWDIN REDUCED ORBITAL CHARGES AND SPIN DENSITIES
--------------------------------------------------
CHARGE
  0 Crs       :     6.989056  s :     6.989056
      pz      :     3.990026  p :    11.970078
      px      :     3.990026
      py      :     3.990026
      dz2     :     1.000948  d :     5.004739
      dxz     :     1.000948
      dyz     :     1.000948
      dx2y2   :     1.000948
      dxy     :     1.000948
      f0      :     0.004606  f :     0.032243
      f+1     :     0.004606
      f-1     :     0.004606
      f+2     :     0.004606
      f-2     :     0.004606
      f+3     :     0.004606
      f-3     :     0.004606
      g0      :     0.000432  g :     0.003884
      g+1     :     0.000432
      g-1     :     0.000432
      g+2     :     0.000432
      g-2     :     0.000432
      g+3     :     0.000432
      g-3     :     0.000432
      g+4     :     0.000432
      g-4     :     0.000432

SPIN
  0 Crs       :     0.994771  s :     0.994771
      pz      :     0.011872  p :     0.035616
      px      :     0.011872
      py      :     0.011872
      dz2     :     0.988372  d :     4.941858
      dxz     :     0.988372
      dyz     :     0.988372
      dx2y2   :     0.988372
      dxy     :     0.988372
      f0      :     0.003622  f :     0.025357
      f+1     :     0.003622
      f-1     :     0.003622
      f+2     :     0.003622
      f-2     :     0.003622
      f+3     :     0.003622
      f-3     :     0.003622
      g0      :     0.000266  g :     0.002398
      g+1     :     0.000266
      g-1     :     0.000266
      g+2     :     0.000266
      g-2     :     0.000266
      g+3     :     0.000266
      g-3     :     0.000266
      g+4     :     0.000266
      g-4     :     0.000266


                      *****************************
                      * MAYER POPULATION ANALYSIS *
                      *****************************

  NA   - Mulliken gross atomic population
  ZA   - Total nuclear charge
  QA   - Mulliken gross atomic charge
  VA   - Mayer's total valence
  BVA  - Mayer's bonded valence
  FA   - Mayer's free valence

  ATOM       NA         ZA         QA         VA         BVA        FA
  0 Cr    24.0000    24.0000    -0.0000     6.3786     0.0000     6.3786





------------------------------------------------------------------------------- 
                                     TIMINGS                                   
------------------------------------------------------------------------------- 


Total execution time                   ...       11.813 sec

Fock Matrix Formation                  ...        0.229 sec (  1.9%)
Initial Guess                          ...        0.014 sec (  0.1%)
DIIS Solver                            ...        0.490 sec (  4.1%)
State Vector Update                    ...        0.024 sec (  0.2%)
Sigma-vector construction              ...        8.052 sec ( 68.2%)
  <0|H|D>                              ...        0.001 sec (  0.0% of sigma)
  <D|H|D>(0-ext Fock)                  ...        0.009 sec (  0.1% of sigma)
  <D|H|D>(0-ext)                       ...        0.027 sec (  0.3% of sigma)
  <D|H|D>(2-ext Fock)                  ...        0.003 sec (  0.0% of sigma)
  <D|H|D>(2-ext)                       ...        0.090 sec (  1.1% of sigma)
  <D|H|D>(4-ext)                       ...        4.464 sec ( 55.4% of sigma)
  <S|H|0>                              ...        0.131 sec (  1.6% of sigma)
  <S|H|S>                              ...        0.001 sec (  0.0% of sigma)
  <S|H|D>(1-ext)                       ...        0.002 sec (  0.0% of sigma)
  <D|H|S>(1-ext)                       ...        0.040 sec (  0.5% of sigma)
  Fock-dressing                        ...        1.800 sec ( 22.4% of sigma)
  (ik|jl)-dressing                     ...        0.035 sec (  0.4% of sigma)
  (ij|ab),(ia|jb)-dressing             ...        1.137 sec ( 14.1% of sigma)
  Pair energies                        ...        0.002 sec (  0.0% of sigma)
Total Time for computing (T)           ...        0.803 sec (  6.8% of ALL)
  I/O of integral and amplitudes       ...        0.187 sec ( 23.3% of (T))
  External N**7 contributions          ...        0.212 sec ( 26.4% of (T))
  Internal N**7 contributions          ...        0.111 sec ( 13.9% of (T))
  N**6 triples energy contributions    ...        0.259 sec ( 32.2% of (T))


-------------------
EXTRAPOLATED ENERGY
-------------------


-----------------------------------------------------------------
                      EP1 - MDCI extrapolation:
-----------------------------------------------------------------
NOTE: We use as reference SCF energy, for the extrapolation, the one from the MDCI module and not the one 
from the SCF calculation. In case the first step is a DFT calculation these two might be different.

NOTE: For the SCF part we extrapolate based on the scheme proposed in J. Chem. Phys. 2008, 129, 184116
using the exponents from J. Chem. Theory Comput., 7, 33-43 (2011)

NOTE: For the correlation part we extrapolate based on the scheme proposed in J. Chem. Phys. 1997, 106, 9639
using the exponents from J. Chem. Theory Comput., 7, 33-43 (2011)


Alpha(3/4)     :  7.880 (SCF Extrapolation)
Beta(3/4)      :  2.970 (correlation extrapolation)

SCF energy with basis def2-TZVPP:                     -1043.334611154
SCF energy with basis def2-QZVPP:                     -1043.355847875
Extrapolated CBS SCF energy (3/4) :                   -1043.358772993 (-0.002925118) 

MDCI energy with basis def2-TZVPP:                       -0.417679483
MDCI energy with basis def2-QZVPP:                       -0.447339061
Extrapolated CBS correlation energy (3/4) :              -0.469309103 (-0.021970042)

Estimated CBS total energy (3/4) :                    -1043.828082096



-------------------------   --------------------
FINAL SINGLE POINT ENERGY     -1043.828082096097
-------------------------   --------------------


                            ***************************************
                            *     ORCA property calculations      *
                            ***************************************

                                    ---------------------
                                    Active property flags
                                    ---------------------
   (+) Dipole Moment


------------------------------------------------------------------------------
                       ORCA ELECTRIC PROPERTIES CALCULATION
------------------------------------------------------------------------------

Dipole Moment Calculation                       ... on
Quadrupole Moment Calculation                   ... off
Polarizability Calculation                      ... off
GBWName                                         ... 64_Cr.gbw
Electron density file                           ... 64_Cr.scfp
The origin for moment calculation is the CENTER OF MASS  = ( 0.000000,  0.000000  0.000000)

-------------
DIPOLE MOMENT
-------------
                                X             Y             Z
Electronic contribution:     -0.00000      -0.00000      -0.00000
Nuclear contribution   :      0.00000       0.00000       0.00000
                        -----------------------------------------
Total Dipole Moment    :     -0.00000      -0.00000      -0.00000
                        -----------------------------------------
Magnitude (a.u.)       :      0.00000
Magnitude (Debye)      :      0.00000



--------------------
Rotational spectrum 
--------------------
 
Rotational constants in cm-1:     0.000000     0.000000     0.000000 
Rotational constants in MHz :     0.000000     0.000000     0.000000 

 Dipole components along the rotational axes: 
x,y,z [a.u.] :    -0.000000    -0.000000    -0.000000 
x,y,z [Debye]:    -0.000000    -0.000000    -0.000000 

 

                           *** MDCI DENSITY ***

------------------------------------------------------------------------------
                       ORCA ELECTRIC PROPERTIES CALCULATION
------------------------------------------------------------------------------

Dipole Moment Calculation                       ... on
Quadrupole Moment Calculation                   ... off
Polarizability Calculation                      ... off
GBWName                                         ... 64_Cr.gbw
Electron density file                           ... 64_Cr.mdcip
The origin for moment calculation is the CENTER OF MASS  = ( 0.000000,  0.000000  0.000000)

-------------
DIPOLE MOMENT
-------------
                                X             Y             Z
Electronic contribution:     -0.00000      -0.00000       0.00000
Nuclear contribution   :      0.00000       0.00000       0.00000
                        -----------------------------------------
Total Dipole Moment    :     -0.00000      -0.00000       0.00000
                        -----------------------------------------
Magnitude (a.u.)       :      0.00000
Magnitude (Debye)      :      0.00000



--------------------
Rotational spectrum 
--------------------
 
Rotational constants in cm-1:     0.000000     0.000000     0.000000 
Rotational constants in MHz :     0.000000     0.000000     0.000000 

 Dipole components along the rotational axes: 
x,y,z [a.u.] :    -0.000000    -0.000000     0.000000 
x,y,z [Debye]:    -0.000000    -0.000000     0.000000 

 

Timings for individual modules:

Sum of individual times         ...       22.915 sec (=   0.382 min)
GTO integral calculation        ...        1.817 sec (=   0.030 min)   7.9 %
SCF iterations                  ...        4.885 sec (=   0.081 min)  21.3 %
MDCI module                     ...       16.213 sec (=   0.270 min)  70.8 %
                             ****ORCA TERMINATED NORMALLY****
TOTAL RUN TIME: 0 days 0 hours 0 minutes 23 seconds 820 msec
