
                                 *****************
                                 * O   R   C   A *
                                 *****************

           --- An Ab Initio, DFT and Semiempirical electronic structure package ---

                  #######################################################
                  #                        -***-                        #
                  #          Department of theory and spectroscopy      #
                  #               Directorship: Frank Neese             #
                  #        Max Planck Institute fuer Kohlenforschung    #
                  #                Kaiser Wilhelm Platz 1               #
                  #                 D-45470 Muelheim/Ruhr               #
                  #                      Germany                        #
                  #                                                     #
                  #                  All rights reserved                #
                  #                        -***-                        #
                  #######################################################


                         Program Version 4.2.0 -  RELEASE  -


 With contributions from (in alphabetic order):
   Daniel Aravena         : Magnetic Suceptibility
   Michael Atanasov       : Ab Initio Ligand Field Theory (pilot matlab implementation)
   Alexander A. Auer      : GIAO ZORA, VPT2
   Ute Becker             : Parallelization
   Giovanni Bistoni       : ED, misc. LED, open-shell LED, HFLED
   Martin Brehm           : Molecular dynamics
   Dmytro Bykov           : SCF Hessian
   Vijay G. Chilkuri      : MRCI spin determinant printing, contributions to CSF-ICE
   Dipayan Datta          : RHF DLPNO-CCSD density
   Achintya Kumar Dutta   : EOM-CC, STEOM-CC
   Dmitry Ganyushin       : Spin-Orbit,Spin-Spin,Magnetic field MRCI
   Miquel Garcia          : C-PCM Hessian, Gaussian charge scheme
   Yang Guo               : DLPNO-NEVPT2, CIM, IAO-localization
   Andreas Hansen         : Spin unrestricted coupled pair/coupled cluster methods
   Benjamin Helmich-Paris : CASSCF linear response (MC-RPA)
   Lee Huntington         : MR-EOM, pCC
   Robert Izsak           : Overlap fitted RIJCOSX, COSX-SCS-MP3, EOM
   Christian Kollmar      : KDIIS, OOCD, Brueckner-CCSD(T), CCSD density
   Simone Kossmann        : Meta GGA functionals, TD-DFT gradient, OOMP2, MP2 Hessian
   Martin Krupicka        : AUTO-CI
   Lucas Lang             : DCDCAS
   Dagmar Lenk            : GEPOL surface, SMD
   Dimitrios Liakos       : Extrapolation schemes; Compound Job, initial MDCI parallelization
   Dimitrios Manganas     : Further ROCIS development; embedding schemes
   Dimitrios Pantazis     : SARC Basis sets
   Taras Petrenko         : DFT Hessian,TD-DFT gradient, ASA, ECA, R-Raman, ABS, FL, XAS/XES, NRVS
   Peter Pinski           : DLPNO-MP2, DLPNO-MP2 Gradient
   Christoph Reimann      : Effective Core Potentials
   Marius Retegan         : Local ZFS, SOC
   Christoph Riplinger    : Optimizer, TS searches, QM/MM, DLPNO-CCSD(T), (RO)-DLPNO pert. Triples
   Tobias Risthaus        : Range-separated hybrids, TD-DFT gradient, RPA, STAB
   Michael Roemelt        : Original ROCIS implementation
   Masaaki Saitow         : Open-shell DLPNO-CCSD energy and density
   Barbara Sandhoefer     : DKH picture change effects
   Avijit Sen             : IP-ROCIS
   Kantharuban Sivalingam : CASSCF convergence, NEVPT2, FIC-MRCI
   Bernardo de Souza      : ESD, SOC TD-DFT
   Georgi Stoychev        : AutoAux, RI-MP2 NMR
   Willem Van den Heuvel  : Paramagnetic NMR
   Boris Wezisla          : Elementary symmetry handling
   Frank Wennmohs         : Technical directorship


 We gratefully acknowledge several colleagues who have allowed us to
 interface, adapt or use parts of their codes:
   Stefan Grimme, W. Hujo, H. Kruse,             : VdW corrections, initial TS optimization,
                  C. Bannwarth                     DFT functionals, gCP, sTDA/sTD-DF
   Ed Valeev, F. Pavosevic, A. Kumar             : LibInt (2-el integral package), F12 methods
   Garnet Chan, S. Sharma, J. Yang, R. Olivares  : DMRG
   Ulf Ekstrom                                   : XCFun DFT Library
   Mihaly Kallay                                 : mrcc  (arbitrary order and MRCC methods)
   Andreas Klamt, Michael Diedenhofen            : otool_cosmo (COSMO solvation model)
   Jiri Pittner, Ondrej Demel                    : Mk-CCSD
   Frank Weinhold                                : gennbo (NPA and NBO analysis)
   Christopher J. Cramer and Donald G. Truhlar   : smd solvation model
   Lars Goerigk                                  : TD-DFT with DH, B97 family of functionals
   V. Asgeirsson, H. Jonsson                     : NEB implementation
   FAccTs GmbH                                   : IRC, NEB, NEB-TS, Multilevel, MM, QM/MM, CI optimization
   S Lehtola, MJT Oliveira, MAL Marques          : LibXC Library


 Your calculation uses the libint2 library for the computation of 2-el integrals
 For citations please refer to: http://libint.valeyev.net

 Your ORCA version has been built with support for libXC version: 4.2.3
 For citations please refer to: https://tddft.org/programs/libxc/

 This ORCA versions uses:
   CBLAS   interface :  Fast vector & matrix operations
   LAPACKE interface :  Fast linear algebra routines
   SCALAPACK package :  Parallel linear algebra routines


----- Orbital basis set information -----
Your calculation utilizes the basis: def2-TZVPP
   F. Weigend and R. Ahlrichs, Phys. Chem. Chem. Phys. 7, 3297 (2005).

================================================================================
                                        WARNINGS
                       Please study these warnings very carefully!
================================================================================


WARNING: your system is open-shell and RHF/RKS was chosen
  ===> : WILL SWITCH to UHF/UKS


WARNING: MDCI localization with Augmented Hessian Foster-Boys
  ===> : Switching off randomization!

WARNING: Post HF methods need fully converged wavefunctions
  ===> : Setting SCFConvForced true
         You can overwrite this default with %scf ConvForced false 


INFO   : the flag for use of LIBINT has been found!

================================================================================
                                       INPUT FILE
================================================================================
NAME = 65_Mn.in
|  1> #
|  2> # 65_Mn ccsd(t)/cbs
|  3> #
|  4> ! ccsd(t) extrapolate(3/4,def2) verytightscf slowconv
|  5> 
|  6> *xyz 0 6
|  7> Mn 0.0 0.0 0.0
|  8> *
|  9> 
| 10> %maxcore 5000
| 11> 
| 12> %scf
| 13> MaxIter 1500
| 14> DIISMaxEq 15
| 15> directresetfreq 1
| 16> end
| 17> 
| 18> %pal
| 19> nprocs 24
| 20> end
| 21> 
| 22> 
| 23>                          ****END OF INPUT****
================================================================================

                   *****************************************
                   * Extrapolated Single Point Calculation *
                   *****************************************

----- Orbital basis set information -----
Your calculation utilizes the basis: def2-TZVPP
   F. Weigend and R. Ahlrichs, Phys. Chem. Chem. Phys. 7, 3297 (2005).

----- AuxJ basis set information -----
Your calculation utilizes the auxiliary basis: def2/J
   F. Weigend, Phys. Chem. Chem. Phys. 8, 1057 (2006).

----- AuxC basis set information -----
Your calculation utilizes the auxiliary basis: def2-TZVPP/C
  H-La, Hf-Rn : A. Hellweg, C. Hattig, S. Hofener and W. Klopper, Theor. Chem. Acc. 117, 587 (2007).
        Ce-Lu : J. Chmela and M. E. Harding, Mol. Phys. (2018).

----- AuxJK basis set information -----
Your calculation utilizes the auxiliary basis: def2/JK
   H-Ba, Hf-Rn: F. Weigend, J. Comput. Chem. 29, 167 (2008).

All done

                     -----------------------------------------
                     Extrapolated Energy 1 Basis=  def2-TZVPP
                     -----------------------------------------

---------------------------------
CARTESIAN COORDINATES (ANGSTROEM)
---------------------------------
  Mn     0.000000    0.000000    0.000000

----------------------------
CARTESIAN COORDINATES (A.U.)
----------------------------
  NO LB      ZA    FRAG     MASS         X           Y           Z
   0 Mn   25.0000    0    54.940    0.000000    0.000000    0.000000

--------------------------------
INTERNAL COORDINATES (ANGSTROEM)
--------------------------------
 Mn     0   0   0     0.000000000000     0.00000000     0.00000000

---------------------------
INTERNAL COORDINATES (A.U.)
---------------------------
 Mn     0   0   0     0.000000000000     0.00000000     0.00000000

---------------------
BASIS SET INFORMATION
---------------------
There are 1 groups of distinct atoms

 Group   1 Type Mn  : 17s12p7d2f1g contracted to 6s5p4d2f1g pattern {842111/63111/4111/11/1}

Atom   0Mn   basis set group =>   1
---------------------------------
AUXILIARY/J BASIS SET INFORMATION
---------------------------------
There are 1 groups of distinct atoms

 Group   1 Type Mn  : 19s5p5d3f3g contracted to 8s5p5d2f3g pattern {121111111/11111/11111/21/111}

Atom   0Mn   basis set group =>   1
---------------------------------
AUXILIARY/C BASIS SET INFORMATION
---------------------------------
There are 1 groups of distinct atoms

 Group   1 Type Mn  : 9s9p8d7f5g3h1i contracted to 9s9p8d7f5g3h1i pattern {111111111/111111111/11111111/1111111/11111/111/1}

Atom   0Mn   basis set group =>   1
----------------------------------
AUXILIARY/JK BASIS SET INFORMATION
----------------------------------
There are 1 groups of distinct atoms

 Group   1 Type Mn  : 19s14p12d10f7g3h1i contracted to 16s13p11d9f5g3h1i pattern {4111111111111111/2111111111111/21111111111/211111111/31111/111/1}

Atom   0Mn   basis set group =>   1


           ************************************************************
           *        Program running with 24 parallel MPI-processes    *
           *              working on a common directory               *
           ************************************************************
------------------------------------------------------------------------------
                           ORCA GTO INTEGRAL CALCULATION
------------------------------------------------------------------------------

                         BASIS SET STATISTICS AND STARTUP INFO

 # of primitive gaussian shells          ...   39
 # of primitive gaussian functions       ...  111
 # of contracted shells                  ...   18
 # of contracted basis functions         ...   64
 Highest angular momentum                ...    4
 Maximum contraction depth               ...    8
 Integral package used                   ... LIBINT
 Integral threshhold            Thresh   ...  1.000e-12
 Primitive cut-off              TCut     ...  1.000e-14


------------------------------ INTEGRAL EVALUATION ----------------------------


 * One electron integrals 
 Pre-screening matrix                    ... done
 Shell pair data                         ... done (   0.000 sec)



           ************************************************************
           *        Program running with 24 parallel MPI-processes    *
           *              working on a common directory               *
           ************************************************************
-------------------------------------------------------------------------------
                                 ORCA SCF
-------------------------------------------------------------------------------

------------
SCF SETTINGS
------------
Hamiltonian:
 Ab initio Hamiltonian  Method          .... Hartree-Fock(GTOs)


General Settings:
 Integral files         IntName         .... 65_Mn
 Hartree-Fock type      HFTyp           .... UHF
 Total Charge           Charge          ....    0
 Multiplicity           Mult            ....    6
 Number of Electrons    NEL             ....   25
 Basis Dimension        Dim             ....   64
 Nuclear Repulsion      ENuc            ....      0.0000000000 Eh

Convergence Acceleration:
 DIIS                   CNVDIIS         .... on
   Start iteration      DIISMaxIt       ....     0
   Startup error        DIISStart       ....  0.200000
   # of expansion vecs  DIISMaxEq       ....    15
   Bias factor          DIISBfac        ....   1.050
   Max. coefficient     DIISMaxC        ....  10.000
 Newton-Raphson         CNVNR           .... off
 SOSCF                  CNVSOSCF        .... off
 Level Shifting         CNVShift        .... on
   Level shift para.    LevelShift      ....    0.2500
   Turn off err/grad.   ShiftErr        ....    0.0000
 Zerner damping         CNVZerner       .... off
 Static damping         CNVDamp         .... on
   Fraction old density DampFac         ....    0.8500
   Max. Damping (<1)    DampMax         ....    0.9800
   Min. Damping (>=0)   DampMin         ....    0.0000
   Turn off err/grad.   DampErr         ....    0.0300
 Fernandez-Rico         CNVRico         .... off

SCF Procedure:
 Maximum # iterations   MaxIter         ....  1500
 SCF integral mode      SCFMode         .... Direct
   Integral package                     .... LIBINT
 Reset frequency        DirectResetFreq ....     1
 Integral Threshold     Thresh          ....  1.000e-12 Eh
 Primitive CutOff       TCut            ....  1.000e-14 Eh

Convergence Tolerance:
 Convergence Check Mode ConvCheckMode   .... Total+1el-Energy
 Convergence forced     ConvForced      .... 1
 Energy Change          TolE            ....  1.000e-09 Eh
 1-El. energy change                    ....  1.000e-06 Eh
 DIIS Error             TolErr          ....  1.000e-08


Diagonalization of the overlap matrix:
Smallest eigenvalue                        ... 5.218e-02
Time for diagonalization                   ...    0.002 sec
Threshold for overlap eigenvalues          ... 1.000e-08
Number of eigenvalues below threshold      ... 0
Time for construction of square roots      ...    0.001 sec
Total time needed                          ...    0.003 sec

-------------------
DFT GRID GENERATION
-------------------

General Integration Accuracy     IntAcc      ...  4.340
Radial Grid Type                 RadialGrid  ... Gauss-Chebyshev
Angular Grid (max. acc.)         AngularGrid ... Lebedev-110
Angular grid pruning method      GridPruning ... 3 (G Style)
Weight generation scheme         WeightScheme... Becke
Basis function cutoff            BFCut       ...    1.0000e-12
Integration weight cutoff        WCut        ...    1.0000e-14
Grids for H and He will be reduced by one unit

# of grid points (after initial pruning)     ...   2912 (   0.0 sec)
# of grid points (after weights+screening)   ...   2912 (   0.0 sec)
Grid point division into batches done        ...    0.0 sec
Reduced shell lists constructed in    0.0 sec

Total number of grid points                  ...     2912
Total number of batches                      ...       46
Average number of points per batch           ...       63
Average number of grid points per atom       ...     2912
Average number of shells per batch           ...     4.00 (22.22%)
Average number of basis functions per batch  ...    12.00 (18.75%)
Average number of large shells per batch     ...     4.00 (100.00%)
Average number of large basis fcns per batch ...    12.00 (100.00%)
Maximum spatial batch extension              ...  18.98, 28.73, 28.73 au
Average spatial batch extension              ...   0.83,  1.25,  1.25 au

Time for grid setup =    0.022 sec

------------------------------
INITIAL GUESS: MODEL POTENTIAL
------------------------------
Loading Hartree-Fock densities                     ... done
Calculating cut-offs                               ... done
Setting up the integral package                    ... done
Initializing the effective Hamiltonian             ... done
Starting the Coulomb interaction                   ... done (   0.0 sec)
Reading the grid                                   ... done
Mapping shells                                     ... done
Starting the XC term evaluation                    ... done (   0.0 sec)
Transforming the Hamiltonian                       ... done (   0.0 sec)
Diagonalizing the Hamiltonian                      ... done (   0.0 sec)
Back transforming the eigenvectors                 ... done (   0.0 sec)
Now organizing SCF variables                       ... done
                      ------------------
                      INITIAL GUESS DONE (   0.2 sec)
                      ------------------
--------------
SCF ITERATIONS
--------------
ITER       Energy         Delta-E        Max-DP      RMS-DP      [F,P]     Damp
  0  -1149.6962627397   0.000000000000 0.02088398  0.00038162  0.1602149 0.8500
  1  -1149.7013911401  -0.005128400413 0.02662190  0.00042486  0.1284616 0.8500
                               ***Turning on DIIS***
  2  -1149.7054503981  -0.004059258063 0.02646484  0.00040403  0.1015333 0.8500
  3  -1150.0746054194  -0.369155021275 0.02587980  0.00038238  0.0810004 0.8500
  4  -1150.1821141868  -0.107508767431 0.02557260  0.00037700  0.0683381 0.8500
  5  -1150.1238133974   0.058300789475 0.02503347  0.00037177  0.0595651 0.8500
  6  -1150.0525543060   0.071259091405 0.02394358  0.00035872  0.0520797 0.8500
  7  -1149.9974806089   0.055073697098 0.02235812  0.00033776  0.0453100 0.8500
  8  -1149.9556899038   0.041790705113 0.02049424  0.00031195  0.0392466 0.8500
  9  -1149.9224460676   0.033243836160 0.01854624  0.00028425  0.0339044 0.8500
 10  -1149.8950095343   0.027436533306 0.11093532  0.00171114  0.0292488 0.0000
 11  -1149.7327940734   0.162215460889 0.01265179  0.00020344  0.0031885 0.0000
 12  -1149.7382847951  -0.005490721674 0.01190307  0.00019335  0.0019049 0.0000
 13  -1149.7336094737   0.004675321416 0.00547750  0.00009027  0.0008697 0.0000
 14  -1149.7329465762   0.000662897409 0.00239148  0.00004201  0.0004728 0.0000
 15  -1149.7323624444   0.000584131804 0.00124926  0.00002373  0.0002841 0.0000
 16  -1149.7311154722   0.001246972202 0.00045587  0.00001086  0.0001521 0.0000
 17  -1149.7305032952   0.000612177036 0.00016481  0.00000451  0.0001675 0.0000
 18  -1149.7297854179   0.000717877318 0.00006096  0.00000146  0.0001760 0.0000
 19  -1149.7294899680   0.000295449878 0.00002374  0.00000056  0.0001765 0.0000
 20  -1149.7293810572   0.000108910759 0.00000955  0.00000022  0.0001764 0.0000
 21  -1149.7293408276   0.000040229642 0.00000363  0.00000008  0.0001763 0.0000
 22  -1149.7293258362   0.000014991370 0.00000137  0.00000003  0.0001763 0.0000
 23  -1149.7293204304   0.000005405871 0.00000054  0.00000001  0.0001762 0.0000
 24  -1149.7293188714   0.000001558989 0.00000030  0.00000001  0.0001762 0.0000
 25  -1149.7293317704  -0.000012899015 0.00000386  0.00000010  0.0001762 0.0000
 26  -1149.7293329895  -0.000001219091 0.00000557  0.00000011  0.0001766 0.0000
 27  -1149.7292948739   0.000038115557 0.00001342  0.00000035  0.0001768 0.0000
 28  -1149.7292590395   0.000035834399 0.00001533  0.00000034  0.0001779 0.0000
 29  -1149.7293105883  -0.000051548737 0.00005269  0.00000089  0.0001767 0.0000
 30  -1149.7292409904   0.000069597838 0.00005507  0.00000122  0.0001780 0.0000
 31  -1149.7294734557  -0.000232465274 0.00006204  0.00000152  0.0001799 0.0000
 32  -1149.7298702303  -0.000396774575 0.00003322  0.00000093  0.0001794 0.0000
 33  -1149.7303626954  -0.000492465150 0.00008540  0.00000217  0.0001818 0.0000
 34  -1149.7306623011  -0.000299605643 0.00003654  0.00000067  0.0001893 0.0000
 35  -1149.7307753076  -0.000113006576 0.00002374  0.00000052  0.0001892 0.0000
 36  -1149.7308040637  -0.000028756104 0.00001092  0.00000021  0.0001912 0.0000
 37  -1149.7308342715  -0.000030207716 0.00000182  0.00000005  0.0001911 0.0000
 38  -1149.7308283903   0.000005881133 0.00000210  0.00000006  0.0001911 0.0000
 39  -1149.7308145478   0.000013842543 0.00000437  0.00000010  0.0001913 0.0000
 40  -1149.7308041811   0.000010366679 0.00001114  0.00000022  0.0001917 0.0000
 41  -1149.7307941801   0.000010001052 0.00000683  0.00000014  0.0001922 0.0000
 42  -1149.7307794203   0.000014759726 0.00000377  0.00000009  0.0001919 0.0000
 43  -1149.7307521566   0.000027263744 0.00000441  0.00000009  0.0001920 0.0000
 44  -1149.7306985190   0.000053637541 0.00000898  0.00000021  0.0001922 0.0000
 45  -1149.7306051027   0.000093416387 0.00002919  0.00000061  0.0001927 0.0000
 46  -1149.7305122437   0.000092858951 0.00001183  0.00000029  0.0001910 0.0000
 47  -1149.7302739002   0.000238343490 0.00004410  0.00000090  0.0001910 0.0000
 48  -1149.7299673203   0.000306579964 0.00014208  0.00000307  0.0001935 0.0000
 49  -1149.7293028109   0.000664509383 0.00009318  0.00000178  0.0002046 0.0000
 50  -1149.7289800608   0.000322750090 0.00009712  0.00000178  0.0002016 0.0000
 51  -1149.7290585154  -0.000078454613 0.00012378  0.00000231  0.0001981 0.0000
 52  -1149.7291991573  -0.000140641876 0.00016056  0.00000303  0.0001926 0.0000
 53  -1149.7293574541  -0.000158296790 0.00021562  0.00000409  0.0001848 0.0000
 54  -1149.7295201414  -0.000162687354 0.00028457  0.00000544  0.0001740 0.0000
 55  -1149.7296717911  -0.000151649723 0.00034056  0.00000664  0.0001591 0.0000
 56  -1149.7298025316  -0.000130740431 0.00035761  0.00000728  0.0001401 0.0000
 57  -1149.7299194644  -0.000116932833 0.00033742  0.00000751  0.0001176 0.0000
 58  -1149.7300426538  -0.000123189396 0.00028704  0.00000734  0.0000926 0.0000
 59  -1149.7301411023  -0.000098448501 0.00029301  0.00000615  0.0000668 0.0000
 60  -1149.7301612265  -0.000020124187 0.00023160  0.00000425  0.0000449 0.0000
 61  -1149.7301483750   0.000012851488 0.00016828  0.00000289  0.0000297 0.0000
 62  -1149.7301438226   0.000004552436 0.00012612  0.00000216  0.0000196 0.0000
 63  -1149.7301366253   0.000007197228 0.00009488  0.00000169  0.0000127 0.0000
 64  -1149.7301288175   0.000007807792 0.00006336  0.00000117  0.0000078 0.0000
 65  -1149.7301290909  -0.000000273376 0.00003729  0.00000071  0.0000051 0.0000
 66  -1149.7301300521  -0.000000961225 0.00002041  0.00000041  0.0000047 0.0000
 67  -1149.7301318913  -0.000001839146 0.00001043  0.00000023  0.0000047 0.0000
 68  -1149.7301347168  -0.000002825474 0.00000500  0.00000012  0.0000046 0.0000
 69  -1149.7301365103  -0.000001793503 0.00000219  0.00000007  0.0000046 0.0000
 70  -1149.7301373271  -0.000000816870 0.00000097  0.00000004  0.0000046 0.0000
 71  -1149.7301376686  -0.000000341512 0.00000067  0.00000003  0.0000046 0.0000
 72  -1149.7301379718  -0.000000303120 0.00000107  0.00000003  0.0000047 0.0000
 73  -1149.7301385311  -0.000000559311 0.00000151  0.00000003  0.0000047 0.0000
 74  -1149.7301387295  -0.000000198456 0.00000116  0.00000002  0.0000047 0.0000
 75  -1149.7301392354  -0.000000505830 0.00000120  0.00000003  0.0000047 0.0000
 76  -1149.7301396768  -0.000000441448 0.00000095  0.00000003  0.0000047 0.0000
 77  -1149.7301396962  -0.000000019382 0.00000093  0.00000003  0.0000047 0.0000
 78  -1149.7301394518   0.000000244409 0.00000101  0.00000003  0.0000047 0.0000
 79  -1149.7301393106   0.000000141146 0.00000097  0.00000003  0.0000047 0.0000
 80  -1149.7301392419   0.000000068692 0.00000070  0.00000002  0.0000047 0.0000
 81  -1149.7301391548   0.000000087196 0.00000038  0.00000001  0.0000048 0.0000
 82  -1149.7301388822   0.000000272520 0.00000016  0.00000001  0.0000048 0.0000
 83  -1149.7301381002   0.000000782070 0.00000095  0.00000003  0.0000048 0.0000
 84  -1149.7301379547   0.000000145419 0.00000038  0.00000001  0.0000049 0.0000
 85  -1149.7301380104  -0.000000055659 0.00000053  0.00000002  0.0000048 0.0000
 86  -1149.7301380754  -0.000000065004 0.00000055  0.00000002  0.0000048 0.0000
 87  -1149.7301385281  -0.000000452705 0.00000193  0.00000006  0.0000048 0.0000
 88  -1149.7301388719  -0.000000343752 0.00000480  0.00000015  0.0000047 0.0000
 89  -1149.7301385461   0.000000325811 0.00000178  0.00000006  0.0000047 0.0000
 90  -1149.7301385180   0.000000028033 0.00000189  0.00000006  0.0000046 0.0000
 91  -1149.7301385312  -0.000000013155 0.00000193  0.00000006  0.0000046 0.0000
 92  -1149.7301385234   0.000000007801 0.00000143  0.00000005  0.0000046 0.0000
 93  -1149.7301384577   0.000000065647 0.00000071  0.00000002  0.0000047 0.0000
 94  -1149.7301384803  -0.000000022582 0.00000013  0.00000001  0.0000048 0.0000
 95  -1149.7301385106  -0.000000030253 0.00000007  0.00000000  0.0000048 0.0000
 96  -1149.7301385297  -0.000000019120 0.00000004  0.00000000  0.0000048 0.0000
 97  -1149.7301385343  -0.000000004658 0.00000022  0.00000001  0.0000048 0.0000
 98  -1149.7301385373  -0.000000003010 0.00000014  0.00000000  0.0000048 0.0000
 99  -1149.7301385354   0.000000001920 0.00000028  0.00000001  0.0000048 0.0000
100  -1149.7301385569  -0.000000021500 0.00000026  0.00000001  0.0000048 0.0000
101  -1149.7301385711  -0.000000014147 0.00000051  0.00000002  0.0000048 0.0000
102  -1149.7301385739  -0.000000002861 0.00000057  0.00000002  0.0000047 0.0000
103  -1149.7301385378   0.000000036159 0.00000014  0.00000000  0.0000047 0.0000
104  -1149.7301385628  -0.000000025018 0.00000135  0.00000004  0.0000048 0.0000
105  -1149.7301385827  -0.000000019931 0.00000283  0.00000009  0.0000047 0.0000
106  -1149.7301385702   0.000000012554 0.00000323  0.00000010  0.0000046 0.0000
107  -1149.7301385660   0.000000004141 0.00000205  0.00000007  0.0000046 0.0000
108  -1149.7301385770  -0.000000010929 0.00000119  0.00000004  0.0000046 0.0000
109  -1149.7301386264  -0.000000049421 0.00000163  0.00000005  0.0000046 0.0000
110  -1149.7301386854  -0.000000059026 0.00000069  0.00000002  0.0000048 0.0000
111  -1149.7301387027  -0.000000017341 0.00000012  0.00000001  0.0000048 0.0000
                 **** Energy Check signals convergence ****

               *****************************************************
               *                     SUCCESS                       *
               *           SCF CONVERGED AFTER 112 CYCLES          *
               *****************************************************


----------------
TOTAL SCF ENERGY
----------------

Total Energy       :        -1149.73013870 Eh          -31285.74761 eV

Components:
Nuclear Repulsion  :            0.00000000 Eh               0.00000 eV
Electronic Energy  :        -1149.73013870 Eh          -31285.74761 eV
One Electron Energy:        -1589.52186285 Eh          -43253.08883 eV
Two Electron Energy:          439.79172414 Eh           11967.34122 eV

Virial components:
Potential Energy   :        -2299.23025066 Eh          -62565.23588 eV
Kinetic Energy     :         1149.50011196 Eh           31279.48826 eV
Virial Ratio       :            2.00020011


---------------
SCF CONVERGENCE
---------------

  Last Energy change         ...   -8.2719e-10  Tolerance :   1.0000e-09
  Last MAX-Density change    ...    1.2784e-07  Tolerance :   1.0000e-08
  Last RMS-Density change    ...    3.7766e-09  Tolerance :   1.0000e-09
  Last DIIS Error            ...    4.7792e-06  Tolerance :   1.0000e-08

             **** THE GBW FILE WAS UPDATED (65_Mn.gbw) ****
             **** DENSITY FILE WAS UPDATED (65_Mn.scfp) ****
             **** ENERGY FILE WAS UPDATED (65_Mn.en.tmp) ****
----------------------
UHF SPIN CONTAMINATION
----------------------

Expectation value of <S**2>     :     8.760305
Ideal value S*(S+1) for S=2.5   :     8.750000
Deviation                       :     0.010305

             **** THE GBW FILE WAS UPDATED (65_Mn.gbw) ****
             **** DENSITY FILE WAS UPDATED (65_Mn.scfp) ****
----------------
ORBITAL ENERGIES
----------------
                 SPIN UP ORBITALS
  NO   OCC          E(Eh)            E(eV) 
   0   1.0000    -240.366716     -6540.7109 
   1   1.0000     -28.966255      -788.2119 
   2   1.0000     -24.688583      -671.8105 
   3   1.0000     -24.666020      -671.1965 
   4   1.0000     -24.660992      -671.0597 
   5   1.0000      -3.784087      -102.9702 
   6   1.0000      -2.533829       -68.9490 
   7   1.0000      -2.477894       -67.4269 
   8   1.0000      -2.465647       -67.0937 
   9   1.0000      -0.446993       -12.1633 
  10   1.0000      -0.441651       -12.0179 
  11   1.0000      -0.436972       -11.8906 
  12   1.0000      -0.415154       -11.2969 
  13   1.0000      -0.371195       -10.1007 
  14   1.0000      -0.226472        -6.1626 
  15   0.0000       0.071389         1.9426 
  16   0.0000       0.080740         2.1971 
  17   0.0000       0.082570         2.2468 
  18   0.0000       0.200450         5.4545 
  19   0.0000       0.255904         6.9635 
  20   0.0000       0.256827         6.9886 
  21   0.0000       0.257599         7.0096 
  22   0.0000       0.261445         7.1143 
  23   0.0000       0.265992         7.2380 
  24   0.0000       0.539288        14.6748 
  25   0.0000       0.555382        15.1127 
  26   0.0000       0.558770        15.2049 
  27   0.0000       1.040952        28.3258 
  28   0.0000       1.043607        28.3980 
  29   0.0000       1.045888        28.4601 
  30   0.0000       1.056785        28.7566 
  31   0.0000       1.074039        29.2261 
  32   0.0000       2.282194        62.1017 
  33   0.0000       2.283748        62.1440 
  34   0.0000       2.285528        62.1924 
  35   0.0000       2.289049        62.2882 
  36   0.0000       2.305102        62.7250 
  37   0.0000       2.320214        63.1362 
  38   0.0000       2.321332        63.1666 
  39   0.0000       2.436270        66.2943 
  40   0.0000       2.469380        67.1952 
  41   0.0000       2.477307        67.4109 
  42   0.0000       2.702232        73.5315 
  43   0.0000       3.712967       101.0350 
  44   0.0000       3.716817       101.1397 
  45   0.0000       3.720592       101.2424 
  46   0.0000       3.738119       101.7194 
  47   0.0000       3.768385       102.5430 
  48   0.0000       7.598998       206.7792 
  49   0.0000       7.599339       206.7885 
  50   0.0000       7.600090       206.8090 
  51   0.0000       7.600664       206.8246 
  52   0.0000       7.621640       207.3954 
  53   0.0000       7.628274       207.5759 
  54   0.0000       7.632463       207.6899 
  55   0.0000       7.654323       208.2847 
  56   0.0000       7.655852       208.3263 
  57   0.0000       8.555337       232.8026 
  58   0.0000       8.557064       232.8495 
  59   0.0000       8.559851       232.9254 
  60   0.0000       8.564136       233.0420 
  61   0.0000       8.592406       233.8112 
  62   0.0000       8.617269       234.4878 
  63   0.0000       8.620449       234.5743 

                 SPIN DOWN ORBITALS
  NO   OCC          E(Eh)            E(eV) 
   0   1.0000    -240.363725     -6540.6295 
   1   1.0000     -28.866143      -785.4877 
   2   1.0000     -24.575135      -668.7234 
   3   1.0000     -24.574910      -668.7173 
   4   1.0000     -24.574871      -668.7162 
   5   1.0000      -3.467796       -94.3635 
   6   1.0000      -2.133115       -58.0450 
   7   1.0000      -2.124087       -57.7994 
   8   1.0000      -2.083007       -56.6815 
   9   1.0000      -0.227164        -6.1815 
  10   0.0000       0.029460         0.8017 
  11   0.0000       0.138983         3.7819 
  12   0.0000       0.139873         3.8061 
  13   0.0000       0.140221         3.8156 
  14   0.0000       0.235211         6.4004 
  15   0.0000       0.237008         6.4493 
  16   0.0000       0.238488         6.4896 
  17   0.0000       0.244582         6.6554 
  18   0.0000       0.278837         7.5875 
  19   0.0000       0.292375         7.9559 
  20   0.0000       0.456640        12.4258 
  21   0.0000       0.463355        12.6085 
  22   0.0000       0.468883        12.7590 
  23   0.0000       0.493791        13.4367 
  24   0.0000       0.614573        16.7234 
  25   0.0000       0.618288        16.8245 
  26   0.0000       0.619223        16.8499 
  27   0.0000       1.130497        30.7624 
  28   0.0000       1.207866        32.8677 
  29   0.0000       1.212544        32.9950 
  30   0.0000       1.216365        33.0990 
  31   0.0000       1.233977        33.5782 
  32   0.0000       2.416437        65.7546 
  33   0.0000       2.420202        65.8570 
  34   0.0000       2.423244        65.9398 
  35   0.0000       2.441116        66.4261 
  36   0.0000       2.446442        66.5711 
  37   0.0000       2.450917        66.6928 
  38   0.0000       2.456751        66.8516 
  39   0.0000       2.551722        69.4359 
  40   0.0000       2.563971        69.7692 
  41   0.0000       2.566256        69.8314 
  42   0.0000       2.821044        76.7645 
  43   0.0000       3.840787       104.5131 
  44   0.0000       3.889176       105.8299 
  45   0.0000       3.894776       105.9822 
  46   0.0000       3.899409       106.1083 
  47   0.0000       3.920556       106.6837 
  48   0.0000       7.730563       210.3593 
  49   0.0000       7.730616       210.3608 
  50   0.0000       7.733413       210.4369 
  51   0.0000       7.733531       210.4401 
  52   0.0000       7.741988       210.6702 
  53   0.0000       7.743671       210.7160 
  54   0.0000       7.744033       210.7259 
  55   0.0000       7.746525       210.7937 
  56   0.0000       7.747653       210.8244 
  57   0.0000       8.775918       238.8049 
  58   0.0000       8.780305       238.9243 
  59   0.0000       8.781836       238.9659 
  60   0.0000       8.800887       239.4843 
  61   0.0000       8.809799       239.7268 
  62   0.0000       8.815704       239.8875 
  63   0.0000       8.822895       240.0832 

                    ********************************
                    * MULLIKEN POPULATION ANALYSIS *
                    ********************************

--------------------------------------------
MULLIKEN ATOMIC CHARGES AND SPIN POPULATIONS
--------------------------------------------
   0 Mn:   -0.000000    5.000000
Sum of atomic charges         :   -0.0000000
Sum of atomic spin populations:    5.0000000

-----------------------------------------------------
MULLIKEN REDUCED ORBITAL CHARGES AND SPIN POPULATIONS
-----------------------------------------------------
CHARGE
  0 Mns       :     6.999583  s :     6.999583
      pz      :     3.999754  p :    11.999436
      px      :     3.999743
      py      :     3.999938
      dz2     :     1.000051  d :     6.000339
      dxz     :     1.884002
      dyz     :     1.033194
      dx2y2   :     1.000215
      dxy     :     1.082877
      f0      :     0.000098  f :     0.000564
      f+1     :     0.000189
      f-1     :     0.000025
      f+2     :     0.000130
      f-2     :     0.000065
      f+3     :     0.000023
      f-3     :     0.000035
      g0      :     0.000008  g :     0.000078
      g+1     :     0.000002
      g-1     :     0.000005
      g+2     :     0.000016
      g-2     :     0.000009
      g+3     :     0.000011
      g-3     :     0.000014
      g+4     :     0.000007
      g-4     :     0.000007

SPIN
  0 Mns       :     0.999588  s :     0.999588
      pz      :     0.000170  p :     0.000350
      px      :     0.000180
      py      :     0.000000
      dz2     :     1.000050  d :     4.000357
      dxz     :     0.115975
      dyz     :     0.966957
      dx2y2   :     1.000211
      dxy     :     0.917164
      f0      :    -0.000089  f :    -0.000350
      f+1     :    -0.000163
      f-1     :    -0.000001
      f+2     :    -0.000072
      f-2     :    -0.000032
      f+3     :     0.000006
      f-3     :     0.000002
      g0      :    -0.000000  g :     0.000055
      g+1     :     0.000002
      g-1     :     0.000004
      g+2     :     0.000007
      g-2     :     0.000007
      g+3     :     0.000010
      g-3     :     0.000011
      g+4     :     0.000007
      g-4     :     0.000007


                     *******************************
                     * LOEWDIN POPULATION ANALYSIS *
                     *******************************

-------------------------------------------
LOEWDIN ATOMIC CHARGES AND SPIN POPULATIONS
-------------------------------------------
   0 Mn:   -0.000000    5.000000

----------------------------------------------------
LOEWDIN REDUCED ORBITAL CHARGES AND SPIN POPULATIONS
----------------------------------------------------
CHARGE
  0 Mns       :     6.999583  s :     6.999583
      pz      :     3.999754  p :    11.999436
      px      :     3.999743
      py      :     3.999938
      dz2     :     1.000051  d :     6.000339
      dxz     :     1.884002
      dyz     :     1.033194
      dx2y2   :     1.000215
      dxy     :     1.082877
      f0      :     0.000098  f :     0.000564
      f+1     :     0.000189
      f-1     :     0.000025
      f+2     :     0.000130
      f-2     :     0.000065
      f+3     :     0.000023
      f-3     :     0.000035
      g0      :     0.000008  g :     0.000078
      g+1     :     0.000002
      g-1     :     0.000005
      g+2     :     0.000016
      g-2     :     0.000009
      g+3     :     0.000011
      g-3     :     0.000014
      g+4     :     0.000007
      g-4     :     0.000007

SPIN
  0 Mns       :     0.999588  s :     0.999588
      pz      :     0.000170  p :     0.000350
      px      :     0.000180
      py      :     0.000000
      dz2     :     1.000050  d :     4.000357
      dxz     :     0.115975
      dyz     :     0.966957
      dx2y2   :     1.000211
      dxy     :     0.917164
      f0      :    -0.000089  f :    -0.000350
      f+1     :    -0.000163
      f-1     :    -0.000001
      f+2     :    -0.000072
      f-2     :    -0.000032
      f+3     :     0.000006
      f-3     :     0.000002
      g0      :    -0.000000  g :     0.000055
      g+1     :     0.000002
      g-1     :     0.000004
      g+2     :     0.000007
      g-2     :     0.000007
      g+3     :     0.000010
      g-3     :     0.000011
      g+4     :     0.000007
      g-4     :     0.000007


                      *****************************
                      * MAYER POPULATION ANALYSIS *
                      *****************************

  NA   - Mulliken gross atomic population
  ZA   - Total nuclear charge
  QA   - Mulliken gross atomic charge
  VA   - Mayer's total valence
  BVA  - Mayer's bonded valence
  FA   - Mayer's free valence

  ATOM       NA         ZA         QA         VA         BVA        FA
  0 Mn    25.0000    25.0000    -0.0000     5.0206     0.0000     5.0206

  Mayer bond orders larger than 0.100000


-------
TIMINGS
-------

Total SCF time: 0 days 0 hours 0 min 11 sec 

Total time                  ....      11.843 sec
Sum of individual times     ....      11.428 sec  ( 96.5%)

Fock matrix formation       ....      10.730 sec  ( 90.6%)
Diagonalization             ....       0.144 sec  (  1.2%)
Density matrix formation    ....       0.038 sec  (  0.3%)
Population analysis         ....       0.004 sec  (  0.0%)
Initial guess               ....       0.147 sec  (  1.2%)
Orbital Transformation      ....       0.000 sec  (  0.0%)
Orbital Orthonormalization  ....       0.000 sec  (  0.0%)
DIIS solution               ....       0.343 sec  (  2.9%)


           ************************************************************
           *        Program running with 24 parallel MPI-processes    *
           *              working on a common directory               *
           ************************************************************


------------------------------------------------------------------------------- 
                              ORCA-MATRIX DRIVEN CI                            
------------------------------------------------------------------------------- 

--------------------------------
AUTOMATIC CHOICE OF INCORE LEVEL
--------------------------------

Memory available                           ...   2500.00 MB
Memory needed for S+T                      ...      3.02 MB
Memory needed for J+K                      ...      6.09 MB
Memory needed for DIIS                     ...     42.31 MB
Memory needed for 3-ext                    ...      8.98 MB
Memory needed for 4-ext                    ...     22.44 MB
Memory needed for triples                  ...      4.49 MB
 -> Final InCoreLevel    ... 5
 -> check shows that triples correction can be computed


Wavefunction type
-----------------
Correlation treatment                      ...      CCSD     
Single excitations                         ... ON
Orbital optimization                       ... OFF
Calculation of Z vector                    ... OFF
Calculation of Brueckner orbitals          ... OFF
Perturbative triple excitations            ... ON
Calculation of F12 correction              ... OFF
Frozen core treatment                      ... chemical core (10 el)
Reference Wavefunction                     ... UHF
  Alpha-MOs occ    :     5 ...   14 ( 10 MO's/ 10 electrons)
  Beta-MOs occ     :     5 ...    9 (  5 MO's/  5 electrons)
  Alpha-MOs virt   :    15 ...   63 ( 49 MO's              )
  Beta-MOs virt    :    10 ...   63 ( 54 MO's              )
Number of AO's                             ...     64
Number of electrons                        ...     25
Number of correlated electrons             ...     15

Algorithmic settings
--------------------
Integral transformation                    ... AO direct full transformation
K(C) Formation                             ... FULL-MO TRAFO
Maximum number of iterations               ...        50
Convergence tolerance (max. residuum)      ... 1.000e-06
Level shift for amplitude update           ... 2.000e-01
Maximum number of DIIS vectors             ...         7
DIIS turned on at iteration                ...         0
Damping before turning on DIIS             ...     0.500
Damping after turning on DIIS              ...     0.000
Pair specific amplitude update             ... OFF
Natural orbital iterations                 ... OFF
Perturbative natural orbital generation    ... OFF
Printlevel                                 ... 2

Memory handling:
----------------
Maximum memory for working arrays          ...   2500 MB
Data storage in matrix containers          ... UNCOMPRESSED
Data type for integral storage             ... DOUBLE
In-Core Storage of quantities:
   Amplitudes+Sigma Vector      ... YES
   J+K operators                ... YES
   DIIS vectors                 ... YES
   3-external integrals         ... YES
   4-external integrals         ... YES


Initializing the integral package          ... done
Warning: reference  - re-canonicalizations have been set to INT 1 VIRT 1

--------------------------
UNRESTRICTED FOCK OPERATOR
--------------------------

<ss|ss>:          231 b            0 skpd (  0.0%)    0.001 s ( 0.002 ms/b)
<ss|sp>:          630 b            0 skpd (  0.0%)    0.001 s ( 0.001 ms/b)
<ss|sd>:          504 b            0 skpd (  0.0%)    0.001 s ( 0.001 ms/b)
<ss|sf>:          252 b            0 skpd (  0.0%)    0.000 s ( 0.001 ms/b)
<ss|sg>:          126 b            0 skpd (  0.0%)    0.001 s ( 0.004 ms/b)
<ss|pp>:          315 b            0 skpd (  0.0%)    0.001 s ( 0.003 ms/b)
<ss|pd>:          420 b            0 skpd (  0.0%)    0.000 s ( 0.001 ms/b)
<ss|pf>:          210 b            0 skpd (  0.0%)    0.000 s ( 0.001 ms/b)
<ss|pg>:          105 b            0 skpd (  0.0%)    0.000 s ( 0.003 ms/b)
<ss|dd>:          210 b            0 skpd (  0.0%)    0.001 s ( 0.005 ms/b)
<ss|df>:          168 b            0 skpd (  0.0%)    0.000 s ( 0.003 ms/b)
<ss|dg>:           84 b            0 skpd (  0.0%)    0.000 s ( 0.004 ms/b)
<ss|ff>:           63 b            0 skpd (  0.0%)    0.000 s ( 0.004 ms/b)
<ss|fg>:           42 b            0 skpd (  0.0%)    0.000 s ( 0.008 ms/b)
<ss|gg>:           21 b            0 skpd (  0.0%)    0.000 s ( 0.023 ms/b)
<sp|sp>:          465 b            0 skpd (  0.0%)    0.001 s ( 0.002 ms/b)
<sp|sd>:          720 b            0 skpd (  0.0%)    0.001 s ( 0.001 ms/b)
<sp|sf>:          360 b            0 skpd (  0.0%)    0.001 s ( 0.002 ms/b)
<sp|sg>:          180 b            0 skpd (  0.0%)    0.001 s ( 0.006 ms/b)
<sp|pp>:          450 b            0 skpd (  0.0%)    0.002 s ( 0.004 ms/b)
<sp|pd>:          600 b            0 skpd (  0.0%)    0.001 s ( 0.002 ms/b)
<sp|pf>:          300 b            0 skpd (  0.0%)    0.001 s ( 0.002 ms/b)
<sp|pg>:          150 b            0 skpd (  0.0%)    0.001 s ( 0.005 ms/b)
<sp|dd>:          300 b            0 skpd (  0.0%)    0.002 s ( 0.008 ms/b)
<sp|df>:          240 b            0 skpd (  0.0%)    0.001 s ( 0.004 ms/b)
<sp|dg>:          120 b            0 skpd (  0.0%)    0.001 s ( 0.007 ms/b)
<sp|ff>:           90 b            0 skpd (  0.0%)    0.001 s ( 0.007 ms/b)
<sp|fg>:           60 b            0 skpd (  0.0%)    0.001 s ( 0.016 ms/b)
<sp|gg>:           30 b            0 skpd (  0.0%)    0.001 s ( 0.042 ms/b)
<sd|sd>:          300 b            0 skpd (  0.0%)    0.001 s ( 0.002 ms/b)
<sd|sf>:          288 b            0 skpd (  0.0%)    0.001 s ( 0.003 ms/b)
<sd|sg>:          144 b            0 skpd (  0.0%)    0.001 s ( 0.008 ms/b)
<sd|pp>:          360 b            0 skpd (  0.0%)    0.002 s ( 0.006 ms/b)
<sd|pd>:          480 b            0 skpd (  0.0%)    0.001 s ( 0.003 ms/b)
<sd|pf>:          240 b            0 skpd (  0.0%)    0.001 s ( 0.003 ms/b)
<sd|pg>:          120 b            0 skpd (  0.0%)    0.001 s ( 0.009 ms/b)
<sd|dd>:          240 b            0 skpd (  0.0%)    0.003 s ( 0.012 ms/b)
<sd|df>:          192 b            0 skpd (  0.0%)    0.002 s ( 0.008 ms/b)
<sd|dg>:           96 b            0 skpd (  0.0%)    0.001 s ( 0.014 ms/b)
<sd|ff>:           72 b            0 skpd (  0.0%)    0.001 s ( 0.013 ms/b)
<sd|fg>:           48 b            0 skpd (  0.0%)    0.001 s ( 0.029 ms/b)
<sd|gg>:           24 b            0 skpd (  0.0%)    0.002 s ( 0.081 ms/b)
<sf|sf>:           78 b            0 skpd (  0.0%)    0.000 s ( 0.002 ms/b)
<sf|sg>:           72 b            0 skpd (  0.0%)    0.001 s ( 0.010 ms/b)
<sf|pp>:          180 b            0 skpd (  0.0%)    0.001 s ( 0.007 ms/b)
<sf|pd>:          240 b            0 skpd (  0.0%)    0.001 s ( 0.004 ms/b)
<sf|pf>:          120 b            0 skpd (  0.0%)    0.001 s ( 0.004 ms/b)
<sf|pg>:           60 b            0 skpd (  0.0%)    0.001 s ( 0.013 ms/b)
<sf|dd>:          120 b            0 skpd (  0.0%)    0.002 s ( 0.016 ms/b)
<sf|df>:           96 b            0 skpd (  0.0%)    0.001 s ( 0.011 ms/b)
<sf|dg>:           48 b            0 skpd (  0.0%)    0.001 s ( 0.020 ms/b)
<sf|ff>:           36 b            0 skpd (  0.0%)    0.001 s ( 0.018 ms/b)
<sf|fg>:           24 b            0 skpd (  0.0%)    0.001 s ( 0.042 ms/b)
<sf|gg>:           12 b            0 skpd (  0.0%)    0.001 s ( 0.115 ms/b)
<sg|sg>:           21 b            0 skpd (  0.0%)    0.000 s ( 0.014 ms/b)
<sg|pp>:           90 b            0 skpd (  0.0%)    0.001 s ( 0.013 ms/b)
<sg|pd>:          120 b            0 skpd (  0.0%)    0.001 s ( 0.007 ms/b)
<sg|pf>:           60 b            0 skpd (  0.0%)    0.000 s ( 0.008 ms/b)
<sg|pg>:           30 b            0 skpd (  0.0%)    0.001 s ( 0.026 ms/b)
<sg|dd>:           60 b            0 skpd (  0.0%)    0.002 s ( 0.029 ms/b)
<sg|df>:           48 b            0 skpd (  0.0%)    0.001 s ( 0.020 ms/b)
<sg|dg>:           24 b            0 skpd (  0.0%)    0.001 s ( 0.043 ms/b)
<sg|ff>:           18 b            0 skpd (  0.0%)    0.001 s ( 0.029 ms/b)
<sg|fg>:           12 b            0 skpd (  0.0%)    0.001 s ( 0.076 ms/b)
<sg|gg>:            6 b            0 skpd (  0.0%)    0.001 s ( 0.206 ms/b)
<pp|pp>:          120 b            0 skpd (  0.0%)    0.002 s ( 0.013 ms/b)
<pp|pd>:          300 b            0 skpd (  0.0%)    0.001 s ( 0.004 ms/b)
<pp|pf>:          150 b            0 skpd (  0.0%)    0.001 s ( 0.005 ms/b)
<pp|pg>:           75 b            0 skpd (  0.0%)    0.001 s ( 0.013 ms/b)
<pp|dd>:          150 b            0 skpd (  0.0%)    0.002 s ( 0.015 ms/b)
<pp|df>:          120 b            0 skpd (  0.0%)    0.001 s ( 0.010 ms/b)
<pp|dg>:           60 b            0 skpd (  0.0%)    0.001 s ( 0.020 ms/b)
<pp|ff>:           45 b            0 skpd (  0.0%)    0.001 s ( 0.016 ms/b)
<pp|fg>:           30 b            0 skpd (  0.0%)    0.001 s ( 0.037 ms/b)
<pp|gg>:           15 b            0 skpd (  0.0%)    0.002 s ( 0.102 ms/b)
<pd|pd>:          210 b            0 skpd (  0.0%)    0.002 s ( 0.010 ms/b)
<pd|pf>:          200 b            0 skpd (  0.0%)    0.001 s ( 0.007 ms/b)
<pd|pg>:          100 b            0 skpd (  0.0%)    0.002 s ( 0.020 ms/b)
<pd|dd>:          200 b            0 skpd (  0.0%)    0.004 s ( 0.021 ms/b)
<pd|df>:          160 b            0 skpd (  0.0%)    0.002 s ( 0.015 ms/b)
<pd|dg>:           80 b            0 skpd (  0.0%)    0.003 s ( 0.034 ms/b)
<pd|ff>:           60 b            0 skpd (  0.0%)    0.002 s ( 0.027 ms/b)
<pd|fg>:           40 b            0 skpd (  0.0%)    0.002 s ( 0.061 ms/b)
<pd|gg>:           20 b            0 skpd (  0.0%)    0.003 s ( 0.167 ms/b)
<pf|pf>:           55 b            0 skpd (  0.0%)    0.001 s ( 0.012 ms/b)
<pf|pg>:           50 b            0 skpd (  0.0%)    0.001 s ( 0.025 ms/b)
<pf|dd>:          100 b            0 skpd (  0.0%)    0.002 s ( 0.023 ms/b)
<pf|df>:           80 b            0 skpd (  0.0%)    0.001 s ( 0.018 ms/b)
<pf|dg>:           40 b            0 skpd (  0.0%)    0.002 s ( 0.042 ms/b)
<pf|ff>:           30 b            0 skpd (  0.0%)    0.001 s ( 0.035 ms/b)
<pf|fg>:           20 b            0 skpd (  0.0%)    0.002 s ( 0.084 ms/b)
<pf|gg>:           10 b            0 skpd (  0.0%)    0.002 s ( 0.215 ms/b)
<pg|pg>:           15 b            0 skpd (  0.0%)    0.001 s ( 0.041 ms/b)
<pg|dd>:           50 b            0 skpd (  0.0%)    0.002 s ( 0.044 ms/b)
<pg|df>:           40 b            0 skpd (  0.0%)    0.001 s ( 0.030 ms/b)
<pg|dg>:           20 b            0 skpd (  0.0%)    0.002 s ( 0.081 ms/b)
<pg|ff>:           15 b            0 skpd (  0.0%)    0.001 s ( 0.051 ms/b)
<pg|fg>:           10 b            0 skpd (  0.0%)    0.001 s ( 0.137 ms/b)
<pg|gg>:            5 b            0 skpd (  0.0%)    0.002 s ( 0.347 ms/b)
<dd|dd>:           55 b            0 skpd (  0.0%)    0.003 s ( 0.056 ms/b)
<dd|df>:           80 b            0 skpd (  0.0%)    0.002 s ( 0.024 ms/b)
<dd|dg>:           40 b            0 skpd (  0.0%)    0.002 s ( 0.059 ms/b)
<dd|ff>:           30 b            0 skpd (  0.0%)    0.001 s ( 0.043 ms/b)
<dd|fg>:           20 b            0 skpd (  0.0%)    0.002 s ( 0.099 ms/b)
<dd|gg>:           10 b            0 skpd (  0.0%)    0.003 s ( 0.271 ms/b)
<df|df>:           36 b            0 skpd (  0.0%)    0.002 s ( 0.049 ms/b)
<df|dg>:           32 b            0 skpd (  0.0%)    0.002 s ( 0.067 ms/b)
<df|ff>:           24 b            0 skpd (  0.0%)    0.001 s ( 0.061 ms/b)
<df|fg>:           16 b            0 skpd (  0.0%)    0.002 s ( 0.139 ms/b)
<df|gg>:            8 b            0 skpd (  0.0%)    0.003 s ( 0.366 ms/b)
<dg|dg>:           10 b            0 skpd (  0.0%)    0.001 s ( 0.149 ms/b)
<dg|ff>:           12 b            0 skpd (  0.0%)    0.001 s ( 0.084 ms/b)
<dg|fg>:            8 b            0 skpd (  0.0%)    0.002 s ( 0.218 ms/b)
<dg|gg>:            4 b            0 skpd (  0.0%)    0.002 s ( 0.561 ms/b)
<ff|ff>:            6 b            0 skpd (  0.0%)    0.001 s ( 0.108 ms/b)
<ff|fg>:            6 b            0 skpd (  0.0%)    0.001 s ( 0.194 ms/b)
<ff|gg>:            3 b            0 skpd (  0.0%)    0.002 s ( 0.669 ms/b)
<fg|fg>:            3 b            0 skpd (  0.0%)    0.001 s ( 0.382 ms/b)
<fg|gg>:            2 b            0 skpd (  0.0%)    0.002 s ( 0.823 ms/b)
<gg|gg>:            1 b            0 skpd (  0.0%)    0.001 s ( 1.341 ms/b)
Recanonicalizing the internal orbitals
Recanonicalizing the virtual orbitals
Time needed for Fock operator              ...            0.164 sec
Reference energy                           ...  -1149.730138564
Warning: for UHF the TrafoType has to be JK
Warning: for UHF the K(C)-option cannot be MO but must be AOX

-------------------------------
PARTIAL EXCHANGE TRANSFORMATION
-------------------------------

Transformation type                        ... two-operators
Generation of integrals (i,mue|j,nue)      ... ON
Generation of integrals (mue,kappa|nue,tau)... ON
Generation of integrals (i,mue|a,nue)      ... ON
Dimension of the basis                     ...   64
Number of internal alpha-MOs               ...   10 (   5-  14)
Number of internal beta-MOs                ...    5 (   5-   9)
Number of external alpha-MOs               ...   49 (  15-  63)
Number of external beta-MOs                ...   54 (  10-  63)
Pair cutoff                                ... 0.000e+00 Eh
Number of AO pairs in the trafo            ... 2080
Total Number of distinct AO pairs          ... 2080
Memory devoted for trafo                   ... 2500.0 MB 
Max. Number of MO pairs treated together   ... 80000      
Number Format for Storage                  ... Double (8 Byte)
Integral package used                      ... LIBINT

Starting integral evaluation:
    ... done with AO integral generation
Closing buffer AOK[aa] ( 0.00 GB; CompressionRatio= 0.00)
Closing buffer AOK[bb] ( 0.00 GB; CompressionRatio= 0.00)
Closing buffer AOK[ab] ( 0.00 GB; CompressionRatio= 0.00)
Closing buffer AOK[ba] ( 0.00 GB; CompressionRatio= 0.00)
Collecting buffer AOK 
Closing buffer IAAO1[aa] ( 0.00 GB; CompressionRatio= 0.00)
Closing buffer IAAO1[bb] ( 0.00 GB; CompressionRatio= 0.00)
Closing buffer IAAO1[ab] ( 0.00 GB; CompressionRatio= 0.00)
Closing buffer IAAO1[ba] ( 0.00 GB; CompressionRatio= 0.00)
Closing buffer IAAO2[aa] ( 0.00 GB; CompressionRatio= 0.00)
Closing buffer IAAO2[bb] ( 0.00 GB; CompressionRatio= 0.00)
Closing buffer IAAO2[ab] ( 0.00 GB; CompressionRatio= 0.00)
Closing buffer IAAO2[ba] ( 0.00 GB; CompressionRatio= 0.00)
Collecting buffer IAAO 
Closing buffer PRQS    ( 0.00 GB; CompressionRatio= 0.00)
Collecting buffer PRQS 
Number of alpha/alpha MO pairs in trafo    ...   55
Number of beta /beta  MO pairs in trafo    ...   15
Number of alpha/ beta MO pairs in trafo    ...   50
------------------------
SORTING OF (i,mue|j,nue)
------------------------

SORTING OF ALPHA/ALPHA PAIRS
IBATCH = 1 of  1
Closing buffer KAO[aa] ( 0.00 GB; CompressionRatio= 1.00)
Collecting buffer KAO 
SORTING OF BETA /BETA  PAIRS
IBATCH = 1 of  1
Closing buffer KAO[bb] ( 0.00 GB; CompressionRatio= 1.00)
Collecting buffer KAO 
SORTING OF ALPHA/BETA  PAIRS
IBATCH = 1 of  1
Closing buffer KAO[ab] ( 0.00 GB; CompressionRatio= 0.999633923124)
Collecting buffer KAO[ab] 
------------------------
SORTING OF (i,mue|a,nue)
------------------------

Number of alpha/alpha (i,a) pairs in trafo  ...  490
Number of beta /beta  (i,a) pairs in trafo  ...  270
Number of alpha/ beta (i,a) pairs in trafo  ...  540
Number of beta /alpha (i,a) pairs in trafo  ...  245
Setting up the alpha/alpha list             ... done
Setting up the beta /beta  list             ... done
Setting up the alpha/beta  list             ... done
Setting up the beta /alpha list             ... done
    ... Now sorting (i,mue|a,nue)integrals
    ... Integrals (i,b|a,c) will be made on the fly
SORTING OF ALPHA/ALPHA PAIRS
IBATCH = 1 of  1
Closing buffer IPAQ[aa]  0.00 GB; CompressionRatio= 1.00)
SORTING OF BETA /BETA  PAIRS
IBATCH = 1 of  1
Closing buffer IPAQ[bb]( 0.00 GB; CompressionRatio= 1.00)
SORTING OF ALPHA/BETA  PAIRS (NMatSort_ab=23)
IBATCH = 1 of  1
Closing buffer IPAQ[ab]( 0.00 GB; CompressionRatio= 1.00)
SORTING OF BETA/ALPHA  PAIRS
IBATCH = 1 of  1
Closing buffer IPAQ[ba]( 0.00 GB; CompressionRatio= 1.00)
N(AO-Batches) Done                         ...         0 
N(AO-Batches) Skipped                      ...         0 
N(IJ)-pairs Skipped                        ...         0 
TOTAL TIME for half transformation         ...     0.417 sec
AO-integral generation                     ...     0.000 sec
Half transformation                        ...     0.000 sec
K-integral sorting                         ...     0.179 sec
<ss|**>: 
------------------------------
PARTIAL COULOMB TRANSFORMATION
------------------------------

Transformation type                        ... two-operators
Dimension of the basis                     ...   64
Number of internal alpha-MOs               ...   10 (5-14)
Number of internal beta-MOs                ...    5 (5-9)
Pair cutoff                                ... 0.000e+00 Eh
Number of AO pairs included in the trafo   ... 2080
Total Number of distinct AO pairs          ... 2080
Memory devoted for trafo                   ... 2500.0 MB 
Max. Number of MO pairs treated together   ... 157538      
Max. Number of MOs treated per batch       ... 2461      
Number Format for Storage                  ... Double (8 Byte)
AO-integral source                         ... DIRECT
Integral package used                      ... LIBINT

Starting integral evaluation:
<sp|**>:         3591 b        0 skpd     0.001 s (  0.000 ms/b)
<sd|**>:         5130 b        0 skpd     0.009 s (  0.002 ms/b)
<sf|**>:         4104 b        0 skpd     0.009 s (  0.002 ms/b)
<sg|**>:         2052 b        0 skpd     0.006 s (  0.003 ms/b)
<pp|**>:         1026 b        0 skpd     0.012 s (  0.012 ms/b)
        2565 b        0 skpd     0.012 s (  0.005 ms/b)
<pd|**>:         3420 b        0 skpd     0.016 s (  0.005 ms/b)
<pf|**>:         1710 b        0 skpd     0.008 s (  0.005 ms/b)
<pg|**>:          855 b        0 skpd     0.015 s (  0.017 ms/b)
<dd|**>:         1710 b        0 skpd     0.022 s (  0.013 ms/b)
<df|**>:         1368 b        0 skpd     0.012 s (  0.009 ms/b)
<dg|**>:          684 b        0 skpd     0.019 s (  0.027 ms/b)
<ff|**>:          513 b        0 skpd     0.008 s (  0.016 ms/b)
<fg|**>:          342 b        0 skpd     0.012 s (  0.035 ms/b)
<gg|**>:          171 b        0 skpd     0.019 s (  0.111 ms/b)
Closing buffer AOJ[aa] ( 0.00 GB; CompressionRatio= 0.97)
Closing buffer AOJ[bb] ( 0.00 GB; CompressionRatio= 0.00)
Collecting buffer AOJ 
    ... done with AO integral generation
Number of Alpha-MO pairs included          ...   55
Number of Beta-MO pairs included           ...   15
    ... Now sorting integrals
SORTING ALPHA/ALPHA PAIRS
IBATCH = 1 of  1
Closing buffer JAO[aa] ( 0.00 GB; CompressionRatio= 1.00)
SORTING BETA/BETA PAIRS
IBATCH = 1 of  1
Closing buffer JAO[bb] ( 0.00 GB; CompressionRatio= 1.00)
Collecting buffer JAO 
TOTAL TIME for half transformation         ...     0.193 sec
AO-integral generation                     ...     0.181 sec
Half transformation                        ...     0.002 sec
J-integral sorting                         ...     0.006 sec

-------------------------- SECOND HALF TRANSFORMATION -------------------------
Formation of (ij|kl),(ij|ka), (ij|ab)      ... ok (     0.021 sec)
Formation of (ik|jl),(ik|ja), (ia|jb)      ... ok (     0.028 sec)


-----------------------
SPIN UNRESTRICTED GUESS
-----------------------

Entering MDCI_UHF_Guess, Tailored=0
Spin-components of the MP2 energy:
EMP2(aa)=     -0.143490656
EMP2(bb)=     -0.038251623
EMP2(ab)=     -0.314592958

Initial guess performed in     0.009 sec
E(0)                                       ...  -1149.730138564
E(MP2)                                     ...     -0.496335238
Initial E(tot)                             ...  -1150.226473802
<T|T>                                      ...      0.086391389
Number of pairs included                   ... 105

------------------------------------------------
                  UHF COUPLED CLUSTER ITERATIONS
------------------------------------------------

Number of amplitudes to be optimized       ...       201260

Iter       E(tot)           E(Corr)          Delta-E          Residual     Time      <S|S>**1/2
  0  -1150.226473802     -0.496335238     -0.000000000      0.023532717    0.24      0.000005803
                           *** Turning on DIIS ***
  1  -1150.198768469     -0.468629904      0.027705333      0.009203926    0.24      0.049080681
  2  -1150.210112128     -0.479973564     -0.011343660      0.005966871    0.24      0.049920373
  3  -1150.211101780     -0.480963216     -0.000989652      0.003769731    0.25      0.062090972
  4  -1150.211902253     -0.481763688     -0.000800472      0.001897861    0.24      0.068728333
  5  -1150.212364248     -0.482225683     -0.000461995      0.000571746    0.25      0.075108800
  6  -1150.212420757     -0.482282193     -0.000056510      0.000570482    0.25      0.076460189
  7  -1150.212430493     -0.482291928     -0.000009735      0.000674046    0.26      0.076701001
  8  -1150.212430368     -0.482291804      0.000000125      0.000694746    0.26      0.076714086
  9  -1150.212434625     -0.482296060     -0.000004257      0.000415135    0.24      0.076570614
 10  -1150.212434397     -0.482295832      0.000000228      0.000073548    0.25      0.076477454
 11  -1150.212432273     -0.482293708      0.000002124      0.000032095    0.25      0.076379146
 12  -1150.212431569     -0.482293005      0.000000704      0.000019755    0.25      0.076348048
 13  -1150.212430386     -0.482291822      0.000001183      0.000012731    0.25      0.076331035
 14  -1150.212430525     -0.482291960     -0.000000139      0.000004909    0.25      0.076321252
 15  -1150.212430073     -0.482291508      0.000000452      0.000002503    0.25      0.076317571
 16  -1150.212429995     -0.482291430      0.000000078      0.000000846    0.25      0.076314262
               --- The Coupled-Cluster iterations have converged ---

----------------------
COUPLED CLUSTER ENERGY
----------------------

E(0)                                       ...  -1149.730138564
E(CORR)                                    ...     -0.482291430
E(TOT)                                     ...  -1150.212429995
Singles norm <S|S>**1/2                    ...      0.076314262 ( 0.062357432, 0.013956830)  
T1 diagnostic                              ...      0.019704258                              

------------------
LARGEST AMPLITUDES
------------------
  14a-> 18a  -1a-> -1a       0.061572
  14a-> 17a   9b-> 13b       0.044148
  14a-> 16a   9b-> 12b       0.039910
   9b-> 19b  -1b-> -1b       0.039542
  13a-> 23a  -1a-> -1a       0.032664
  12a-> 22a  -1a-> -1a       0.029608
  13a-> 31a   9b-> 27b       0.029603
  11a-> 21a  -1a-> -1a       0.027424
  10a-> 20a  -1a-> -1a       0.026883
  13a-> 23a   9b-> 19b       0.026536
   9a-> 19a  -1a-> -1a       0.026012
  13a-> 31a   9b-> 19b       0.025449
  14a-> 18a   9b-> 19b       0.024692
  12a-> 30a   9b-> 27b       0.024069
  14a-> 17a   9b-> 26b       0.023866
  13a-> 23a   9b-> 27b       0.022821

----------------------
UHF TRIPLES CORRECTION (Algorithm 1)
----------------------

Multiplier for the singles contribution    ...      1.000000000

SPIN-CASE Alpha-Alpha-Alpha:
10% done
20% done
30% done
40% done
50% done
60% done
70% done
80% done
90% done


SPIN-CASE Beta-Beta-Beta:
10% done
20% done
30% done
40% done
50% done
60% done
70% done
80% done
90% done


SPIN-CASE Alpha-Alpha-Beta:
10% done
20% done
30% done
40% done
50% done
60% done
70% done
80% done
90% done


SPIN-CASE Beta-Beta-Alpha:
10% done
20% done
30% done
40% done
50% done
60% done
70% done
80% done
90% done


Triples Correction (T)                     ...     -0.013968367
    alpha-alpha-alpha ... -0.001963660 ( 14.1%)
    alpha-alpha-beta  ... -0.008680214 ( 62.1%)
    alpha-beta -beta  ... -0.003168426 ( 22.7%)
    beta -beta -beta  ... -0.000156067 (  1.1%)
Scaling of triples based on CCSD energies (Peterson et al. Molecular Physics 113, 1551 (2015))
E(T*) = f*E(T) where f = E(F12-CCSD)/E(CCSD) 
f = CCSD (with F12)/ CCSD (without F12)    ...      1.000000000
Scaled triples correction (T)              ...     -0.013968367

Final correlation energy                   ...     -0.496259797
E(CCSD)                                    ...  -1150.212429995
E(CCSD(T))                                 ...  -1150.226398362



        !!!!!!!!!!!!!!!!!!!!!!!!!!!!!!!!!!!!!!!!!!!!!!!!!!!!!!!!!!!!!!!!!!!!!!!!!! 
        !  Warning: Densities are linearized densities                           !
        !!!!!!!!!!!!!!!!!!!!!!!!!!!!!!!!!!!!!!!!!!!!!!!!!!!!!!!!!!!!!!!!!!!!!!!!!! 

NORM  =      1.095972772 sqrt=     1.046887182
W(HF) =      0.912431427
------------------------------------------------------------------------------
                           ORCA POPULATION ANALYSIS
------------------------------------------------------------------------------
Input electron density              ... 65_Mn.mdcip
Input spin density                  ... 65_Mn.mdcir
BaseName (.gbw .S,...)              ... 65_Mn

                    ********************************
                    * MULLIKEN POPULATION ANALYSIS *
                    ********************************

------------------------------------------
MULLIKEN ATOMIC CHARGES AND SPIN DENSITIES
------------------------------------------
   0 Mn:   -0.000000    5.000000
Sum of atomic charges       :   -0.0000000
Sum of atomic spin densities:    5.0000000

---------------------------------------------------
MULLIKEN REDUCED ORBITAL CHARGES AND SPIN DENSITIES
---------------------------------------------------
CHARGE
  0 Mns       :     6.986394  s :     6.986394
      pz      :     3.999092  p :    11.990997
      px      :     3.999508
      py      :     3.992397
      dz2     :     1.001377  d :     5.988833
      dxz     :     1.867753
      dyz     :     1.034499
      dx2y2   :     1.002013
      dxy     :     1.083191
      f0      :     0.004297  f :     0.030528
      f+1     :     0.005072
      f-1     :     0.003883
      f+2     :     0.004654
      f-2     :     0.004727
      f+3     :     0.003947
      f-3     :     0.003947
      g0      :     0.000349  g :     0.003248
      g+1     :     0.000387
      g-1     :     0.000328
      g+2     :     0.000374
      g-2     :     0.000379
      g+3     :     0.000382
      g-3     :     0.000382
      g+4     :     0.000334
      g-4     :     0.000334

SPIN
  0 Mns       :     0.989483  s :     0.989483
      pz      :     0.007874  p :     0.025811
      px      :     0.007729
      py      :     0.010207
      dz2     :     0.989627  d :     3.966686
      dxz     :     0.123624
      dyz     :     0.956527
      dx2y2   :     0.989083
      dxy     :     0.907825
      f0      :     0.002416  f :     0.016438
      f+1     :     0.001504
      f-1     :     0.002911
      f+2     :     0.002009
      f-2     :     0.001920
      f+3     :     0.002839
      f-3     :     0.002839
      g0      :     0.000165  g :     0.001582
      g+1     :     0.000133
      g-1     :     0.000196
      g+2     :     0.000167
      g-2     :     0.000165
      g+3     :     0.000175
      g-3     :     0.000175
      g+4     :     0.000202
      g-4     :     0.000202


                     *******************************
                     * LOEWDIN POPULATION ANALYSIS *
                     *******************************

-----------------------------------------
LOEWDIN ATOMIC CHARGES AND SPIN DENSITIES
-----------------------------------------
   0 Mn:   -0.000000    5.000000

--------------------------------------------------
LOEWDIN REDUCED ORBITAL CHARGES AND SPIN DENSITIES
--------------------------------------------------
CHARGE
  0 Mns       :     6.986394  s :     6.986394
      pz      :     3.999092  p :    11.990997
      px      :     3.999508
      py      :     3.992397
      dz2     :     1.001377  d :     5.988833
      dxz     :     1.867753
      dyz     :     1.034499
      dx2y2   :     1.002013
      dxy     :     1.083191
      f0      :     0.004297  f :     0.030528
      f+1     :     0.005072
      f-1     :     0.003883
      f+2     :     0.004654
      f-2     :     0.004727
      f+3     :     0.003947
      f-3     :     0.003947
      g0      :     0.000349  g :     0.003248
      g+1     :     0.000387
      g-1     :     0.000328
      g+2     :     0.000374
      g-2     :     0.000379
      g+3     :     0.000382
      g-3     :     0.000382
      g+4     :     0.000334
      g-4     :     0.000334

SPIN
  0 Mns       :     0.989483  s :     0.989483
      pz      :     0.007874  p :     0.025811
      px      :     0.007729
      py      :     0.010207
      dz2     :     0.989627  d :     3.966686
      dxz     :     0.123624
      dyz     :     0.956527
      dx2y2   :     0.989083
      dxy     :     0.907825
      f0      :     0.002416  f :     0.016438
      f+1     :     0.001504
      f-1     :     0.002911
      f+2     :     0.002009
      f-2     :     0.001920
      f+3     :     0.002839
      f-3     :     0.002839
      g0      :     0.000165  g :     0.001582
      g+1     :     0.000133
      g-1     :     0.000196
      g+2     :     0.000167
      g-2     :     0.000165
      g+3     :     0.000175
      g-3     :     0.000175
      g+4     :     0.000202
      g-4     :     0.000202


                      *****************************
                      * MAYER POPULATION ANALYSIS *
                      *****************************

  NA   - Mulliken gross atomic population
  ZA   - Total nuclear charge
  QA   - Mulliken gross atomic charge
  VA   - Mayer's total valence
  BVA  - Mayer's bonded valence
  FA   - Mayer's free valence

  ATOM       NA         ZA         QA         VA         BVA        FA
  0 Mn    25.0000    25.0000    -0.0000     5.5178     0.0000     5.5178





------------------------------------------------------------------------------- 
                                     TIMINGS                                   
------------------------------------------------------------------------------- 


Total execution time                   ...        5.495 sec

Fock Matrix Formation                  ...        0.164 sec (  3.0%)
Initial Guess                          ...        0.009 sec (  0.2%)
DIIS Solver                            ...        0.307 sec (  5.6%)
State Vector Update                    ...        0.015 sec (  0.3%)
Sigma-vector construction              ...        3.885 sec ( 70.7%)
  <D|H|D>(0-ext Fock)                  ...        0.005 sec (  0.1% of sigma)
  <D|H|D>(0-ext)                       ...        0.015 sec (  0.4% of sigma)
  <D|H|D>(2-ext Fock)                  ...        0.002 sec (  0.0% of sigma)
  <D|H|D>(2-ext)                       ...        0.058 sec (  1.5% of sigma)
  <D|H|D>(4-ext)                       ...        1.144 sec ( 29.4% of sigma)
  <S|H|0>                              ...        0.073 sec (  1.9% of sigma)
  <S|H|S>                              ...        0.001 sec (  0.0% of sigma)
  <S|H|D>(1-ext)                       ...        0.002 sec (  0.1% of sigma)
  <D|H|S>(1-ext)                       ...        0.030 sec (  0.8% of sigma)
  Fock-dressing                        ...        1.573 sec ( 40.5% of sigma)
  (ik|jl)-dressing                     ...        0.022 sec (  0.6% of sigma)
  (ij|ab),(ia|jb)-dressing             ...        0.740 sec ( 19.0% of sigma)
  Pair energies                        ...        0.002 sec (  0.1% of sigma)
Total Time for computing (T)           ...        0.166 sec (  3.0% of ALL)
  I/O of integral and amplitudes       ...        0.045 sec ( 26.9% of (T))
  External N**7 contributions          ...        0.043 sec ( 25.7% of (T))
  Internal N**7 contributions          ...        0.018 sec ( 10.6% of (T))
  N**6 triples energy contributions    ...        0.056 sec ( 33.7% of (T))

----- Orbital basis set information -----
Your calculation utilizes the basis: def2-QZVPP
   F. Weigend and R. Ahlrichs, Phys. Chem. Chem. Phys. 7, 3297 (2005).

----- AuxJ basis set information -----
Your calculation utilizes the auxiliary basis: def2/J
   F. Weigend, Phys. Chem. Chem. Phys. 8, 1057 (2006).

----- AuxC basis set information -----
Your calculation utilizes the auxiliary basis: def2-QZVPP/C
  H-La, Hf-Rn : A. Hellweg, C. Hattig, S. Hofener and W. Klopper, Theor. Chem. Acc. 117, 587 (2007).
        Ce-Lu : J. Chmela and M. E. Harding, Mol. Phys. (2018).

----- AuxJK basis set information -----
Your calculation utilizes the auxiliary basis: def2/JK
   H-Ba, Hf-Rn: F. Weigend, J. Comput. Chem. 29, 167 (2008).

All done

                     -----------------------------------------
                     Extrapolated Energy 2 Basis=  def2-QZVPP
                     -----------------------------------------

---------------------------------
CARTESIAN COORDINATES (ANGSTROEM)
---------------------------------
  Mn     0.000000    0.000000    0.000000

----------------------------
CARTESIAN COORDINATES (A.U.)
----------------------------
  NO LB      ZA    FRAG     MASS         X           Y           Z
   0 Mn   25.0000    0    54.940    0.000000    0.000000    0.000000

--------------------------------
INTERNAL COORDINATES (ANGSTROEM)
--------------------------------
 Mn     0   0   0     0.000000000000     0.00000000     0.00000000

---------------------------
INTERNAL COORDINATES (A.U.)
---------------------------
 Mn     0   0   0     0.000000000000     0.00000000     0.00000000

---------------------
BASIS SET INFORMATION
---------------------
There are 1 groups of distinct atoms

 Group   1 Type Mn  : 24s18p10d4f2g contracted to 11s6p5d4f2g pattern {114111111111/951111/61111/1111/11}

Atom   0Mn   basis set group =>   1
---------------------------------
AUXILIARY/J BASIS SET INFORMATION
---------------------------------
There are 1 groups of distinct atoms

 Group   1 Type Mn  : 19s5p5d3f3g contracted to 8s5p5d2f3g pattern {121111111/11111/11111/21/111}

Atom   0Mn   basis set group =>   1
---------------------------------
AUXILIARY/C BASIS SET INFORMATION
---------------------------------
There are 1 groups of distinct atoms

 Group   1 Type Mn  : 15s13p11d8f7g5h2i contracted to 15s13p11d8f7g5h2i pattern {111111111111111/1111111111111/11111111111/11111111/1111111/11111/11}

Atom   0Mn   basis set group =>   1
----------------------------------
AUXILIARY/JK BASIS SET INFORMATION
----------------------------------
There are 1 groups of distinct atoms

 Group   1 Type Mn  : 19s14p12d10f7g3h1i contracted to 16s13p11d9f5g3h1i pattern {4111111111111111/2111111111111/21111111111/211111111/31111/111/1}

Atom   0Mn   basis set group =>   1

Checking for AutoStart:
The File: 65_Mn.gbw exists
Trying to determine its content:
     ... Fine, the file contains calculation information
     ... Fine, the calculation information was read
     ... Fine, the file contains a basis set
     ... Fine, the basis set was read
     ... Fine, the file contains a geometry
     ... Fine, the geometry was read
     ... Fine, the file contains a set of orbitals
     ... Fine, the orbitals can be read
     => possible old guess file was deleted
     => GBW file was renamed to GES file
     => GES file is set as startup file
     => Guess is set to MORead
     ... now leaving AutoStart



           ************************************************************
           *        Program running with 24 parallel MPI-processes    *
           *              working on a common directory               *
           ************************************************************
------------------------------------------------------------------------------
                           ORCA GTO INTEGRAL CALCULATION
------------------------------------------------------------------------------

                         BASIS SET STATISTICS AND STARTUP INFO

 # of primitive gaussian shells          ...   58
 # of primitive gaussian functions       ...  174
 # of contracted shells                  ...   28
 # of contracted basis functions         ...  100
 Highest angular momentum                ...    4
 Maximum contraction depth               ...   11
 Integral package used                   ... LIBINT
 Integral threshhold            Thresh   ...  1.000e-12
 Primitive cut-off              TCut     ...  1.000e-14


------------------------------ INTEGRAL EVALUATION ----------------------------


 * One electron integrals 
 Pre-screening matrix                    ... done
 Shell pair data                         ... done (   0.000 sec)



           ************************************************************
           *        Program running with 24 parallel MPI-processes    *
           *              working on a common directory               *
           ************************************************************
-------------------------------------------------------------------------------
                                 ORCA SCF
-------------------------------------------------------------------------------

------------
SCF SETTINGS
------------
Hamiltonian:
 Ab initio Hamiltonian  Method          .... Hartree-Fock(GTOs)


General Settings:
 Integral files         IntName         .... 65_Mn
 Hartree-Fock type      HFTyp           .... UHF
 Total Charge           Charge          ....    0
 Multiplicity           Mult            ....    6
 Number of Electrons    NEL             ....   25
 Basis Dimension        Dim             ....  100
 Nuclear Repulsion      ENuc            ....      0.0000000000 Eh

Convergence Acceleration:
 DIIS                   CNVDIIS         .... on
   Start iteration      DIISMaxIt       ....     0
   Startup error        DIISStart       ....  0.200000
   # of expansion vecs  DIISMaxEq       ....    15
   Bias factor          DIISBfac        ....   1.050
   Max. coefficient     DIISMaxC        ....  10.000
 Newton-Raphson         CNVNR           .... off
 SOSCF                  CNVSOSCF        .... off
 Level Shifting         CNVShift        .... on
   Level shift para.    LevelShift      ....    0.2500
   Turn off err/grad.   ShiftErr        ....    0.0000
 Zerner damping         CNVZerner       .... off
 Static damping         CNVDamp         .... on
   Fraction old density DampFac         ....    0.8500
   Max. Damping (<1)    DampMax         ....    0.9800
   Min. Damping (>=0)   DampMin         ....    0.0000
   Turn off err/grad.   DampErr         ....    0.0300
 Fernandez-Rico         CNVRico         .... off

SCF Procedure:
 Maximum # iterations   MaxIter         ....  1500
 SCF integral mode      SCFMode         .... Direct
   Integral package                     .... LIBINT
 Reset frequency        DirectResetFreq ....     1
 Integral Threshold     Thresh          ....  1.000e-12 Eh
 Primitive CutOff       TCut            ....  1.000e-14 Eh

Convergence Tolerance:
 Convergence Check Mode ConvCheckMode   .... Total+1el-Energy
 Convergence forced     ConvForced      .... 1
 Energy Change          TolE            ....  1.000e-09 Eh
 1-El. energy change                    ....  1.000e-06 Eh
 DIIS Error             TolErr          ....  1.000e-08


Diagonalization of the overlap matrix:
Smallest eigenvalue                        ... 1.238e-03
Time for diagonalization                   ...    0.002 sec
Threshold for overlap eigenvalues          ... 1.000e-08
Number of eigenvalues below threshold      ... 0
Time for construction of square roots      ...    0.001 sec
Total time needed                          ...    0.004 sec

---------------------
INITIAL GUESS: MOREAD
---------------------
Guess MOs are being read from file: 65_Mn.ges
Input Geometry matches current geometry (good)
Atom 0: N(Shells)= 28 and 18 - projection required
Input basis set needs projection
NBasis(read)= 64
NBasis(calc)= 100
Basis set overlap was calculated
Using GuessMode=FMatrix for the initial guess
C*T matrix was formed
Effective Fockian was calculated
Effective Fockian was diagonalized
Initial density was built
C*T matrix was formed
Effective Fockian was calculated
Effective Fockian was diagonalized
Initial density was built
                      ------------------
                      INITIAL GUESS DONE (   0.0 sec)
                      ------------------
--------------
SCF ITERATIONS
--------------
[...]
<df|**>:         8120 b        0 skpd     0.043 s (  0.005 ms/b)
<dg|**>:         4060 b        0 skpd     0.068 s (  0.017 ms/b)
<ff|**>:         4060 b        0 skpd     0.020 s (  0.005 ms/b)
<fg|**>:         3248 b        0 skpd     0.029 s (  0.009 ms/b)
<gg|**>:         1218 b        0 skpd     0.046 s (  0.038 ms/b)
Closing buffer AOJ[aa] ( 0.00 GB; CompressionRatio= 0.97)
Closing buffer AOJ[bb] ( 0.00 GB; CompressionRatio= 0.00)
Collecting buffer AOJ 
    ... done with AO integral generation
Number of Alpha-MO pairs included          ...   55
Number of Beta-MO pairs included           ...   15
    ... Now sorting integrals
SORTING ALPHA/ALPHA PAIRS
IBATCH = 1 of  1
Closing buffer JAO[aa] ( 0.00 GB; CompressionRatio= 1.00)
SORTING BETA/BETA PAIRS
IBATCH = 1 of  1
Closing buffer JAO[bb] ( 0.00 GB; CompressionRatio= 1.00)
Collecting buffer JAO 
TOTAL TIME for half transformation         ...     0.771 sec
AO-integral generation                     ...     0.743 sec
Half transformation                        ...     0.010 sec
J-integral sorting                         ...     0.014 sec

-------------------------- SECOND HALF TRANSFORMATION -------------------------
Formation of (ij|kl),(ij|ka), (ij|ab)      ... ok (     0.038 sec)
Formation of (ik|jl),(ik|ja), (ia|jb)      ... ok (     0.055 sec)


-----------------------
SPIN UNRESTRICTED GUESS
-----------------------

Entering MDCI_UHF_Guess, Tailored=0
Spin-components of the MP2 energy:
EMP2(aa)=     -0.147953636
EMP2(bb)=     -0.037907926
EMP2(ab)=     -0.325863909

Initial guess performed in     0.021 sec
E(0)                                       ...  -1149.752392118
E(MP2)                                     ...     -0.511725472
Initial E(tot)                             ...  -1150.264117589
<T|T>                                      ...      0.090067338
Number of pairs included                   ... 105

------------------------------------------------
                  UHF COUPLED CLUSTER ITERATIONS
------------------------------------------------

Number of amplitudes to be optimized       ...       586190

Iter       E(tot)           E(Corr)          Delta-E          Residual     Time      <S|S>**1/2
  0  -1150.264117589     -0.511725472     -0.000000000      0.029951393    1.00      0.000008738
                           *** Turning on DIIS ***
  1  -1150.237700879     -0.485308762      0.026416710      0.008493793    1.01      0.052010678
  2  -1150.249148691     -0.496756574     -0.011447812      0.004927928    1.02      0.053297097
  3  -1150.250130387     -0.497738269     -0.000981695      0.003294675    1.03      0.066910620
  4  -1150.251021102     -0.498628985     -0.000890716      0.001902772    1.02      0.074754696
  5  -1150.251557412     -0.499165295     -0.000536310      0.000520427    1.05      0.082821471
  6  -1150.251629842     -0.499237725     -0.000072430      0.000588693    1.05      0.084821916
  7  -1150.251653192     -0.499261074     -0.000023349      0.000700197    1.08      0.085609243
  8  -1150.251653930     -0.499261813     -0.000000739      0.000744986    1.05      0.085684181
  9  -1150.251660538     -0.499268421     -0.000006608      0.000467559    1.04      0.085548062
 10  -1150.251663255     -0.499271138     -0.000002717      0.000134341    1.04      0.085675194
 11  -1150.251666130     -0.499274013     -0.000002875      0.000065531    1.05      0.085647932
 12  -1150.251665246     -0.499273129      0.000000884      0.000024978    1.04      0.085595417
 13  -1150.251662250     -0.499270133      0.000002996      0.000013261    1.03      0.085550756
 14  -1150.251661037     -0.499268919      0.000001214      0.000008238    1.03      0.085521034
 15  -1150.251660011     -0.499267893      0.000001026      0.000005107    1.02      0.085504617
 16  -1150.251659679     -0.499267561      0.000000332      0.000002492    1.03      0.085494312
 17  -1150.251659573     -0.499267455      0.000000106      0.000001772    1.04      0.085491176
 18  -1150.251659550     -0.499267433      0.000000022      0.000002156    1.03      0.085490056
 19  -1150.251659550     -0.499267433     -0.000000000      0.000002242    1.04      0.085490051
 20  -1150.251659545     -0.499267428      0.000000005      0.000001237    1.03      0.085490094
 21  -1150.251659506     -0.499267389      0.000000039      0.000000507    1.04      0.085489832
               --- The Coupled-Cluster iterations have converged ---

----------------------
COUPLED CLUSTER ENERGY
----------------------

E(0)                                       ...  -1149.752392118
E(CORR)                                    ...     -0.499267389
E(TOT)                                     ...  -1150.251659506
Singles norm <S|S>**1/2                    ...      0.085489832 ( 0.067657902, 0.017831931)  
T1 diagnostic                              ...      0.022073380                              

------------------
LARGEST AMPLITUDES
------------------
  14a-> 18a  -1a-> -1a       0.058128
   9b-> 22b  -1b-> -1b       0.046743
  14a-> 27a  -1a-> -1a       0.039571
  13a-> 26a  -1a-> -1a       0.030162
  13a-> 42a   9b-> 38b       0.027424
  12a-> 25a  -1a-> -1a       0.025834
  14a-> 21a   9b-> 21b       0.024894
  14a-> 17a   9b-> 21b       0.024167
  11a-> 24a  -1a-> -1a       0.023556
  10a-> 23a  -1a-> -1a       0.023020
   9b-> 38b  -1b-> -1b       0.022582
  14a-> 20a   9b-> 20b       0.022404
   9a-> 22a  -1a-> -1a       0.022186
  12a-> 41a   9b-> 38b       0.022110
  14a-> 16a   9b-> 20b       0.022042
  13a-> 42a   9b-> 22b       0.020843

----------------------
UHF TRIPLES CORRECTION (Algorithm 1)
----------------------

Multiplier for the singles contribution    ...      1.000000000

SPIN-CASE Alpha-Alpha-Alpha:
10% done
20% done
30% done
40% done
50% done
60% done
70% done
80% done
90% done


SPIN-CASE Beta-Beta-Beta:
10% done
20% done
30% done
40% done
50% done
60% done
70% done
80% done
90% done


SPIN-CASE Alpha-Alpha-Beta:
10% done
20% done
30% done
40% done
50% done
60% done
70% done
80% done
90% done


SPIN-CASE Beta-Beta-Alpha:
10% done
20% done
30% done
40% done
50% done
60% done
70% done
80% done
90% done


Triples Correction (T)                     ...     -0.016976001
    alpha-alpha-alpha ... -0.002575004 ( 15.2%)
    alpha-alpha-beta  ... -0.010634160 ( 62.6%)
    alpha-beta -beta  ... -0.003601435 ( 21.2%)
    beta -beta -beta  ... -0.000165402 (  1.0%)
Scaling of triples based on CCSD energies (Peterson et al. Molecular Physics 113, 1551 (2015))
E(T*) = f*E(T) where f = E(F12-CCSD)/E(CCSD) 
f = CCSD (with F12)/ CCSD (without F12)    ...      1.000000000
Scaled triples correction (T)              ...     -0.016976001

Final correlation energy                   ...     -0.516243390
E(CCSD)                                    ...  -1150.251659506
E(CCSD(T))                                 ...  -1150.268635507



        !!!!!!!!!!!!!!!!!!!!!!!!!!!!!!!!!!!!!!!!!!!!!!!!!!!!!!!!!!!!!!!!!!!!!!!!!! 
        !  Warning: Densities are linearized densities                           !
        !!!!!!!!!!!!!!!!!!!!!!!!!!!!!!!!!!!!!!!!!!!!!!!!!!!!!!!!!!!!!!!!!!!!!!!!!! 

NORM  =      1.102908465 sqrt=     1.050194489
W(HF) =      0.906693558
------------------------------------------------------------------------------
                           ORCA POPULATION ANALYSIS
------------------------------------------------------------------------------
Input electron density              ... 65_Mn.mdcip
Input spin density                  ... 65_Mn.mdcir
BaseName (.gbw .S,...)              ... 65_Mn

                    ********************************
                    * MULLIKEN POPULATION ANALYSIS *
                    ********************************

------------------------------------------
MULLIKEN ATOMIC CHARGES AND SPIN DENSITIES
------------------------------------------
   0 Mn:   -0.000000    5.000000
Sum of atomic charges       :   -0.0000000
Sum of atomic spin densities:    5.0000000

---------------------------------------------------
MULLIKEN REDUCED ORBITAL CHARGES AND SPIN DENSITIES
---------------------------------------------------
CHARGE
  0 Mns       :     6.984065  s :     6.984065
      pz      :     3.999147  p :    11.991524
      px      :     3.999539
      py      :     3.992839
      dz2     :     1.000684  d :     5.983527
      dxz     :     1.865509
      dyz     :     1.033696
      dx2y2   :     1.001334
      dxy     :     1.082304
      f0      :     0.005111  f :     0.036445
      f+1     :     0.006341
      f-1     :     0.004448
      f+2     :     0.005668
      f-2     :     0.005782
      f+3     :     0.004546
      f-3     :     0.004548
      g0      :     0.000476  g :     0.004439
      g+1     :     0.000544
      g-1     :     0.000436
      g+2     :     0.000516
      g-2     :     0.000524
      g+3     :     0.000526
      g-3     :     0.000527
      g+4     :     0.000445
      g-4     :     0.000445

SPIN
  0 Mns       :     0.987273  s :     0.987273
      pz      :     0.009023  p :     0.029152
      px      :     0.008884
      py      :     0.011245
      dz2     :     0.988741  d :     3.963649
      dxz     :     0.123773
      dyz     :     0.955781
      dx2y2   :     0.988222
      dxy     :     0.907132
      f0      :     0.002637  f :     0.017805
      f+1     :     0.001368
      f-1     :     0.003326
      f+2     :     0.002071
      f-2     :     0.001952
      f+3     :     0.003226
      f-3     :     0.003226
      g0      :     0.000219  g :     0.002120
      g+1     :     0.000180
      g-1     :     0.000260
      g+2     :     0.000225
      g-2     :     0.000223
      g+3     :     0.000237
      g-3     :     0.000237
      g+4     :     0.000269
      g-4     :     0.000269


                     *******************************
                     * LOEWDIN POPULATION ANALYSIS *
                     *******************************

-----------------------------------------
LOEWDIN ATOMIC CHARGES AND SPIN DENSITIES
-----------------------------------------
   0 Mn:   -0.000000    5.000000

--------------------------------------------------
LOEWDIN REDUCED ORBITAL CHARGES AND SPIN DENSITIES
--------------------------------------------------
CHARGE
  0 Mns       :     6.984065  s :     6.984065
      pz      :     3.999147  p :    11.991524
      px      :     3.999539
      py      :     3.992839
      dz2     :     1.000684  d :     5.983527
      dxz     :     1.865509
      dyz     :     1.033696
      dx2y2   :     1.001334
      dxy     :     1.082304
      f0      :     0.005111  f :     0.036445
      f+1     :     0.006341
      f-1     :     0.004448
      f+2     :     0.005668
      f-2     :     0.005782
      f+3     :     0.004546
      f-3     :     0.004548
      g0      :     0.000476  g :     0.004439
      g+1     :     0.000544
      g-1     :     0.000436
      g+2     :     0.000516
      g-2     :     0.000524
      g+3     :     0.000526
      g-3     :     0.000527
      g+4     :     0.000445
      g-4     :     0.000445

SPIN
  0 Mns       :     0.987273  s :     0.987273
      pz      :     0.009023  p :     0.029152
      px      :     0.008884
      py      :     0.011245
      dz2     :     0.988741  d :     3.963649
      dxz     :     0.123773
      dyz     :     0.955781
      dx2y2   :     0.988222
      dxy     :     0.907132
      f0      :     0.002637  f :     0.017805
      f+1     :     0.001368
      f-1     :     0.003326
      f+2     :     0.002071
      f-2     :     0.001952
      f+3     :     0.003226
      f-3     :     0.003226
      g0      :     0.000219  g :     0.002120
      g+1     :     0.000180
      g-1     :     0.000260
      g+2     :     0.000225
      g-2     :     0.000223
      g+3     :     0.000237
      g-3     :     0.000237
      g+4     :     0.000269
      g-4     :     0.000269


                      *****************************
                      * MAYER POPULATION ANALYSIS *
                      *****************************

  NA   - Mulliken gross atomic population
  ZA   - Total nuclear charge
  QA   - Mulliken gross atomic charge
  VA   - Mayer's total valence
  BVA  - Mayer's bonded valence
  FA   - Mayer's free valence

  ATOM       NA         ZA         QA         VA         BVA        FA
  0 Mn    25.0000    25.0000    -0.0000     5.5440     0.0000     5.5440





------------------------------------------------------------------------------- 
                                     TIMINGS                                   
------------------------------------------------------------------------------- 


Total execution time                   ...       27.677 sec

Fock Matrix Formation                  ...        0.560 sec (  2.0%)
Initial Guess                          ...        0.021 sec (  0.1%)
DIIS Solver                            ...        1.194 sec (  4.3%)
State Vector Update                    ...        0.053 sec (  0.2%)
Sigma-vector construction              ...       21.515 sec ( 77.7%)
  <0|H|D>                              ...        0.003 sec (  0.0% of sigma)
  <D|H|D>(0-ext Fock)                  ...        0.021 sec (  0.1% of sigma)
  <D|H|D>(0-ext)                       ...        0.075 sec (  0.3% of sigma)
  <D|H|D>(2-ext Fock)                  ...        0.007 sec (  0.0% of sigma)
  <D|H|D>(2-ext)                       ...        0.263 sec (  1.2% of sigma)
  <D|H|D>(4-ext)                       ...        8.883 sec ( 41.3% of sigma)
  <S|H|0>                              ...        0.443 sec (  2.1% of sigma)
  <S|H|S>                              ...        0.003 sec (  0.0% of sigma)
  <S|H|D>(1-ext)                       ...        0.007 sec (  0.0% of sigma)
  <D|H|S>(1-ext)                       ...        0.122 sec (  0.6% of sigma)
  Fock-dressing                        ...        7.858 sec ( 36.5% of sigma)
  (ik|jl)-dressing                     ...        0.094 sec (  0.4% of sigma)
  (ij|ab),(ia|jb)-dressing             ...        2.993 sec ( 13.9% of sigma)
  Pair energies                        ...        0.006 sec (  0.0% of sigma)
Total Time for computing (T)           ...        1.320 sec (  4.8% of ALL)
  I/O of integral and amplitudes       ...        0.336 sec ( 25.5% of (T))
  External N**7 contributions          ...        0.326 sec ( 24.7% of (T))
  Internal N**7 contributions          ...        0.157 sec ( 11.9% of (T))
  N**6 triples energy contributions    ...        0.462 sec ( 35.0% of (T))


-------------------
EXTRAPOLATED ENERGY
-------------------


-----------------------------------------------------------------
                      EP1 - MDCI extrapolation:
-----------------------------------------------------------------
NOTE: We use as reference SCF energy, for the extrapolation, the one from the MDCI module and not the one 
from the SCF calculation. In case the first step is a DFT calculation these two might be different.

NOTE: For the SCF part we extrapolate based on the scheme proposed in J. Chem. Phys. 2008, 129, 184116
using the exponents from J. Chem. Theory Comput., 7, 33-43 (2011)

NOTE: For the correlation part we extrapolate based on the scheme proposed in J. Chem. Phys. 1997, 106, 9639
using the exponents from J. Chem. Theory Comput., 7, 33-43 (2011)


Alpha(3/4)     :  7.880 (SCF Extrapolation)
Beta(3/4)      :  2.970 (correlation extrapolation)

SCF energy with basis def2-TZVPP:                     -1149.730138565
SCF energy with basis def2-QZVPP:                     -1149.752392118
Extrapolated CBS SCF energy (3/4) :                   -1149.755457293 (-0.003065175) 

MDCI energy with basis def2-TZVPP:                       -0.496259797
MDCI energy with basis def2-QZVPP:                       -0.516243390
Extrapolated CBS correlation energy (3/4) :              -0.531046040 (-0.014802650)

Estimated CBS total energy (3/4) :                    -1150.286503333



-------------------------   --------------------
FINAL SINGLE POINT ENERGY     -1150.286503332826
-------------------------   --------------------


                            ***************************************
                            *     ORCA property calculations      *
                            ***************************************

                                    ---------------------
                                    Active property flags
                                    ---------------------
   (+) Dipole Moment


------------------------------------------------------------------------------
                       ORCA ELECTRIC PROPERTIES CALCULATION
------------------------------------------------------------------------------

Dipole Moment Calculation                       ... on
Quadrupole Moment Calculation                   ... off
Polarizability Calculation                      ... off
GBWName                                         ... 65_Mn.gbw
Electron density file                           ... 65_Mn.scfp
The origin for moment calculation is the CENTER OF MASS  = ( 0.000000,  0.000000  0.000000)

-------------
DIPOLE MOMENT
-------------
                                X             Y             Z
Electronic contribution:      0.00000      -0.00000      -0.00000
Nuclear contribution   :      0.00000       0.00000       0.00000
                        -----------------------------------------
Total Dipole Moment    :      0.00000      -0.00000      -0.00000
                        -----------------------------------------
Magnitude (a.u.)       :      0.00000
Magnitude (Debye)      :      0.00000



--------------------
Rotational spectrum 
--------------------
 
Rotational constants in cm-1:     0.000000     0.000000     0.000000 
Rotational constants in MHz :     0.000000     0.000000     0.000000 

 Dipole components along the rotational axes: 
x,y,z [a.u.] :     0.000000    -0.000000    -0.000000 
x,y,z [Debye]:     0.000000    -0.000000    -0.000000 

 

                           *** MDCI DENSITY ***

------------------------------------------------------------------------------
                       ORCA ELECTRIC PROPERTIES CALCULATION
------------------------------------------------------------------------------

Dipole Moment Calculation                       ... on
Quadrupole Moment Calculation                   ... off
Polarizability Calculation                      ... off
GBWName                                         ... 65_Mn.gbw
Electron density file                           ... 65_Mn.mdcip
The origin for moment calculation is the CENTER OF MASS  = ( 0.000000,  0.000000  0.000000)

-------------
DIPOLE MOMENT
-------------
                                X             Y             Z
Electronic contribution:     -0.00000       0.00000      -0.00000
Nuclear contribution   :      0.00000       0.00000       0.00000
                        -----------------------------------------
Total Dipole Moment    :     -0.00000       0.00000      -0.00000
                        -----------------------------------------
Magnitude (a.u.)       :      0.00000
Magnitude (Debye)      :      0.00000



--------------------
Rotational spectrum 
--------------------
 
Rotational constants in cm-1:     0.000000     0.000000     0.000000 
Rotational constants in MHz :     0.000000     0.000000     0.000000 

 Dipole components along the rotational axes: 
x,y,z [a.u.] :    -0.000000     0.000000    -0.000000 
x,y,z [Debye]:    -0.000000     0.000000    -0.000000 

 

Timings for individual modules:

Sum of individual times         ...       73.461 sec (=   1.224 min)
GTO integral calculation        ...        2.026 sec (=   0.034 min)   2.8 %
SCF iterations                  ...       37.091 sec (=   0.618 min)  50.5 %
MDCI module                     ...       34.343 sec (=   0.572 min)  46.8 %
                             ****ORCA TERMINATED NORMALLY****
TOTAL RUN TIME: 0 days 0 hours 1 minutes 14 seconds 593 msec
