
                                 *****************
                                 * O   R   C   A *
                                 *****************

           --- An Ab Initio, DFT and Semiempirical electronic structure package ---

                  #######################################################
                  #                        -***-                        #
                  #          Department of theory and spectroscopy      #
                  #               Directorship: Frank Neese             #
                  #        Max Planck Institute fuer Kohlenforschung    #
                  #                Kaiser Wilhelm Platz 1               #
                  #                 D-45470 Muelheim/Ruhr               #
                  #                      Germany                        #
                  #                                                     #
                  #                  All rights reserved                #
                  #                        -***-                        #
                  #######################################################


                         Program Version 4.2.0 -  RELEASE  -


 With contributions from (in alphabetic order):
   Daniel Aravena         : Magnetic Suceptibility
   Michael Atanasov       : Ab Initio Ligand Field Theory (pilot matlab implementation)
   Alexander A. Auer      : GIAO ZORA, VPT2
   Ute Becker             : Parallelization
   Giovanni Bistoni       : ED, misc. LED, open-shell LED, HFLED
   Martin Brehm           : Molecular dynamics
   Dmytro Bykov           : SCF Hessian
   Vijay G. Chilkuri      : MRCI spin determinant printing, contributions to CSF-ICE
   Dipayan Datta          : RHF DLPNO-CCSD density
   Achintya Kumar Dutta   : EOM-CC, STEOM-CC
   Dmitry Ganyushin       : Spin-Orbit,Spin-Spin,Magnetic field MRCI
   Miquel Garcia          : C-PCM Hessian, Gaussian charge scheme
   Yang Guo               : DLPNO-NEVPT2, CIM, IAO-localization
   Andreas Hansen         : Spin unrestricted coupled pair/coupled cluster methods
   Benjamin Helmich-Paris : CASSCF linear response (MC-RPA)
   Lee Huntington         : MR-EOM, pCC
   Robert Izsak           : Overlap fitted RIJCOSX, COSX-SCS-MP3, EOM
   Christian Kollmar      : KDIIS, OOCD, Brueckner-CCSD(T), CCSD density
   Simone Kossmann        : Meta GGA functionals, TD-DFT gradient, OOMP2, MP2 Hessian
   Martin Krupicka        : AUTO-CI
   Lucas Lang             : DCDCAS
   Dagmar Lenk            : GEPOL surface, SMD
   Dimitrios Liakos       : Extrapolation schemes; Compound Job, initial MDCI parallelization
   Dimitrios Manganas     : Further ROCIS development; embedding schemes
   Dimitrios Pantazis     : SARC Basis sets
   Taras Petrenko         : DFT Hessian,TD-DFT gradient, ASA, ECA, R-Raman, ABS, FL, XAS/XES, NRVS
   Peter Pinski           : DLPNO-MP2, DLPNO-MP2 Gradient
   Christoph Reimann      : Effective Core Potentials
   Marius Retegan         : Local ZFS, SOC
   Christoph Riplinger    : Optimizer, TS searches, QM/MM, DLPNO-CCSD(T), (RO)-DLPNO pert. Triples
   Tobias Risthaus        : Range-separated hybrids, TD-DFT gradient, RPA, STAB
   Michael Roemelt        : Original ROCIS implementation
   Masaaki Saitow         : Open-shell DLPNO-CCSD energy and density
   Barbara Sandhoefer     : DKH picture change effects
   Avijit Sen             : IP-ROCIS
   Kantharuban Sivalingam : CASSCF convergence, NEVPT2, FIC-MRCI
   Bernardo de Souza      : ESD, SOC TD-DFT
   Georgi Stoychev        : AutoAux, RI-MP2 NMR
   Willem Van den Heuvel  : Paramagnetic NMR
   Boris Wezisla          : Elementary symmetry handling
   Frank Wennmohs         : Technical directorship


 We gratefully acknowledge several colleagues who have allowed us to
 interface, adapt or use parts of their codes:
   Stefan Grimme, W. Hujo, H. Kruse,             : VdW corrections, initial TS optimization,
                  C. Bannwarth                     DFT functionals, gCP, sTDA/sTD-DF
   Ed Valeev, F. Pavosevic, A. Kumar             : LibInt (2-el integral package), F12 methods
   Garnet Chan, S. Sharma, J. Yang, R. Olivares  : DMRG
   Ulf Ekstrom                                   : XCFun DFT Library
   Mihaly Kallay                                 : mrcc  (arbitrary order and MRCC methods)
   Andreas Klamt, Michael Diedenhofen            : otool_cosmo (COSMO solvation model)
   Jiri Pittner, Ondrej Demel                    : Mk-CCSD
   Frank Weinhold                                : gennbo (NPA and NBO analysis)
   Christopher J. Cramer and Donald G. Truhlar   : smd solvation model
   Lars Goerigk                                  : TD-DFT with DH, B97 family of functionals
   V. Asgeirsson, H. Jonsson                     : NEB implementation
   FAccTs GmbH                                   : IRC, NEB, NEB-TS, Multilevel, MM, QM/MM, CI optimization
   S Lehtola, MJT Oliveira, MAL Marques          : LibXC Library


 Your calculation uses the libint2 library for the computation of 2-el integrals
 For citations please refer to: http://libint.valeyev.net

 Your ORCA version has been built with support for libXC version: 4.2.3
 For citations please refer to: https://tddft.org/programs/libxc/

 This ORCA versions uses:
   CBLAS   interface :  Fast vector & matrix operations
   LAPACKE interface :  Fast linear algebra routines
   SCALAPACK package :  Parallel linear algebra routines


----- Orbital basis set information -----
Your calculation utilizes the basis: def2-TZVPP
   F. Weigend and R. Ahlrichs, Phys. Chem. Chem. Phys. 7, 3297 (2005).

================================================================================
                                        WARNINGS
                       Please study these warnings very carefully!
================================================================================


WARNING: your system is open-shell and RHF/RKS was chosen
  ===> : WILL SWITCH to UHF/UKS


WARNING: MDCI localization with Augmented Hessian Foster-Boys
  ===> : Switching off randomization!

WARNING: Post HF methods need fully converged wavefunctions
  ===> : Setting SCFConvForced true
         You can overwrite this default with %scf ConvForced false 


INFO   : the flag for use of LIBINT has been found!

================================================================================
                                       INPUT FILE
================================================================================
NAME = 66_Fe.in
|  1> #
|  2> # 66_Fe ccsd(t)/cbs
|  3> #
|  4> ! ccsd(t) extrapolate(3/4,def2) verytightscf
|  5> 
|  6> *xyz 0 5
|  7> Fe 0.0 0.0 0.0
|  8> *
|  9> 
| 10> %maxcore 5000
| 11> %pal
| 12> nprocs 24
| 13> end
| 14> 
| 15> 
| 16>                          ****END OF INPUT****
================================================================================

                   *****************************************
                   * Extrapolated Single Point Calculation *
                   *****************************************

----- Orbital basis set information -----
Your calculation utilizes the basis: def2-TZVPP
   F. Weigend and R. Ahlrichs, Phys. Chem. Chem. Phys. 7, 3297 (2005).

----- AuxJ basis set information -----
Your calculation utilizes the auxiliary basis: def2/J
   F. Weigend, Phys. Chem. Chem. Phys. 8, 1057 (2006).

----- AuxC basis set information -----
Your calculation utilizes the auxiliary basis: def2-TZVPP/C
  H-La, Hf-Rn : A. Hellweg, C. Hattig, S. Hofener and W. Klopper, Theor. Chem. Acc. 117, 587 (2007).
        Ce-Lu : J. Chmela and M. E. Harding, Mol. Phys. (2018).

----- AuxJK basis set information -----
Your calculation utilizes the auxiliary basis: def2/JK
   H-Ba, Hf-Rn: F. Weigend, J. Comput. Chem. 29, 167 (2008).

All done

                     -----------------------------------------
                     Extrapolated Energy 1 Basis=  def2-TZVPP
                     -----------------------------------------

---------------------------------
CARTESIAN COORDINATES (ANGSTROEM)
---------------------------------
  Fe     0.000000    0.000000    0.000000

----------------------------
CARTESIAN COORDINATES (A.U.)
----------------------------
  NO LB      ZA    FRAG     MASS         X           Y           Z
   0 Fe   26.0000    0    55.850    0.000000    0.000000    0.000000

--------------------------------
INTERNAL COORDINATES (ANGSTROEM)
--------------------------------
 Fe     0   0   0     0.000000000000     0.00000000     0.00000000

---------------------------
INTERNAL COORDINATES (A.U.)
---------------------------
 Fe     0   0   0     0.000000000000     0.00000000     0.00000000

---------------------
BASIS SET INFORMATION
---------------------
There are 1 groups of distinct atoms

 Group   1 Type Fe  : 17s12p7d2f1g contracted to 6s5p4d2f1g pattern {842111/63111/4111/11/1}

Atom   0Fe   basis set group =>   1
---------------------------------
AUXILIARY/J BASIS SET INFORMATION
---------------------------------
There are 1 groups of distinct atoms

 Group   1 Type Fe  : 19s5p5d3f3g contracted to 8s5p5d2f3g pattern {121111111/11111/11111/21/111}

Atom   0Fe   basis set group =>   1
---------------------------------
AUXILIARY/C BASIS SET INFORMATION
---------------------------------
There are 1 groups of distinct atoms

 Group   1 Type Fe  : 9s9p8d7f5g3h1i contracted to 9s9p8d7f5g3h1i pattern {111111111/111111111/11111111/1111111/11111/111/1}

Atom   0Fe   basis set group =>   1
----------------------------------
AUXILIARY/JK BASIS SET INFORMATION
----------------------------------
There are 1 groups of distinct atoms

 Group   1 Type Fe  : 19s14p12d10f7g3h1i contracted to 16s13p11d9f5g3h1i pattern {4111111111111111/2111111111111/21111111111/211111111/31111/111/1}

Atom   0Fe   basis set group =>   1


           ************************************************************
           *        Program running with 24 parallel MPI-processes    *
           *              working on a common directory               *
           ************************************************************
------------------------------------------------------------------------------
                           ORCA GTO INTEGRAL CALCULATION
------------------------------------------------------------------------------

                         BASIS SET STATISTICS AND STARTUP INFO

 # of primitive gaussian shells          ...   39
 # of primitive gaussian functions       ...  111
 # of contracted shells                  ...   18
 # of contracted basis functions         ...   64
 Highest angular momentum                ...    4
 Maximum contraction depth               ...    8
 Integral package used                   ... LIBINT
 Integral threshhold            Thresh   ...  1.000e-12
 Primitive cut-off              TCut     ...  1.000e-14


------------------------------ INTEGRAL EVALUATION ----------------------------


 * One electron integrals 
 Pre-screening matrix                    ... done
 Shell pair data                         ... done (   0.000 sec)



           ************************************************************
           *        Program running with 24 parallel MPI-processes    *
           *              working on a common directory               *
           ************************************************************
-------------------------------------------------------------------------------
                                 ORCA SCF
-------------------------------------------------------------------------------

------------
SCF SETTINGS
------------
Hamiltonian:
 Ab initio Hamiltonian  Method          .... Hartree-Fock(GTOs)


General Settings:
 Integral files         IntName         .... 66_Fe
 Hartree-Fock type      HFTyp           .... UHF
 Total Charge           Charge          ....    0
 Multiplicity           Mult            ....    5
 Number of Electrons    NEL             ....   26
 Basis Dimension        Dim             ....   64
 Nuclear Repulsion      ENuc            ....      0.0000000000 Eh

Convergence Acceleration:
 DIIS                   CNVDIIS         .... on
   Start iteration      DIISMaxIt       ....    12
   Startup error        DIISStart       ....  0.200000
   # of expansion vecs  DIISMaxEq       ....     5
   Bias factor          DIISBfac        ....   1.050
   Max. coefficient     DIISMaxC        ....  10.000
 Newton-Raphson         CNVNR           .... off
 SOSCF                  CNVSOSCF        .... off
 Level Shifting         CNVShift        .... on
   Level shift para.    LevelShift      ....    0.2500
   Turn off err/grad.   ShiftErr        ....    0.0010
 Zerner damping         CNVZerner       .... off
 Static damping         CNVDamp         .... on
   Fraction old density DampFac         ....    0.7000
   Max. Damping (<1)    DampMax         ....    0.9800
   Min. Damping (>=0)   DampMin         ....    0.0000
   Turn off err/grad.   DampErr         ....    0.1000
 Fernandez-Rico         CNVRico         .... off

SCF Procedure:
 Maximum # iterations   MaxIter         ....   125
 SCF integral mode      SCFMode         .... Direct
   Integral package                     .... LIBINT
 Reset frequency        DirectResetFreq ....    20
 Integral Threshold     Thresh          ....  1.000e-12 Eh
 Primitive CutOff       TCut            ....  1.000e-14 Eh

Convergence Tolerance:
 Convergence Check Mode ConvCheckMode   .... Total+1el-Energy
 Convergence forced     ConvForced      .... 1
 Energy Change          TolE            ....  1.000e-09 Eh
 1-El. energy change                    ....  1.000e-06 Eh
 DIIS Error             TolErr          ....  1.000e-08


Diagonalization of the overlap matrix:
Smallest eigenvalue                        ... 5.372e-02
Time for diagonalization                   ...    0.022 sec
Threshold for overlap eigenvalues          ... 1.000e-08
Number of eigenvalues below threshold      ... 0
Time for construction of square roots      ...    0.001 sec
Total time needed                          ...    0.023 sec

-------------------
DFT GRID GENERATION
-------------------

General Integration Accuracy     IntAcc      ...  4.340
Radial Grid Type                 RadialGrid  ... Gauss-Chebyshev
Angular Grid (max. acc.)         AngularGrid ... Lebedev-110
Angular grid pruning method      GridPruning ... 3 (G Style)
Weight generation scheme         WeightScheme... Becke
Basis function cutoff            BFCut       ...    1.0000e-12
Integration weight cutoff        WCut        ...    1.0000e-14
Grids for H and He will be reduced by one unit

# of grid points (after initial pruning)     ...   2912 (   0.0 sec)
# of grid points (after weights+screening)   ...   2912 (   0.0 sec)
Grid point division into batches done        ...    0.0 sec
Reduced shell lists constructed in    0.0 sec

Total number of grid points                  ...     2912
Total number of batches                      ...       46
Average number of points per batch           ...       63
Average number of grid points per atom       ...     2912
Average number of shells per batch           ...     4.00 (22.22%)
Average number of basis functions per batch  ...    12.00 (18.75%)
Average number of large shells per batch     ...     4.00 (100.00%)
Average number of large basis fcns per batch ...    12.00 (100.00%)
Maximum spatial batch extension              ...  18.98, 28.73, 28.73 au
Average spatial batch extension              ...   0.83,  1.25,  1.25 au

Time for grid setup =    0.017 sec

------------------------------
INITIAL GUESS: MODEL POTENTIAL
------------------------------
Loading Hartree-Fock densities                     ... done
Calculating cut-offs                               ... done
Setting up the integral package                    ... done
Initializing the effective Hamiltonian             ... done
Starting the Coulomb interaction                   ... done (   0.0 sec)
Reading the grid                                   ... done
Mapping shells                                     ... done
Starting the XC term evaluation                    ... done (   0.0 sec)
Transforming the Hamiltonian                       ... done (   0.0 sec)
Diagonalizing the Hamiltonian                      ... done (   0.0 sec)
Back transforming the eigenvectors                 ... done (   0.0 sec)
Now organizing SCF variables                       ... done
                      ------------------
                      INITIAL GUESS DONE (   0.1 sec)
                      ------------------
--------------
SCF ITERATIONS
--------------
ITER       Energy         Delta-E        Max-DP      RMS-DP      [F,P]     Damp
               ***  Starting incremental Fock matrix formation  ***
  0  -1262.3040993667   0.000000000000 0.04884082  0.00089726  0.1988912 0.7000
  1  -1262.3180028022  -0.013903435549 0.05354548  0.00082398  0.1122524 0.7000
                               ***Turning on DIIS***
  2  -1262.3259789261  -0.007976123846 0.15532882  0.00229909  0.0780125 0.0000
  3  -1262.2157330527   0.110245873421 0.03909573  0.00070653  0.0261042 0.0000
  4  -1262.5519492167  -0.336216164005 0.03587212  0.00058658  0.0208318 0.0000
  5  -1262.3709815644   0.180967652240 0.03465600  0.00053858  0.0041423 0.0000
  6  -1262.3591937765   0.011787787980 0.02523178  0.00038213  0.0023035 0.0000
  7  -1262.3510968623   0.008096914169 0.01197022  0.00017850  0.0011437 0.0000
  8  -1262.3497896407   0.001307221541 0.00966684  0.00014258  0.0005909 0.0000
  9  -1262.3483260914   0.001463549337 0.00229194  0.00003399  0.0002371 0.0000
 10  -1262.3478171627   0.000508928699 0.00021987  0.00000402  0.0002470 0.0000
 11  -1262.3468507363   0.000966426429 0.00002939  0.00000056  0.0002519 0.0000
 12  -1262.3470994333  -0.000248697072 0.00001002  0.00000038  0.0002525 0.0000
 13  -1262.3471261371  -0.000026703721 0.00000966  0.00000029  0.0002532 0.0000
 14  -1262.3474475391  -0.000321402032 0.00036491  0.00000601  0.0002527 0.0000
 15  -1262.3473409885   0.000106550598 0.00010813  0.00000206  0.0002582 0.0000
 16  -1262.3477031902  -0.000362201728 0.00006930  0.00000144  0.0002554 0.0000
 17  -1262.3476062135   0.000096976766 0.00007288  0.00000164  0.0002575 0.0000
 18  -1262.3476922076  -0.000085994122 0.00002472  0.00000043  0.0002601 0.0000
 19  -1262.3478234815  -0.000131273865 0.00013221  0.00000316  0.0002596 0.0000
               *** Restarting incremental Fock matrix formation ***
                                   *** Resetting DIIS ***
 20  -1262.3478465662  -0.000023084758 0.00013768  0.00000449  0.0002649 0.0000
 21  -1262.3478079108   0.000038655462 0.00001029  0.00000032  0.0002738 0.0000
 22  -1262.3477998389   0.000008071819 0.00001016  0.00000031  0.0002746 0.0000
 23  -1262.3478040669  -0.000004227984 0.00000063  0.00000002  0.0002739 0.0000
 24  -1262.3478037120   0.000000354952 0.00000072  0.00000002  0.0002738 0.0000
 25  -1262.3478503174  -0.000046605391 0.00015082  0.00000465  0.0002738 0.0000
 26  -1262.3476271728   0.000223144542 0.00036593  0.00001124  0.0002843 0.0000
 27  -1262.3477383124  -0.000111139585 0.00049230  0.00001533  0.0002572 0.0000
 28  -1262.3476602108   0.000078101572 0.00101205  0.00003195  0.0002180 0.0000
 29  -1262.3478453417  -0.000185130826 0.00040274  0.00001362  0.0001331 0.0000
 30  -1262.3478415120   0.000003829639 0.00010672  0.00000311  0.0000919 0.0000
 31  -1262.3478855103  -0.000043998327 0.00013746  0.00000389  0.0000786 0.0000
 32  -1262.3479655039  -0.000079993532 0.00021190  0.00000646  0.0000606 0.0000
 33  -1262.3478638040   0.000101699850 0.00019154  0.00000574  0.0000324 0.0000
 34  -1262.3479589471  -0.000095143073 0.00005566  0.00000174  0.0000174 0.0000
 35  -1262.3477737215   0.000185225623 0.00003149  0.00000077  0.0000104 0.0000
 36  -1262.3478219668  -0.000048245289 0.00002171  0.00000060  0.0000087 0.0000
 37  -1262.3478334232  -0.000011456427 0.00000295  0.00000010  0.0000088 0.0000
 38  -1262.3478398485  -0.000006425312 0.00000268  0.00000011  0.0000091 0.0000
 39  -1262.3478306443   0.000009204207 0.00000170  0.00000005  0.0000090 0.0000
               *** Restarting incremental Fock matrix formation ***
                                   *** Resetting DIIS ***
 40  -1262.3478410906  -0.000010446328 0.00000466  0.00000015  0.0000090 0.0000
 41  -1262.3478544354  -0.000013344738 0.00000090  0.00000003  0.0000093 0.0000
 42  -1262.3478537434   0.000000691949 0.00000091  0.00000003  0.0000094 0.0000
 43  -1262.3478552982  -0.000001554822 0.00000017  0.00000001  0.0000093 0.0000
 44  -1262.3478545972   0.000000700983 0.00000023  0.00000001  0.0000093 0.0000
 45  -1262.3478407904   0.000013806822 0.00000525  0.00000016  0.0000093 0.0000
 46  -1262.3478119179   0.000028872536 0.00000720  0.00000022  0.0000097 0.0000
 47  -1262.3478161449  -0.000004227043 0.00000894  0.00000028  0.0000091 0.0000
 48  -1262.3478401393  -0.000023994331 0.00002399  0.00000076  0.0000084 0.0000
 49  -1262.3478395400   0.000000599306 0.00003206  0.00000103  0.0000064 0.0000
 50  -1262.3478396307  -0.000000090759 0.00000784  0.00000025  0.0000035 0.0000
 51  -1262.3478424127  -0.000002782002 0.00000392  0.00000011  0.0000027 0.0000
 52  -1262.3478359331   0.000006479661 0.00000439  0.00000015  0.0000022 0.0000
 53  -1262.3478413162  -0.000005383120 0.00000579  0.00000021  0.0000016 0.0000
 54  -1262.3478428731  -0.000001556948 0.00000281  0.00000011  0.0000011 0.0000
 55  -1262.3478374598   0.000005413324 0.00000180  0.00000007  0.0000007 0.0000
 56  -1262.3478444315  -0.000006971652 0.00000144  0.00000005  0.0000005 0.0000
 57  -1262.3478411644   0.000003267026 0.00000077  0.00000002  0.0000003 0.0000
 58  -1262.3478412326  -0.000000068145 0.00000062  0.00000001  0.0000003 0.0000
 59  -1262.3478410889   0.000000143697 0.00000123  0.00000003  0.0000002 0.0000
               *** Restarting incremental Fock matrix formation ***
                                   *** Resetting DIIS ***
 60  -1262.3478410842   0.000000004670 0.00000030  0.00000001  0.0000002 0.0000
 61  -1262.3478408637   0.000000220526 0.00000047  0.00000001  0.0000002 0.0000
 62  -1262.3478408415   0.000000022173 0.00000057  0.00000001  0.0000002 0.0000
 63  -1262.3478411265  -0.000000285040 0.00000164  0.00000004  0.0000002 0.0000
 64  -1262.3478408940   0.000000232580 0.00000243  0.00000005  0.0000001 0.0000
 65  -1262.3478411148  -0.000000220799 0.00000098  0.00000002  0.0000000 0.0000
 66  -1262.3478411529  -0.000000038088 0.00000041  0.00000001  0.0000000 0.0000
                            ***DIIS convergence achieved***

               *****************************************************
               *                     SUCCESS                       *
               *           SCF CONVERGED AFTER  67 CYCLES          *
               *****************************************************


----------------
TOTAL SCF ENERGY
----------------

Total Energy       :        -1262.34784102 Eh          -34350.23109 eV

Components:
Nuclear Repulsion  :            0.00000000 Eh               0.00000 eV
Electronic Energy  :        -1262.34784102 Eh          -34350.23109 eV
One Electron Energy:        -1749.34045661 Eh          -47601.97386 eV
Two Electron Energy:          486.99261559 Eh           13251.74278 eV

Virial components:
Potential Energy   :        -2524.45732483 Eh          -68693.97614 eV
Kinetic Energy     :         1262.10948382 Eh           34343.74506 eV
Virial Ratio       :            2.00018886


---------------
SCF CONVERGENCE
---------------

  Last Energy change         ...    1.3500e-07  Tolerance :   1.0000e-09
  Last MAX-Density change    ...    7.6219e-08  Tolerance :   1.0000e-08
  Last RMS-Density change    ...    1.8331e-09  Tolerance :   1.0000e-09
  Last DIIS Error            ...    1.1820e-08  Tolerance :   1.0000e-08

             **** THE GBW FILE WAS UPDATED (66_Fe.gbw) ****
             **** DENSITY FILE WAS UPDATED (66_Fe.scfp) ****
             **** ENERGY FILE WAS UPDATED (66_Fe.en.tmp) ****
----------------------
UHF SPIN CONTAMINATION
----------------------

Expectation value of <S**2>     :     6.006002
Ideal value S*(S+1) for S=2.0   :     6.000000
Deviation                       :     0.006002

             **** THE GBW FILE WAS UPDATED (66_Fe.gbw) ****
             **** DENSITY FILE WAS UPDATED (66_Fe.scfp) ****
----------------
ORBITAL ENERGIES
----------------
                 SPIN UP ORBITALS
  NO   OCC          E(Eh)            E(eV) 
   0   1.0000    -261.186692     -7107.2512 
   1   1.0000     -31.764991      -864.3694 
   2   1.0000     -27.255972      -741.6727 
   3   1.0000     -27.255972      -741.6727 
   4   1.0000     -27.225640      -740.8473 
   5   1.0000      -4.091537      -111.3364 
   6   1.0000      -2.727304       -74.2137 
   7   1.0000      -2.727304       -74.2137 
   8   1.0000      -2.656574       -72.2890 
   9   1.0000      -0.487890       -13.2762 
  10   1.0000      -0.487890       -13.2762 
  11   1.0000      -0.450737       -12.2652 
  12   1.0000      -0.412233       -11.2174 
  13   1.0000      -0.412233       -11.2174 
  14   1.0000      -0.229508        -6.2452 
  15   0.0000       0.086528         2.3545 
  16   0.0000       0.086528         2.3545 
  17   0.0000       0.096174         2.6170 
  18   0.0000       0.220055         5.9880 
  19   0.0000       0.269883         7.3439 
  20   0.0000       0.269883         7.3439 
  21   0.0000       0.275333         7.4922 
  22   0.0000       0.277788         7.5590 
  23   0.0000       0.277788         7.5590 
  24   0.0000       0.608291        16.5524 
  25   0.0000       0.608291        16.5524 
  26   0.0000       0.626686        17.0530 
  27   0.0000       1.102277        29.9945 
  28   0.0000       1.102277        29.9945 
  29   0.0000       1.119315        30.4581 
  30   0.0000       1.131899        30.8005 
  31   0.0000       1.131899        30.8005 
  32   0.0000       2.649357        72.0927 
  33   0.0000       2.649357        72.0927 
  34   0.0000       2.679991        72.9263 
  35   0.0000       2.679991        72.9263 
  36   0.0000       2.684493        73.0488 
  37   0.0000       2.692135        73.2567 
  38   0.0000       2.692135        73.2567 
  39   0.0000       2.722332        74.0784 
  40   0.0000       2.722332        74.0784 
  41   0.0000       2.753224        74.9190 
  42   0.0000       2.975130        80.9574 
  43   0.0000       3.981324       108.3373 
  44   0.0000       3.981324       108.3373 
  45   0.0000       4.011331       109.1539 
  46   0.0000       4.035799       109.8197 
  47   0.0000       4.035799       109.8197 
  48   0.0000       9.108865       247.8648 
  49   0.0000       9.108865       247.8648 
  50   0.0000       9.167481       249.4598 
  51   0.0000       9.167558       249.4619 
  52   0.0000       9.167558       249.4619 
  53   0.0000       9.171613       249.5723 
  54   0.0000       9.171613       249.5723 
  55   0.0000       9.178086       249.7484 
  56   0.0000       9.178086       249.7484 
  57   0.0000       9.885039       268.9856 
  58   0.0000       9.885039       268.9856 
  59   0.0000       9.945265       270.6244 
  60   0.0000       9.955478       270.9023 
  61   0.0000       9.955478       270.9023 
  62   0.0000       9.960245       271.0320 
  63   0.0000       9.960245       271.0320 

                 SPIN DOWN ORBITALS
  NO   OCC          E(Eh)            E(eV) 
   0   1.0000    -261.183452     -7107.1630 
   1   1.0000     -31.677741      -861.9952 
   2   1.0000     -27.162292      -739.1236 
   3   1.0000     -27.161874      -739.1122 
   4   1.0000     -27.161874      -739.1122 
   5   1.0000      -3.833267      -104.3085 
   6   1.0000      -2.432153       -66.1822 
   7   1.0000      -2.379756       -64.7564 
   8   1.0000      -2.379756       -64.7564 
   9   1.0000      -0.305293        -8.3074 
  10   1.0000      -0.305293        -8.3074 
  11   0.0000       0.028002         0.7620 
  12   0.0000       0.149806         4.0764 
  13   0.0000       0.149806         4.0764 
  14   0.0000       0.151734         4.1289 
  15   0.0000       0.246667         6.7121 
  16   0.0000       0.246667         6.7121 
  17   0.0000       0.256829         6.9887 
  18   0.0000       0.291028         7.9193 
  19   0.0000       0.300506         8.1772 
  20   0.0000       0.300506         8.1772 
  21   0.0000       0.460356        12.5269 
  22   0.0000       0.460356        12.5269 
  23   0.0000       0.501353        13.6425 
  24   0.0000       0.668869        18.2009 
  25   0.0000       0.668869        18.2009 
  26   0.0000       0.673802        18.3351 
  27   0.0000       1.175773        31.9944 
  28   0.0000       1.175773        31.9944 
  29   0.0000       1.264512        34.4091 
  30   0.0000       1.264512        34.4091 
  31   0.0000       1.292203        35.1626 
  32   0.0000       2.761239        75.1371 
  33   0.0000       2.761239        75.1371 
  34   0.0000       2.789360        75.9024 
  35   0.0000       2.789360        75.9024 
  36   0.0000       2.792393        75.9849 
  37   0.0000       2.802403        76.2573 
  38   0.0000       2.802403        76.2573 
  39   0.0000       2.814595        76.5890 
  40   0.0000       2.814595        76.5890 
  41   0.0000       2.833145        77.0938 
  42   0.0000       3.073479        83.6336 
  43   0.0000       4.090993       111.3216 
  44   0.0000       4.090993       111.3216 
  45   0.0000       4.158122       113.1482 
  46   0.0000       4.158122       113.1482 
  47   0.0000       4.193674       114.1157 
  48   0.0000       9.244540       251.5567 
  49   0.0000       9.244540       251.5567 
  50   0.0000       9.252246       251.7664 
  51   0.0000       9.252246       251.7664 
  52   0.0000       9.253932       251.8123 
  53   0.0000       9.253932       251.8123 
  54   0.0000       9.265091       252.1159 
  55   0.0000       9.265091       252.1159 
  56   0.0000       9.270062       252.2512 
  57   0.0000      10.074923       274.1526 
  58   0.0000      10.074923       274.1526 
  59   0.0000      10.112872       275.1852 
  60   0.0000      10.112872       275.1852 
  61   0.0000      10.138104       275.8718 
  62   0.0000      10.138508       275.8828 
  63   0.0000      10.138508       275.8828 

                    ********************************
                    * MULLIKEN POPULATION ANALYSIS *
                    ********************************

--------------------------------------------
MULLIKEN ATOMIC CHARGES AND SPIN POPULATIONS
--------------------------------------------
   0 Fe:   -0.000000    4.000000
Sum of atomic charges         :   -0.0000000
Sum of atomic spin populations:    4.0000000

-----------------------------------------------------
MULLIKEN REDUCED ORBITAL CHARGES AND SPIN POPULATIONS
-----------------------------------------------------
CHARGE
  0 Fes       :     6.999633  s :     6.999633
      pz      :     3.999579  p :    11.999114
      px      :     3.999768
      py      :     3.999768
      dz2     :     1.000348  d :     7.000274
      dxz     :     1.999979
      dyz     :     1.999982
      dx2y2   :     0.999983
      dxy     :     0.999983
      f0      :     0.000421  f :     0.000886
      f+1     :     0.000232
      f-1     :     0.000232
      f+2     :     0.000000
      f-2     :     0.000000
      f+3     :     0.000000
      f-3     :     0.000000
      g0      :     0.000028  g :     0.000093
      g+1     :     0.000012
      g-1     :     0.000012
      g+2     :     0.000021
      g-2     :     0.000021
      g+3     :     0.000000
      g-3     :     0.000000
      g+4     :     0.000000
      g-4     :     0.000000

SPIN
  0 Fes       :     0.999677  s :     0.999677
      pz      :     0.000417  p :     0.000647
      px      :     0.000115
      py      :     0.000115
      dz2     :     1.000323  d :     3.000282
      dxz     :     0.000005
      dyz     :     0.000002
      dx2y2   :     0.999976
      dxy     :     0.999976
      f0      :    -0.000417  f :    -0.000647
      f+1     :    -0.000115
      f-1     :    -0.000115
      f+2     :    -0.000000
      f-2     :    -0.000000
      f+3     :    -0.000000
      f-3     :    -0.000000
      g0      :    -0.000009  g :     0.000041
      g+1     :     0.000005
      g-1     :     0.000005
      g+2     :     0.000021
      g-2     :     0.000021
      g+3     :     0.000000
      g-3     :     0.000000
      g+4     :     0.000000
      g-4     :     0.000000


                     *******************************
                     * LOEWDIN POPULATION ANALYSIS *
                     *******************************

-------------------------------------------
LOEWDIN ATOMIC CHARGES AND SPIN POPULATIONS
-------------------------------------------
   0 Fe:   -0.000000    4.000000

----------------------------------------------------
LOEWDIN REDUCED ORBITAL CHARGES AND SPIN POPULATIONS
----------------------------------------------------
CHARGE
  0 Fes       :     6.999633  s :     6.999633
      pz      :     3.999579  p :    11.999114
      px      :     3.999768
      py      :     3.999768
      dz2     :     1.000348  d :     7.000274
      dxz     :     1.999979
      dyz     :     1.999982
      dx2y2   :     0.999983
      dxy     :     0.999983
      f0      :     0.000421  f :     0.000886
      f+1     :     0.000232
      f-1     :     0.000232
      f+2     :     0.000000
      f-2     :     0.000000
      f+3     :     0.000000
      f-3     :     0.000000
      g0      :     0.000028  g :     0.000093
      g+1     :     0.000012
      g-1     :     0.000012
      g+2     :     0.000021
      g-2     :     0.000021
      g+3     :     0.000000
      g-3     :     0.000000
      g+4     :     0.000000
      g-4     :     0.000000

SPIN
  0 Fes       :     0.999677  s :     0.999677
      pz      :     0.000417  p :     0.000647
      px      :     0.000115
      py      :     0.000115
      dz2     :     1.000323  d :     3.000282
      dxz     :     0.000005
      dyz     :     0.000002
      dx2y2   :     0.999976
      dxy     :     0.999976
      f0      :    -0.000417  f :    -0.000647
      f+1     :    -0.000115
      f-1     :    -0.000115
      f+2     :    -0.000000
      f-2     :    -0.000000
      f+3     :    -0.000000
      f-3     :    -0.000000
      g0      :    -0.000009  g :     0.000041
      g+1     :     0.000005
      g-1     :     0.000005
      g+2     :     0.000021
      g-2     :     0.000021
      g+3     :     0.000000
      g-3     :     0.000000
      g+4     :     0.000000
      g-4     :     0.000000


                      *****************************
                      * MAYER POPULATION ANALYSIS *
                      *****************************

  NA   - Mulliken gross atomic population
  ZA   - Total nuclear charge
  QA   - Mulliken gross atomic charge
  VA   - Mayer's total valence
  BVA  - Mayer's bonded valence
  FA   - Mayer's free valence

  ATOM       NA         ZA         QA         VA         BVA        FA
  0 Fe    26.0000    26.0000    -0.0000     4.0120     0.0000     4.0120

  Mayer bond orders larger than 0.100000


-------
TIMINGS
-------

Total SCF time: 0 days 0 hours 0 min 7 sec 

Total time                  ....       7.463 sec
Sum of individual times     ....       7.172 sec  ( 96.1%)

Fock matrix formation       ....       6.888 sec  ( 92.3%)
Diagonalization             ....       0.077 sec  (  1.0%)
Density matrix formation    ....       0.020 sec  (  0.3%)
Population analysis         ....       0.004 sec  (  0.0%)
Initial guess               ....       0.108 sec  (  1.4%)
Orbital Transformation      ....       0.000 sec  (  0.0%)
Orbital Orthonormalization  ....       0.000 sec  (  0.0%)
DIIS solution               ....       0.059 sec  (  0.8%)


           ************************************************************
           *        Program running with 24 parallel MPI-processes    *
           *              working on a common directory               *
           ************************************************************


------------------------------------------------------------------------------- 
                              ORCA-MATRIX DRIVEN CI                            
------------------------------------------------------------------------------- 

--------------------------------
AUTOMATIC CHOICE OF INCORE LEVEL
--------------------------------

Memory available                           ...   2500.00 MB
Memory needed for S+T                      ...      3.02 MB
Memory needed for J+K                      ...      6.09 MB
Memory needed for DIIS                     ...     42.31 MB
Memory needed for 3-ext                    ...      8.98 MB
Memory needed for 4-ext                    ...     22.44 MB
Memory needed for triples                  ...      4.49 MB
 -> Final InCoreLevel    ... 5
 -> check shows that triples correction can be computed


Wavefunction type
-----------------
Correlation treatment                      ...      CCSD     
Single excitations                         ... ON
Orbital optimization                       ... OFF
Calculation of Z vector                    ... OFF
Calculation of Brueckner orbitals          ... OFF
Perturbative triple excitations            ... ON
Calculation of F12 correction              ... OFF
Frozen core treatment                      ... chemical core (10 el)
Reference Wavefunction                     ... UHF
  Alpha-MOs occ    :     5 ...   14 ( 10 MO's/ 10 electrons)
  Beta-MOs occ     :     5 ...   10 (  6 MO's/  6 electrons)
  Alpha-MOs virt   :    15 ...   63 ( 49 MO's              )
  Beta-MOs virt    :    11 ...   63 ( 53 MO's              )
Number of AO's                             ...     64
Number of electrons                        ...     26
Number of correlated electrons             ...     16

Algorithmic settings
--------------------
Integral transformation                    ... AO direct full transformation
K(C) Formation                             ... FULL-MO TRAFO
Maximum number of iterations               ...        50
Convergence tolerance (max. residuum)      ... 1.000e-06
Level shift for amplitude update           ... 2.000e-01
Maximum number of DIIS vectors             ...         7
DIIS turned on at iteration                ...         0
Damping before turning on DIIS             ...     0.500
Damping after turning on DIIS              ...     0.000
Pair specific amplitude update             ... OFF
Natural orbital iterations                 ... OFF
Perturbative natural orbital generation    ... OFF
Printlevel                                 ... 2

Memory handling:
----------------
Maximum memory for working arrays          ...   2500 MB
Data storage in matrix containers          ... UNCOMPRESSED
Data type for integral storage             ... DOUBLE
In-Core Storage of quantities:
   Amplitudes+Sigma Vector      ... YES
   J+K operators                ... YES
   DIIS vectors                 ... YES
   3-external integrals         ... YES
   4-external integrals         ... YES


Initializing the integral package          ... done
Warning: reference  - re-canonicalizations have been set to INT 1 VIRT 1

--------------------------
UNRESTRICTED FOCK OPERATOR
--------------------------

<ss|ss>:          231 b            0 skpd (  0.0%)    0.000 s ( 0.002 ms/b)
<ss|sp>:          630 b            0 skpd (  0.0%)    0.001 s ( 0.001 ms/b)
<ss|sd>:          504 b            0 skpd (  0.0%)    0.001 s ( 0.001 ms/b)
<ss|sf>:          252 b            0 skpd (  0.0%)    0.000 s ( 0.001 ms/b)
<ss|sg>:          126 b            0 skpd (  0.0%)    0.000 s ( 0.002 ms/b)
<ss|pp>:          315 b            0 skpd (  0.0%)    0.001 s ( 0.002 ms/b)
<ss|pd>:          420 b            0 skpd (  0.0%)    0.001 s ( 0.001 ms/b)
<ss|pf>:          210 b            0 skpd (  0.0%)    0.000 s ( 0.001 ms/b)
<ss|pg>:          105 b            0 skpd (  0.0%)    0.000 s ( 0.003 ms/b)
<ss|dd>:          210 b            0 skpd (  0.0%)    0.001 s ( 0.003 ms/b)
<ss|df>:          168 b            0 skpd (  0.0%)    0.000 s ( 0.002 ms/b)
<ss|dg>:           84 b            0 skpd (  0.0%)    0.000 s ( 0.004 ms/b)
<ss|ff>:           63 b            0 skpd (  0.0%)    0.000 s ( 0.002 ms/b)
<ss|fg>:           42 b            0 skpd (  0.0%)    0.000 s ( 0.005 ms/b)
<ss|gg>:           21 b            0 skpd (  0.0%)    0.000 s ( 0.013 ms/b)
<sp|sp>:          465 b            0 skpd (  0.0%)    0.001 s ( 0.002 ms/b)
<sp|sd>:          720 b            0 skpd (  0.0%)    0.001 s ( 0.001 ms/b)
<sp|sf>:          360 b            0 skpd (  0.0%)    0.000 s ( 0.001 ms/b)
<sp|sg>:          180 b            0 skpd (  0.0%)    0.001 s ( 0.003 ms/b)
<sp|pp>:          450 b            0 skpd (  0.0%)    0.001 s ( 0.002 ms/b)
<sp|pd>:          600 b            0 skpd (  0.0%)    0.001 s ( 0.002 ms/b)
<sp|pf>:          300 b            0 skpd (  0.0%)    0.001 s ( 0.002 ms/b)
<sp|pg>:          150 b            0 skpd (  0.0%)    0.001 s ( 0.005 ms/b)
<sp|dd>:          300 b            0 skpd (  0.0%)    0.001 s ( 0.004 ms/b)
<sp|df>:          240 b            0 skpd (  0.0%)    0.001 s ( 0.003 ms/b)
<sp|dg>:          120 b            0 skpd (  0.0%)    0.001 s ( 0.007 ms/b)
<sp|ff>:           90 b            0 skpd (  0.0%)    0.000 s ( 0.004 ms/b)
<sp|fg>:           60 b            0 skpd (  0.0%)    0.001 s ( 0.009 ms/b)
<sp|gg>:           30 b            0 skpd (  0.0%)    0.001 s ( 0.024 ms/b)
<sd|sd>:          300 b            0 skpd (  0.0%)    0.001 s ( 0.002 ms/b)
<sd|sf>:          288 b            0 skpd (  0.0%)    0.001 s ( 0.002 ms/b)
<sd|sg>:          144 b            0 skpd (  0.0%)    0.001 s ( 0.004 ms/b)
<sd|pp>:          360 b            0 skpd (  0.0%)    0.001 s ( 0.003 ms/b)
<sd|pd>:          480 b            0 skpd (  0.0%)    0.001 s ( 0.003 ms/b)
<sd|pf>:          240 b            0 skpd (  0.0%)    0.001 s ( 0.003 ms/b)
<sd|pg>:          120 b            0 skpd (  0.0%)    0.001 s ( 0.009 ms/b)
<sd|dd>:          240 b            0 skpd (  0.0%)    0.002 s ( 0.007 ms/b)
<sd|df>:          192 b            0 skpd (  0.0%)    0.001 s ( 0.005 ms/b)
<sd|dg>:           96 b            0 skpd (  0.0%)    0.001 s ( 0.015 ms/b)
<sd|ff>:           72 b            0 skpd (  0.0%)    0.001 s ( 0.008 ms/b)
<sd|fg>:           48 b            0 skpd (  0.0%)    0.001 s ( 0.018 ms/b)
<sd|gg>:           24 b            0 skpd (  0.0%)    0.001 s ( 0.051 ms/b)
<sf|sf>:           78 b            0 skpd (  0.0%)    0.000 s ( 0.003 ms/b)
<sf|sg>:           72 b            0 skpd (  0.0%)    0.000 s ( 0.006 ms/b)
<sf|pp>:          180 b            0 skpd (  0.0%)    0.001 s ( 0.004 ms/b)
<sf|pd>:          240 b            0 skpd (  0.0%)    0.001 s ( 0.004 ms/b)
<sf|pf>:          120 b            0 skpd (  0.0%)    0.000 s ( 0.004 ms/b)
<sf|pg>:           60 b            0 skpd (  0.0%)    0.001 s ( 0.013 ms/b)
<sf|dd>:          120 b            0 skpd (  0.0%)    0.001 s ( 0.010 ms/b)
<sf|df>:           96 b            0 skpd (  0.0%)    0.001 s ( 0.007 ms/b)
<sf|dg>:           48 b            0 skpd (  0.0%)    0.001 s ( 0.021 ms/b)
<sf|ff>:           36 b            0 skpd (  0.0%)    0.001 s ( 0.015 ms/b)
<sf|fg>:           24 b            0 skpd (  0.0%)    0.001 s ( 0.029 ms/b)
<sf|gg>:           12 b            0 skpd (  0.0%)    0.001 s ( 0.076 ms/b)
<sg|sg>:           21 b            0 skpd (  0.0%)    0.000 s ( 0.009 ms/b)
<sg|pp>:           90 b            0 skpd (  0.0%)    0.001 s ( 0.008 ms/b)
<sg|pd>:          120 b            0 skpd (  0.0%)    0.001 s ( 0.008 ms/b)
<sg|pf>:           60 b            0 skpd (  0.0%)    0.000 s ( 0.007 ms/b)
<sg|pg>:           30 b            0 skpd (  0.0%)    0.001 s ( 0.027 ms/b)
<sg|dd>:           60 b            0 skpd (  0.0%)    0.001 s ( 0.019 ms/b)
<sg|df>:           48 b            0 skpd (  0.0%)    0.001 s ( 0.013 ms/b)
<sg|dg>:           24 b            0 skpd (  0.0%)    0.001 s ( 0.045 ms/b)
<sg|ff>:           18 b            0 skpd (  0.0%)    0.000 s ( 0.020 ms/b)
<sg|fg>:           12 b            0 skpd (  0.0%)    0.001 s ( 0.052 ms/b)
<sg|gg>:            6 b            0 skpd (  0.0%)    0.001 s ( 0.142 ms/b)
<pp|pp>:          120 b            0 skpd (  0.0%)    0.001 s ( 0.009 ms/b)
<pp|pd>:          300 b            0 skpd (  0.0%)    0.001 s ( 0.004 ms/b)
<pp|pf>:          150 b            0 skpd (  0.0%)    0.001 s ( 0.004 ms/b)
<pp|pg>:           75 b            0 skpd (  0.0%)    0.001 s ( 0.013 ms/b)
<pp|dd>:          150 b            0 skpd (  0.0%)    0.002 s ( 0.010 ms/b)
<pp|df>:          120 b            0 skpd (  0.0%)    0.001 s ( 0.007 ms/b)
<pp|dg>:           60 b            0 skpd (  0.0%)    0.001 s ( 0.021 ms/b)
<pp|ff>:           45 b            0 skpd (  0.0%)    0.001 s ( 0.012 ms/b)
<pp|fg>:           30 b            0 skpd (  0.0%)    0.001 s ( 0.027 ms/b)
<pp|gg>:           15 b            0 skpd (  0.0%)    0.001 s ( 0.072 ms/b)
<pd|pd>:          210 b            0 skpd (  0.0%)    0.002 s ( 0.010 ms/b)
<pd|pf>:          200 b            0 skpd (  0.0%)    0.001 s ( 0.006 ms/b)
<pd|pg>:          100 b            0 skpd (  0.0%)    0.002 s ( 0.021 ms/b)
<pd|dd>:          200 b            0 skpd (  0.0%)    0.003 s ( 0.016 ms/b)
<pd|df>:          160 b            0 skpd (  0.0%)    0.002 s ( 0.011 ms/b)
<pd|dg>:           80 b            0 skpd (  0.0%)    0.003 s ( 0.036 ms/b)
<pd|ff>:           60 b            0 skpd (  0.0%)    0.001 s ( 0.021 ms/b)
<pd|fg>:           40 b            0 skpd (  0.0%)    0.002 s ( 0.047 ms/b)
<pd|gg>:           20 b            0 skpd (  0.0%)    0.003 s ( 0.129 ms/b)
<pf|pf>:           55 b            0 skpd (  0.0%)    0.000 s ( 0.009 ms/b)
<pf|pg>:           50 b            0 skpd (  0.0%)    0.001 s ( 0.026 ms/b)
<pf|dd>:          100 b            0 skpd (  0.0%)    0.002 s ( 0.018 ms/b)
<pf|df>:           80 b            0 skpd (  0.0%)    0.001 s ( 0.015 ms/b)
<pf|dg>:           40 b            0 skpd (  0.0%)    0.002 s ( 0.043 ms/b)
<pf|ff>:           30 b            0 skpd (  0.0%)    0.001 s ( 0.036 ms/b)
<pf|fg>:           20 b            0 skpd (  0.0%)    0.001 s ( 0.069 ms/b)
<pf|gg>:           10 b            0 skpd (  0.0%)    0.002 s ( 0.174 ms/b)
<pg|pg>:           15 b            0 skpd (  0.0%)    0.001 s ( 0.043 ms/b)
<pg|dd>:           50 b            0 skpd (  0.0%)    0.002 s ( 0.037 ms/b)
<pg|df>:           40 b            0 skpd (  0.0%)    0.001 s ( 0.025 ms/b)
<pg|dg>:           20 b            0 skpd (  0.0%)    0.002 s ( 0.084 ms/b)
<pg|ff>:           15 b            0 skpd (  0.0%)    0.001 s ( 0.044 ms/b)
<pg|fg>:           10 b            0 skpd (  0.0%)    0.001 s ( 0.115 ms/b)
<pg|gg>:            5 b            0 skpd (  0.0%)    0.001 s ( 0.289 ms/b)
<dd|dd>:           55 b            0 skpd (  0.0%)    0.003 s ( 0.046 ms/b)
<dd|df>:           80 b            0 skpd (  0.0%)    0.002 s ( 0.020 ms/b)
<dd|dg>:           40 b            0 skpd (  0.0%)    0.002 s ( 0.061 ms/b)
<dd|ff>:           30 b            0 skpd (  0.0%)    0.001 s ( 0.038 ms/b)
<dd|fg>:           20 b            0 skpd (  0.0%)    0.002 s ( 0.082 ms/b)
<dd|gg>:           10 b            0 skpd (  0.0%)    0.002 s ( 0.225 ms/b)
<df|df>:           36 b            0 skpd (  0.0%)    0.002 s ( 0.042 ms/b)
<df|dg>:           32 b            0 skpd (  0.0%)    0.002 s ( 0.069 ms/b)
<df|ff>:           24 b            0 skpd (  0.0%)    0.002 s ( 0.063 ms/b)
<df|fg>:           16 b            0 skpd (  0.0%)    0.002 s ( 0.119 ms/b)
<df|gg>:            8 b            0 skpd (  0.0%)    0.002 s ( 0.304 ms/b)
<dg|dg>:           10 b            0 skpd (  0.0%)    0.002 s ( 0.153 ms/b)
<dg|ff>:           12 b            0 skpd (  0.0%)    0.001 s ( 0.073 ms/b)
<dg|fg>:            8 b            0 skpd (  0.0%)    0.001 s ( 0.183 ms/b)
<dg|gg>:            4 b            0 skpd (  0.0%)    0.002 s ( 0.474 ms/b)
<ff|ff>:            6 b            0 skpd (  0.0%)    0.001 s ( 0.110 ms/b)
<ff|fg>:            6 b            0 skpd (  0.0%)    0.001 s ( 0.171 ms/b)
<ff|gg>:            3 b            0 skpd (  0.0%)    0.002 s ( 0.605 ms/b)
<fg|fg>:            3 b            0 skpd (  0.0%)    0.001 s ( 0.323 ms/b)
<fg|gg>:            2 b            0 skpd (  0.0%)    0.001 s ( 0.704 ms/b)
<gg|gg>:            1 b            0 skpd (  0.0%)    0.001 s ( 1.181 ms/b)
Recanonicalizing the internal orbitals
Recanonicalizing the virtual orbitals
Time needed for Fock operator              ...            0.194 sec
Reference energy                           ...  -1262.347841084
Warning: for UHF the TrafoType has to be JK
Warning: for UHF the K(C)-option cannot be MO but must be AOX

-------------------------------
PARTIAL EXCHANGE TRANSFORMATION
-------------------------------

Transformation type                        ... two-operators
Generation of integrals (i,mue|j,nue)      ... ON
Generation of integrals (mue,kappa|nue,tau)... ON
Generation of integrals (i,mue|a,nue)      ... ON
Dimension of the basis                     ...   64
Number of internal alpha-MOs               ...   10 (   5-  14)
Number of internal beta-MOs                ...    6 (   5-  10)
Number of external alpha-MOs               ...   49 (  15-  63)
Number of external beta-MOs                ...   53 (  11-  63)
Pair cutoff                                ... 0.000e+00 Eh
Number of AO pairs in the trafo            ... 2080
Total Number of distinct AO pairs          ... 2080
Memory devoted for trafo                   ... 2500.0 MB 
Max. Number of MO pairs treated together   ... 80000      
Number Format for Storage                  ... Double (8 Byte)
Integral package used                      ... LIBINT

Starting integral evaluation:
    ... done with AO integral generation
Closing buffer AOK[aa] ( 0.00 GB; CompressionRatio= 0.00)
Closing buffer AOK[bb] ( 0.00 GB; CompressionRatio= 0.00)
Closing buffer AOK[ab] ( 0.00 GB; CompressionRatio= 0.00)
Closing buffer AOK[ba] ( 0.00 GB; CompressionRatio= 0.00)
Collecting buffer AOK 
Closing buffer IAAO1[aa] ( 0.00 GB; CompressionRatio= 0.00)
Closing buffer IAAO1[bb] ( 0.00 GB; CompressionRatio= 0.00)
Closing buffer IAAO1[ab] ( 0.00 GB; CompressionRatio= 0.00)
Closing buffer IAAO1[ba] ( 0.00 GB; CompressionRatio= 0.00)
Closing buffer IAAO2[aa] ( 0.00 GB; CompressionRatio= 0.00)
Closing buffer IAAO2[bb] ( 0.00 GB; CompressionRatio= 0.00)
Closing buffer IAAO2[ab] ( 0.00 GB; CompressionRatio= 0.00)
Closing buffer IAAO2[ba] ( 0.00 GB; CompressionRatio= 0.00)
Collecting buffer IAAO 
Closing buffer PRQS    ( 0.00 GB; CompressionRatio= 0.00)
Collecting buffer PRQS 
Number of alpha/alpha MO pairs in trafo    ...   55
Number of beta /beta  MO pairs in trafo    ...   21
Number of alpha/ beta MO pairs in trafo    ...   60
------------------------
SORTING OF (i,mue|j,nue)
------------------------

SORTING OF ALPHA/ALPHA PAIRS
IBATCH = 1 of  1
Closing buffer KAO[aa] ( 0.00 GB; CompressionRatio= 1.00)
Collecting buffer KAO 
SORTING OF BETA /BETA  PAIRS
IBATCH = 1 of  1
Closing buffer KAO[bb] ( 0.00 GB; CompressionRatio= 1.00)
Collecting buffer KAO 
SORTING OF ALPHA/BETA  PAIRS
IBATCH = 1 of  1
Closing buffer KAO[ab] ( 0.00 GB; CompressionRatio= 0.999633923124)
Collecting buffer KAO[ab] 
------------------------
SORTING OF (i,mue|a,nue)
------------------------

Number of alpha/alpha (i,a) pairs in trafo  ...  490
Number of beta /beta  (i,a) pairs in trafo  ...  318
Number of alpha/ beta (i,a) pairs in trafo  ...  530
Number of beta /alpha (i,a) pairs in trafo  ...  294
Setting up the alpha/alpha list             ... done
Setting up the beta /beta  list             ... done
Setting up the alpha/beta  list             ... done
Setting up the beta /alpha list             ... done
    ... Now sorting (i,mue|a,nue)integrals
    ... Integrals (i,b|a,c) will be made on the fly
SORTING OF ALPHA/ALPHA PAIRS
IBATCH = 1 of  1
Closing buffer IPAQ[aa]  0.00 GB; CompressionRatio= 1.00)
SORTING OF BETA /BETA  PAIRS
IBATCH = 1 of  1
Closing buffer IPAQ[bb]( 0.00 GB; CompressionRatio= 1.00)
SORTING OF ALPHA/BETA  PAIRS (NMatSort_ab=23)
IBATCH = 1 of  1
Closing buffer IPAQ[ab]( 0.00 GB; CompressionRatio= 1.00)
SORTING OF BETA/ALPHA  PAIRS
IBATCH = 1 of  1
Closing buffer IPAQ[ba]( 0.00 GB; CompressionRatio= 1.00)
N(AO-Batches) Done                         ...         0 
N(AO-Batches) Skipped                      ...         0 
N(IJ)-pairs Skipped                        ...         0 
TOTAL TIME for half transformation         ...     0.388 sec
AO-integral generation                     ...     0.000 sec
Half transformation                        ...     0.000 sec
K-integral sorting                         ...     0.185 sec
<ss|**>: 
------------------------------
PARTIAL COULOMB TRANSFORMATION
------------------------------

Transformation type                        ... two-operators
Dimension of the basis                     ...   64
Number of internal alpha-MOs               ...   10 (5-14)
Number of internal beta-MOs                ...    6 (5-10)
Pair cutoff                                ... 0.000e+00 Eh
Number of AO pairs included in the trafo   ... 2080
Total Number of distinct AO pairs          ... 2080
Memory devoted for trafo                   ... 2500.0 MB 
Max. Number of MO pairs treated together   ... 157538      
Max. Number of MOs treated per batch       ... 2461      
Number Format for Storage                  ... Double (8 Byte)
AO-integral source                         ... DIRECT
Integral package used                      ... LIBINT

Starting integral evaluation:
        3591 b        0 skpd     0.002 s (  0.000 ms/b)
<sp|**>: <sd|**>:         5130 b        0 skpd     0.011 s (  0.002 ms/b)
        4104 b        0 skpd     0.010 s (  0.002 ms/b)
<sf|**>:         2052 b        0 skpd     0.005 s (  0.003 ms/b)
<sg|**>:         1026 b        0 skpd     0.016 s (  0.015 ms/b)
<pp|**>:         2565 b        0 skpd     0.012 s (  0.005 ms/b)
<pd|**>:         3420 b        0 skpd     0.017 s (  0.005 ms/b)
<pf|**>:         1710 b        0 skpd     0.011 s (  0.007 ms/b)
<pg|**>:          855 b        0 skpd     0.016 s (  0.019 ms/b)
<dd|**>:         1710 b        0 skpd     0.022 s (  0.013 ms/b)
<df|**>:         1368 b        0 skpd     0.012 s (  0.009 ms/b)
<dg|**>:          684 b        0 skpd     0.019 s (  0.028 ms/b)
<ff|**>:          513 b        0 skpd     0.009 s (  0.017 ms/b)
<fg|**>:          342 b        0 skpd     0.013 s (  0.037 ms/b)
<gg|**>:          171 b        0 skpd     0.018 s (  0.107 ms/b)
Closing buffer AOJ[aa] ( 0.00 GB; CompressionRatio= 0.97)
Closing buffer AOJ[bb] ( 0.00 GB; CompressionRatio= 0.00)
Collecting buffer AOJ 
    ... done with AO integral generation
Number of Alpha-MO pairs included          ...   55
Number of Beta-MO pairs included           ...   21
    ... Now sorting integrals
SORTING ALPHA/ALPHA PAIRS
IBATCH = 1 of  1
Closing buffer JAO[aa] ( 0.00 GB; CompressionRatio= 1.00)
SORTING BETA/BETA PAIRS
IBATCH = 1 of  1
Closing buffer JAO[bb] ( 0.00 GB; CompressionRatio= 1.00)
Collecting buffer JAO 
TOTAL TIME for half transformation         ...     0.206 sec
AO-integral generation                     ...     0.194 sec
Half transformation                        ...     0.003 sec
J-integral sorting                         ...     0.006 sec

-------------------------- SECOND HALF TRANSFORMATION -------------------------
Formation of (ij|kl),(ij|ka), (ij|ab)      ... ok (     0.019 sec)
Formation of (ik|jl),(ik|ja), (ia|jb)      ... ok (     0.029 sec)


-----------------------
SPIN UNRESTRICTED GUESS
-----------------------

Entering MDCI_UHF_Guess, Tailored=0
Spin-components of the MP2 energy:
EMP2(aa)=     -0.144591784
EMP2(bb)=     -0.053961862
EMP2(ab)=     -0.376707510

Initial guess performed in     0.009 sec
E(0)                                       ...  -1262.347841084
E(MP2)                                     ...     -0.575261156
Initial E(tot)                             ...  -1262.923102240
<T|T>                                      ...      0.094886636
Number of pairs included                   ... 120

------------------------------------------------
                  UHF COUPLED CLUSTER ITERATIONS
------------------------------------------------

Number of amplitudes to be optimized       ...       231284

Iter       E(tot)           E(Corr)          Delta-E          Residual     Time      <S|S>**1/2
  0  -1262.923102240     -0.575261156      0.000000000      0.024550406    0.21      0.000000014
                           *** Turning on DIIS ***
  1  -1262.872840772     -0.524999688      0.050261468      0.010339950    0.24      0.059079324
  2  -1262.890638632     -0.542797548     -0.017797860      0.008199402    0.23      0.053924389
  3  -1262.891623807     -0.543782723     -0.000985175      0.006488947    0.25      0.067063355
  4  -1262.892857867     -0.545016783     -0.001234060      0.004885356    0.25      0.073769224
  5  -1262.893763101     -0.545922017     -0.000905233      0.002762744    0.24      0.081167211
  6  -1262.893909322     -0.546068238     -0.000146221      0.001658981    0.24      0.082521623
  7  -1262.893969559     -0.546128475     -0.000060237      0.000802213    0.25      0.082269721
  8  -1262.893993296     -0.546152212     -0.000023737      0.000233873    0.24      0.081473973
  9  -1262.893987363     -0.546146279      0.000005933      0.000071985    0.24      0.081189925
 10  -1262.893996547     -0.546155463     -0.000009184      0.000033458    0.24      0.081123705
 11  -1262.893990799     -0.546149715      0.000005748      0.000013182    0.27      0.081114265
 12  -1262.893992763     -0.546151679     -0.000001964      0.000005806    0.26      0.081130140
 13  -1262.893993349     -0.546152264     -0.000000585      0.000001819    0.24      0.081141742
 14  -1262.893993722     -0.546152637     -0.000000373      0.000001038    0.24      0.081146628
 15  -1262.893993743     -0.546152659     -0.000000021      0.000000386    0.24      0.081147637
               --- The Coupled-Cluster iterations have converged ---

----------------------
COUPLED CLUSTER ENERGY
----------------------

E(0)                                       ...  -1262.347841084
E(CORR)                                    ...     -0.546152659
E(TOT)                                     ...  -1262.893993743
Singles norm <S|S>**1/2                    ...      0.081147637 ( 0.059626594, 0.021521043)  
T1 diagnostic                              ...      0.020286909                              

------------------
LARGEST AMPLITUDES
------------------
  14a-> 18a  -1a-> -1a       0.063802
  10b-> 21b   9b-> 22b       0.052312
  10b-> 22b   9b-> 21b       0.052312
   9b-> 19b  -1b-> -1b       0.038343
  10b-> 20b  -1b-> -1b       0.038343
  14a-> 16a  10b-> 14b       0.033253
  14a-> 15a   9b-> 14b       0.033253
  10b-> 16b   9b-> 22b       0.032776
  10b-> 22b   9b-> 16b       0.032776
  10b-> 15b   9b-> 21b       0.032776
  10b-> 21b   9b-> 15b       0.032776
  14a-> 17a  10b-> 12b       0.030824
  14a-> 17a   9b-> 13b       0.030824
  12a-> 22a  -1a-> -1a       0.030195
  13a-> 23a  -1a-> -1a       0.030195
  11a-> 21a  -1a-> -1a       0.029683

----------------------
UHF TRIPLES CORRECTION (Algorithm 1)
----------------------

Multiplier for the singles contribution    ...      1.000000000

SPIN-CASE Alpha-Alpha-Alpha:
10% done
20% done
30% done
40% done
50% done
60% done
70% done
80% done
90% done


SPIN-CASE Beta-Beta-Beta:
10% done
20% done
30% done
40% done
50% done
60% done
70% done
80% done
90% done


SPIN-CASE Alpha-Alpha-Beta:
10% done
20% done
30% done
40% done
50% done
60% done
70% done
80% done
90% done


SPIN-CASE Beta-Beta-Alpha:
10% done
20% done
30% done
40% done
50% done
60% done
70% done
80% done
90% done


Triples Correction (T)                     ...     -0.017378608
    alpha-alpha-alpha ... -0.001624969 (  9.4%)
    alpha-alpha-beta  ... -0.009672893 ( 55.7%)
    alpha-beta -beta  ... -0.005697172 ( 32.8%)
    beta -beta -beta  ... -0.000383574 (  2.2%)
Scaling of triples based on CCSD energies (Peterson et al. Molecular Physics 113, 1551 (2015))
E(T*) = f*E(T) where f = E(F12-CCSD)/E(CCSD) 
f = CCSD (with F12)/ CCSD (without F12)    ...      1.000000000
Scaled triples correction (T)              ...     -0.017378608

Final correlation energy                   ...     -0.563531267
E(CCSD)                                    ...  -1262.893993743
E(CCSD(T))                                 ...  -1262.911372351



        !!!!!!!!!!!!!!!!!!!!!!!!!!!!!!!!!!!!!!!!!!!!!!!!!!!!!!!!!!!!!!!!!!!!!!!!!! 
        !  Warning: Densities are linearized densities                           !
        !!!!!!!!!!!!!!!!!!!!!!!!!!!!!!!!!!!!!!!!!!!!!!!!!!!!!!!!!!!!!!!!!!!!!!!!!! 

NORM  =      1.106356859 sqrt=     1.051834996
W(HF) =      0.903867493
------------------------------------------------------------------------------
                           ORCA POPULATION ANALYSIS
------------------------------------------------------------------------------
Input electron density              ... 66_Fe.mdcip
Input spin density                  ... 66_Fe.mdcir
BaseName (.gbw .S,...)              ... 66_Fe

                    ********************************
                    * MULLIKEN POPULATION ANALYSIS *
                    ********************************

------------------------------------------
MULLIKEN ATOMIC CHARGES AND SPIN DENSITIES
------------------------------------------
   0 Fe:   -0.000000    4.000000
Sum of atomic charges       :   -0.0000000
Sum of atomic spin densities:    4.0000000

---------------------------------------------------
MULLIKEN REDUCED ORBITAL CHARGES AND SPIN DENSITIES
---------------------------------------------------
CHARGE
  0 Fes       :     6.986950  s :     6.986950
      pz      :     4.004233  p :    12.001136
      px      :     3.998452
      py      :     3.998452
      dz2     :     1.001264  d :     6.977279
      dxz     :     1.979955
      dyz     :     1.979959
      dx2y2   :     1.008051
      dxy     :     1.008051
      f0      :     0.004567  f :     0.031287
      f+1     :     0.004730
      f-1     :     0.004730
      f+2     :     0.005115
      f-2     :     0.005115
      f+3     :     0.003515
      f-3     :     0.003515
      g0      :     0.000367  g :     0.003348
      g+1     :     0.000385
      g-1     :     0.000385
      g+2     :     0.000412
      g-2     :     0.000412
      g+3     :     0.000392
      g-3     :     0.000392
      g+4     :     0.000301
      g-4     :     0.000301

SPIN
  0 Fes       :     0.988122  s :     0.988122
      pz      :     0.003998  p :     0.018555
      px      :     0.007278
      py      :     0.007278
      dz2     :     0.990780  d :     2.981211
      dxz     :     0.012081
      dyz     :     0.012077
      dx2y2   :     0.983136
      dxy     :     0.983136
      f0      :     0.001512  f :     0.010965
      f+1     :     0.001330
      f-1     :     0.001330
      f+2     :     0.000727
      f-2     :     0.000727
      f+3     :     0.002669
      f-3     :     0.002669
      g0      :     0.000112  g :     0.001147
      g+1     :     0.000113
      g-1     :     0.000113
      g+2     :     0.000111
      g-2     :     0.000111
      g+3     :     0.000107
      g-3     :     0.000107
      g+4     :     0.000186
      g-4     :     0.000186


                     *******************************
                     * LOEWDIN POPULATION ANALYSIS *
                     *******************************

-----------------------------------------
LOEWDIN ATOMIC CHARGES AND SPIN DENSITIES
-----------------------------------------
   0 Fe:   -0.000000    4.000000

--------------------------------------------------
LOEWDIN REDUCED ORBITAL CHARGES AND SPIN DENSITIES
--------------------------------------------------
CHARGE
  0 Fes       :     6.986950  s :     6.986950
      pz      :     4.004233  p :    12.001136
      px      :     3.998452
      py      :     3.998452
      dz2     :     1.001264  d :     6.977279
      dxz     :     1.979955
      dyz     :     1.979959
      dx2y2   :     1.008051
      dxy     :     1.008051
      f0      :     0.004567  f :     0.031287
      f+1     :     0.004730
      f-1     :     0.004730
      f+2     :     0.005115
      f-2     :     0.005115
      f+3     :     0.003515
      f-3     :     0.003515
      g0      :     0.000367  g :     0.003348
      g+1     :     0.000385
      g-1     :     0.000385
      g+2     :     0.000412
      g-2     :     0.000412
      g+3     :     0.000392
      g-3     :     0.000392
      g+4     :     0.000301
      g-4     :     0.000301

SPIN
  0 Fes       :     0.988122  s :     0.988122
      pz      :     0.003998  p :     0.018555
      px      :     0.007278
      py      :     0.007278
      dz2     :     0.990780  d :     2.981211
      dxz     :     0.012081
      dyz     :     0.012077
      dx2y2   :     0.983136
      dxy     :     0.983136
      f0      :     0.001512  f :     0.010965
      f+1     :     0.001330
      f-1     :     0.001330
      f+2     :     0.000727
      f-2     :     0.000727
      f+3     :     0.002669
      f-3     :     0.002669
      g0      :     0.000112  g :     0.001147
      g+1     :     0.000113
      g-1     :     0.000113
      g+2     :     0.000111
      g-2     :     0.000111
      g+3     :     0.000107
      g-3     :     0.000107
      g+4     :     0.000186
      g-4     :     0.000186


                      *****************************
                      * MAYER POPULATION ANALYSIS *
                      *****************************

  NA   - Mulliken gross atomic population
  ZA   - Total nuclear charge
  QA   - Mulliken gross atomic charge
  VA   - Mayer's total valence
  BVA  - Mayer's bonded valence
  FA   - Mayer's free valence

  ATOM       NA         ZA         QA         VA         BVA        FA
  0 Fe    26.0000    26.0000    -0.0000     4.5959     0.0000     4.5959





------------------------------------------------------------------------------- 
                                     TIMINGS                                   
------------------------------------------------------------------------------- 


Total execution time                   ...        5.295 sec

Fock Matrix Formation                  ...        0.194 sec (  3.7%)
Initial Guess                          ...        0.009 sec (  0.2%)
DIIS Solver                            ...        0.319 sec (  6.0%)
State Vector Update                    ...        0.016 sec (  0.3%)
Sigma-vector construction              ...        3.579 sec ( 67.6%)
  <D|H|D>(0-ext Fock)                  ...        0.005 sec (  0.1% of sigma)
  <D|H|D>(0-ext)                       ...        0.014 sec (  0.4% of sigma)
  <D|H|D>(2-ext Fock)                  ...        0.003 sec (  0.1% of sigma)
  <D|H|D>(2-ext)                       ...        0.057 sec (  1.6% of sigma)
  <D|H|D>(4-ext)                       ...        1.142 sec ( 31.9% of sigma)
  <S|H|0>                              ...        0.067 sec (  1.9% of sigma)
  <S|H|S>                              ...        0.001 sec (  0.0% of sigma)
  <S|H|D>(1-ext)                       ...        0.002 sec (  0.0% of sigma)
  <D|H|S>(1-ext)                       ...        0.027 sec (  0.7% of sigma)
  Fock-dressing                        ...        1.383 sec ( 38.7% of sigma)
  (ik|jl)-dressing                     ...        0.022 sec (  0.6% of sigma)
  (ij|ab),(ia|jb)-dressing             ...        0.668 sec ( 18.7% of sigma)
  Pair energies                        ...        0.002 sec (  0.0% of sigma)
Total Time for computing (T)           ...        0.179 sec (  3.4% of ALL)
  I/O of integral and amplitudes       ...        0.047 sec ( 26.3% of (T))
  External N**7 contributions          ...        0.049 sec ( 27.6% of (T))
  Internal N**7 contributions          ...        0.022 sec ( 12.5% of (T))
  N**6 triples energy contributions    ...        0.054 sec ( 30.5% of (T))

----- Orbital basis set information -----
Your calculation utilizes the basis: def2-QZVPP
   F. Weigend and R. Ahlrichs, Phys. Chem. Chem. Phys. 7, 3297 (2005).

----- AuxJ basis set information -----
Your calculation utilizes the auxiliary basis: def2/J
   F. Weigend, Phys. Chem. Chem. Phys. 8, 1057 (2006).

----- AuxC basis set information -----
Your calculation utilizes the auxiliary basis: def2-QZVPP/C
  H-La, Hf-Rn : A. Hellweg, C. Hattig, S. Hofener and W. Klopper, Theor. Chem. Acc. 117, 587 (2007).
        Ce-Lu : J. Chmela and M. E. Harding, Mol. Phys. (2018).

----- AuxJK basis set information -----
Your calculation utilizes the auxiliary basis: def2/JK
   H-Ba, Hf-Rn: F. Weigend, J. Comput. Chem. 29, 167 (2008).

All done

                     -----------------------------------------
                     Extrapolated Energy 2 Basis=  def2-QZVPP
                     -----------------------------------------

---------------------------------
CARTESIAN COORDINATES (ANGSTROEM)
---------------------------------
  Fe     0.000000    0.000000    0.000000

----------------------------
CARTESIAN COORDINATES (A.U.)
----------------------------
  NO LB      ZA    FRAG     MASS         X           Y           Z
   0 Fe   26.0000    0    55.850    0.000000    0.000000    0.000000

--------------------------------
INTERNAL COORDINATES (ANGSTROEM)
--------------------------------
 Fe     0   0   0     0.000000000000     0.00000000     0.00000000

---------------------------
INTERNAL COORDINATES (A.U.)
---------------------------
 Fe     0   0   0     0.000000000000     0.00000000     0.00000000

---------------------
BASIS SET INFORMATION
---------------------
There are 1 groups of distinct atoms

 Group   1 Type Fe  : 24s18p10d4f2g contracted to 11s6p5d4f2g pattern {114111111111/951111/61111/1111/11}

Atom   0Fe   basis set group =>   1
---------------------------------
AUXILIARY/J BASIS SET INFORMATION
---------------------------------
There are 1 groups of distinct atoms

 Group   1 Type Fe  : 19s5p5d3f3g contracted to 8s5p5d2f3g pattern {121111111/11111/11111/21/111}

Atom   0Fe   basis set group =>   1
---------------------------------
AUXILIARY/C BASIS SET INFORMATION
---------------------------------
There are 1 groups of distinct atoms

 Group   1 Type Fe  : 15s13p11d8f7g5h2i contracted to 15s13p11d8f7g5h2i pattern {111111111111111/1111111111111/11111111111/11111111/1111111/11111/11}

Atom   0Fe   basis set group =>   1
----------------------------------
AUXILIARY/JK BASIS SET INFORMATION
----------------------------------
There are 1 groups of distinct atoms

 Group   1 Type Fe  : 19s14p12d10f7g3h1i contracted to 16s13p11d9f5g3h1i pattern {4111111111111111/2111111111111/21111111111/211111111/31111/111/1}

Atom   0Fe   basis set group =>   1

Checking for AutoStart:
The File: 66_Fe.gbw exists
Trying to determine its content:
     ... Fine, the file contains calculation information
     ... Fine, the calculation information was read
     ... Fine, the file contains a basis set
     ... Fine, the basis set was read
     ... Fine, the file contains a geometry
     ... Fine, the geometry was read
     ... Fine, the file contains a set of orbitals
     ... Fine, the orbitals can be read
     => possible old guess file was deleted
     => GBW file was renamed to GES file
     => GES file is set as startup file
     => Guess is set to MORead
     ... now leaving AutoStart



           ************************************************************
           *        Program running with 24 parallel MPI-processes    *
           *              working on a common directory               *
           ************************************************************
------------------------------------------------------------------------------
                           ORCA GTO INTEGRAL CALCULATION
------------------------------------------------------------------------------

                         BASIS SET STATISTICS AND STARTUP INFO

 # of primitive gaussian shells          ...   58
 # of primitive gaussian functions       ...  174
 # of contracted shells                  ...   28
 # of contracted basis functions         ...  100
 Highest angular momentum                ...    4
 Maximum contraction depth               ...   11
 Integral package used                   ... LIBINT
 Integral threshhold            Thresh   ...  1.000e-12
 Primitive cut-off              TCut     ...  1.000e-14


------------------------------ INTEGRAL EVALUATION ----------------------------


 * One electron integrals 
 Pre-screening matrix                    ... done
 Shell pair data                         ... done (   0.000 sec)



           ************************************************************
           *        Program running with 24 parallel MPI-processes    *
           *              working on a common directory               *
           ************************************************************
-------------------------------------------------------------------------------
                                 ORCA SCF
-------------------------------------------------------------------------------

------------
SCF SETTINGS
------------
Hamiltonian:
 Ab initio Hamiltonian  Method          .... Hartree-Fock(GTOs)


General Settings:
 Integral files         IntName         .... 66_Fe
 Hartree-Fock type      HFTyp           .... UHF
 Total Charge           Charge          ....    0
 Multiplicity           Mult            ....    5
 Number of Electrons    NEL             ....   26
 Basis Dimension        Dim             ....  100
 Nuclear Repulsion      ENuc            ....      0.0000000000 Eh

Convergence Acceleration:
 DIIS                   CNVDIIS         .... on
   Start iteration      DIISMaxIt       ....    12
   Startup error        DIISStart       ....  0.200000
   # of expansion vecs  DIISMaxEq       ....     5
   Bias factor          DIISBfac        ....   1.050
   Max. coefficient     DIISMaxC        ....  10.000
 Newton-Raphson         CNVNR           .... off
 SOSCF                  CNVSOSCF        .... off
 Level Shifting         CNVShift        .... on
   Level shift para.    LevelShift      ....    0.2500
   Turn off err/grad.   ShiftErr        ....    0.0010
 Zerner damping         CNVZerner       .... off
 Static damping         CNVDamp         .... on
   Fraction old density DampFac         ....    0.7000
   Max. Damping (<1)    DampMax         ....    0.9800
   Min. Damping (>=0)   DampMin         ....    0.0000
   Turn off err/grad.   DampErr         ....    0.1000
 Fernandez-Rico         CNVRico         .... off

SCF Procedure:
 Maximum # iterations   MaxIter         ....   125
 SCF integral mode      SCFMode         .... Direct
   Integral package                     .... LIBINT
 Reset frequency        DirectResetFreq ....    20
 Integral Threshold     Thresh          ....  1.000e-12 Eh
 Primitive CutOff       TCut            ....  1.000e-14 Eh

Convergence Tolerance:
 Convergence Check Mode ConvCheckMode   .... Total+1el-Energy
 Convergence forced     ConvForced      .... 1
 Energy Change          TolE            ....  1.000e-09 Eh
 1-El. energy change                    ....  1.000e-06 Eh
 DIIS Error             TolErr          ....  1.000e-08


Diagonalization of the overlap matrix:
Smallest eigenvalue                        ... 1.195e-03
Time for diagonalization                   ...    0.003 sec
Threshold for overlap eigenvalues          ... 1.000e-08
Number of eigenvalues below threshold      ... 0
Time for construction of square roots      ...    0.001 sec
Total time needed                          ...    0.004 sec

---------------------
INITIAL GUESS: MOREAD
---------------------
Guess MOs are being read from file: 66_Fe.ges
Input Geometry matches current geometry (good)
Atom 0: N(Shells)= 28 and 18 - projection required
Input basis set needs projection
NBasis(read)= 64
NBasis(calc)= 100
Basis set overlap was calculated
Using GuessMode=FMatrix for the initial guess
C*T matrix was formed
Effective Fockian was calculated
Effective Fockian was diagonalized
Initial density was built
C*T matrix was formed
Effective Fockian was calculated
Effective Fockian was diagonalized
Initial density was built
                      ------------------
                      INITIAL GUESS DONE (   0.0 sec)
                      ------------------
--------------
SCF ITERATIONS
--------------
ITER       Energy         Delta-E        Max-DP      RMS-DP      [F,P]     Damp
               ***  Starting incremental Fock matrix formation  ***
  0  -1262.3709306195   0.000000000000 0.01016019  0.00021265  0.0673547 0.7000
  1  -1262.3715913964  -0.000660776827 0.00732890  0.00015229  0.0471150 0.7000
                               ***Turning on DIIS***
  2  -1262.3720594934  -0.000468097053 0.01809829  0.00036363  0.0329574 0.0000
  3  -1262.3730942428  -0.001034749365 0.00375964  0.00003666  0.0005294 0.0000
  4  -1262.3709756130   0.002118629807 0.00097559  0.00000899  0.0003345 0.0000
  5  -1262.3753453761  -0.004369763099 0.00062916  0.00000594  0.0001902 0.0000
  6  -1262.3730754761   0.002269899978 0.00034435  0.00000320  0.0000243 0.0000
  7  -1262.3732618050  -0.000186328959 0.00016628  0.00000158  0.0000094 0.0000
  8  -1262.3732065965   0.000055208514 0.00002587  0.00000027  0.0000026 0.0000
  9  -1262.3731783464   0.000028250120 0.00000425  0.00000004  0.0000007 0.0000
 10  -1262.3731738235   0.000004522863 0.00000256  0.00000003  0.0000002 0.0000
 11  -1262.3731734894   0.000000334108 0.00000095  0.00000001  0.0000001 0.0000
 12  -1262.3731734745   0.000000014915 0.00000006  0.00000000  0.0000000 0.0000
 13  -1262.3731734458   0.000000028700 0.00000002  0.00000000  0.0000000 0.0000
 14  -1262.3731734637  -0.000000017892 0.00000001  0.00000000  0.0000000 0.0000
 15  -1262.3731734571   0.000000006592 0.00000000  0.00000000  0.0000000 0.0000
 16  -1262.3731734703  -0.000000013199 0.00000001  0.00000000  0.0000000 0.0000
 17  -1262.3731734976  -0.000000027316 0.00000001  0.00000000  0.0000000 0.0000
 18  -1262.3731735070  -0.000000009397 0.00000001  0.00000000  0.0000000 0.0000
 19  -1262.3731734971   0.000000009915 0.00000000  0.00000000  0.0000000 0.0000
               *** Restarting incremental Fock matrix formation ***
                                   *** Resetting DIIS ***
 20  -1262.3731734761   0.000000021050 0.00000001  0.00000000  0.0000000 0.0000
 21  -1262.3731734239   0.000000052203 0.00000001  0.00000000  0.0000000 0.0000
 22  -1262.3731734728  -0.000000048957 0.00000000  0.00000000  0.0000000 0.0000
 23  -1262.3731735461  -0.000000073297 0.00000000  0.00000000  0.0000000 0.0000
 24  -1262.3731735516  -0.000000005523 0.00000000  0.00000000  0.0000000 0.0000
 25  -1262.3731735611  -0.000000009478 0.00000000  0.00000000  0.0000000 0.0000
 26  -1262.3731735220   0.000000039163 0.00000001  0.00000000  0.0000000 0.0000
 27  -1262.3731734126   0.000000109351 0.00000000  0.00000000  0.0000000 0.0000
 28  -1262.3731733787   0.000000033901 0.00000000  0.00000000  0.0000000 0.0000
 29  -1262.3731734194  -0.000000040718 0.00000000  0.00000000  0.0000000 0.0000
 30  -1262.3731734337  -0.000000014226 0.00000000  0.00000000  0.0000000 0.0000
 31  -1262.3731734802  -0.000000046537 0.00000001  0.00000000  0.0000000 0.0000
 32  -1262.3731735534  -0.000000073249 0.00000001  0.00000000  0.0000000 0.0000
 33  -1262.3731735821  -0.000000028710 0.00000000  0.00000000  0.0000000 0.0000
 34  -1262.3731735188   0.000000063356 0.00000001  0.00000000  0.0000000 0.0000
 35  -1262.3731734364   0.000000082425 0.00000000  0.00000000  0.0000000 0.0000
 36  -1262.3731734140   0.000000022369 0.00000001  0.00000000  0.0000000 0.0000
[...]
<sp|**>: <sd|**>:        26796 b        0 skpd     0.038 s (  0.001 ms/b)
<sf|**>:        22330 b        0 skpd     0.057 s (  0.003 ms/b)
       17864 b        0 skpd     0.021 s (  0.001 ms/b)
<sg|**>:         8932 b        0 skpd     0.035 s (  0.004 ms/b)
<pp|**>:         8526 b        0 skpd     0.068 s (  0.008 ms/b)
<pd|**>:        12180 b        0 skpd     0.104 s (  0.009 ms/b)
<pf|**>:         9744 b        0 skpd     0.031 s (  0.003 ms/b)
<pg|**>:         4872 b        0 skpd     0.057 s (  0.012 ms/b)
<dd|**>:         6090 b        0 skpd     0.126 s (  0.021 ms/b)
<df|**>:         8120 b        0 skpd     0.044 s (  0.005 ms/b)
<dg|**>:         4060 b        0 skpd     0.070 s (  0.017 ms/b)
<ff|**>:         4060 b        0 skpd     0.021 s (  0.005 ms/b)
<fg|**>:         3248 b        0 skpd     0.030 s (  0.009 ms/b)
<gg|**>:         1218 b        0 skpd     0.047 s (  0.038 ms/b)
Closing buffer AOJ[aa] ( 0.00 GB; CompressionRatio= 0.97)
Closing buffer AOJ[bb] ( 0.00 GB; CompressionRatio= 0.00)
Collecting buffer AOJ 
    ... done with AO integral generation
Number of Alpha-MO pairs included          ...   55
Number of Beta-MO pairs included           ...   21
    ... Now sorting integrals
SORTING ALPHA/ALPHA PAIRS
IBATCH = 1 of  1
Closing buffer JAO[aa] ( 0.00 GB; CompressionRatio= 1.00)
SORTING BETA/BETA PAIRS
IBATCH = 1 of  1
Closing buffer JAO[bb] ( 0.00 GB; CompressionRatio= 1.00)
Collecting buffer JAO 
TOTAL TIME for half transformation         ...     0.790 sec
AO-integral generation                     ...     0.762 sec
Half transformation                        ...     0.009 sec
J-integral sorting                         ...     0.015 sec

-------------------------- SECOND HALF TRANSFORMATION -------------------------
Formation of (ij|kl),(ij|ka), (ij|ab)      ... ok (     0.037 sec)
Formation of (ik|jl),(ik|ja), (ia|jb)      ... ok (     0.056 sec)


-----------------------
SPIN UNRESTRICTED GUESS
-----------------------

Entering MDCI_UHF_Guess, Tailored=0
Spin-components of the MP2 energy:
EMP2(aa)=     -0.148912537
EMP2(bb)=     -0.053889779
EMP2(ab)=     -0.390048463

Initial guess performed in     0.022 sec
E(0)                                       ...  -1262.373173476
E(MP2)                                     ...     -0.592850779
Initial E(tot)                             ...  -1262.966024255
<T|T>                                      ...      0.099161639
Number of pairs included                   ... 120

------------------------------------------------
                  UHF COUPLED CLUSTER ITERATIONS
------------------------------------------------

Number of amplitudes to be optimized       ...       676532

Iter       E(tot)           E(Corr)          Delta-E          Residual     Time      <S|S>**1/2
  0  -1262.966024255     -0.592850779      0.000000000      0.026396801    0.97      0.000000030
                           *** Turning on DIIS ***
  1  -1262.917430695     -0.544257219      0.048593560      0.009524503    1.07      0.062509440
  2  -1262.935352846     -0.562179370     -0.017922151      0.007678924    1.10      0.057668316
  3  -1262.936280355     -0.563106879     -0.000927509      0.006209020    1.10      0.072295728
  4  -1262.937607308     -0.564433832     -0.001326953      0.004748691    1.10      0.080369507
  5  -1262.938552994     -0.565379518     -0.000945686      0.002806993    1.11      0.089327419
  6  -1262.938718520     -0.565545044     -0.000165526      0.001847803    1.14      0.091490404
  7  -1262.938788445     -0.565614969     -0.000069924      0.000946814    1.15      0.092065167
  8  -1262.938817628     -0.565644152     -0.000029183      0.000332647    1.11      0.091512550
  9  -1262.938809742     -0.565636266      0.000007886      0.000102563    1.10      0.091046411
 10  -1262.938813822     -0.565640346     -0.000004080      0.000035365    1.12      0.090856371
 11  -1262.938810207     -0.565636731      0.000003615      0.000015113    1.14      0.090776373
 12  -1262.938809961     -0.565636485      0.000000246      0.000009574    1.10      0.090777202
 13  -1262.938811030     -0.565637554     -0.000001069      0.000004647    1.11      0.090784065
 14  -1262.938811591     -0.565638114     -0.000000561      0.000001010    1.12      0.090794118
 15  -1262.938811704     -0.565638228     -0.000000113      0.000000455    1.10      0.090796554
               --- The Coupled-Cluster iterations have converged ---

----------------------
COUPLED CLUSTER ENERGY
----------------------

E(0)                                       ...  -1262.373173476
E(CORR)                                    ...     -0.565638228
E(TOT)                                     ...  -1262.938811704
Singles norm <S|S>**1/2                    ...      0.090796554 ( 0.065704911, 0.025091643)  
T1 diagnostic                              ...      0.022699139                              

------------------
LARGEST AMPLITUDES
------------------
  14a-> 18a  -1a-> -1a       0.063101
  10b-> 24b   9b-> 25b       0.053209
  10b-> 25b   9b-> 24b       0.053209
  14a-> 29a  -1a-> -1a       0.040394
  10b-> 22b  -1b-> -1b       0.031840
   9b-> 23b  -1b-> -1b       0.031840
  10b-> 24b   9b-> 41b       0.025995
  10b-> 41b   9b-> 24b       0.025995
  10b-> 25b   9b-> 40b       0.025995
  10b-> 40b   9b-> 25b       0.025995
  11a-> 24a  -1a-> -1a       0.025186
  13a-> 26a  -1a-> -1a       0.023978
  12a-> 25a  -1a-> -1a       0.023978
  10b-> 23b  -1b-> -1b       0.022678
   9b-> 22b  -1b-> -1b       0.022678
  11a-> 35a  -1a-> -1a       0.021560

----------------------
UHF TRIPLES CORRECTION (Algorithm 1)
----------------------

Multiplier for the singles contribution    ...      1.000000000

SPIN-CASE Alpha-Alpha-Alpha:
10% done
20% done
30% done
40% done
50% done
60% done
70% done
80% done
90% done


SPIN-CASE Beta-Beta-Beta:
10% done
20% done
30% done
40% done
50% done
60% done
70% done
80% done
90% done


SPIN-CASE Alpha-Alpha-Beta:
10% done
20% done
30% done
40% done
50% done
60% done
70% done
80% done
90% done


SPIN-CASE Beta-Beta-Alpha:
10% done
20% done
30% done
40% done
50% done
60% done
70% done
80% done
90% done


Triples Correction (T)                     ...     -0.021107970
    alpha-alpha-alpha ... -0.002156976 ( 10.2%)
    alpha-alpha-beta  ... -0.012072690 ( 57.2%)
    alpha-beta -beta  ... -0.006493610 ( 30.8%)
    beta -beta -beta  ... -0.000384694 (  1.8%)
Scaling of triples based on CCSD energies (Peterson et al. Molecular Physics 113, 1551 (2015))
E(T*) = f*E(T) where f = E(F12-CCSD)/E(CCSD) 
f = CCSD (with F12)/ CCSD (without F12)    ...      1.000000000
Scaled triples correction (T)              ...     -0.021107970

Final correlation energy                   ...     -0.586746197
E(CCSD)                                    ...  -1262.938811704
E(CCSD(T))                                 ...  -1262.959919673



        !!!!!!!!!!!!!!!!!!!!!!!!!!!!!!!!!!!!!!!!!!!!!!!!!!!!!!!!!!!!!!!!!!!!!!!!!! 
        !  Warning: Densities are linearized densities                           !
        !!!!!!!!!!!!!!!!!!!!!!!!!!!!!!!!!!!!!!!!!!!!!!!!!!!!!!!!!!!!!!!!!!!!!!!!!! 

NORM  =      1.113470207 sqrt=     1.055210978
W(HF) =      0.898093181
------------------------------------------------------------------------------
                           ORCA POPULATION ANALYSIS
------------------------------------------------------------------------------
Input electron density              ... 66_Fe.mdcip
Input spin density                  ... 66_Fe.mdcir
BaseName (.gbw .S,...)              ... 66_Fe

                    ********************************
                    * MULLIKEN POPULATION ANALYSIS *
                    ********************************

------------------------------------------
MULLIKEN ATOMIC CHARGES AND SPIN DENSITIES
------------------------------------------
   0 Fe:   -0.000000    4.000000
Sum of atomic charges       :   -0.0000000
Sum of atomic spin densities:    4.0000000

---------------------------------------------------
MULLIKEN REDUCED ORBITAL CHARGES AND SPIN DENSITIES
---------------------------------------------------
CHARGE
  0 Fes       :     6.984650  s :     6.984650
      pz      :     4.004156  p :    12.001619
      px      :     3.998732
      py      :     3.998732
      dz2     :     1.000584  d :     6.971032
      dxz     :     1.978424
      dyz     :     1.978427
      dx2y2   :     1.006798
      dxy     :     1.006798
      f0      :     0.005552  f :     0.038024
      f+1     :     0.005815
      f-1     :     0.005815
      f+2     :     0.006387
      f-2     :     0.006387
      f+3     :     0.004034
      f-3     :     0.004034
      g0      :     0.000516  g :     0.004674
      g+1     :     0.000546
      g-1     :     0.000546
      g+2     :     0.000592
      g-2     :     0.000592
      g+3     :     0.000550
      g-3     :     0.000550
      g+4     :     0.000392
      g-4     :     0.000392

SPIN
  0 Fes       :     0.985903  s :     0.985903
      pz      :     0.005183  p :     0.022021
      px      :     0.008419
      py      :     0.008419
      dz2     :     0.989863  d :     2.979001
      dxz     :     0.011612
      dyz     :     0.011608
      dx2y2   :     0.982959
      dxy     :     0.982959
      f0      :     0.001575  f :     0.011516
      f+1     :     0.001318
      f-1     :     0.001318
      f+2     :     0.000576
      f-2     :     0.000576
      f+3     :     0.003077
      f-3     :     0.003077
      g0      :     0.000155  g :     0.001559
      g+1     :     0.000157
      g-1     :     0.000157
      g+2     :     0.000154
      g-2     :     0.000154
      g+3     :     0.000147
      g-3     :     0.000147
      g+4     :     0.000244
      g-4     :     0.000244


                     *******************************
                     * LOEWDIN POPULATION ANALYSIS *
                     *******************************

-----------------------------------------
LOEWDIN ATOMIC CHARGES AND SPIN DENSITIES
-----------------------------------------
   0 Fe:   -0.000000    4.000000

--------------------------------------------------
LOEWDIN REDUCED ORBITAL CHARGES AND SPIN DENSITIES
--------------------------------------------------
CHARGE
  0 Fes       :     6.984650  s :     6.984650
      pz      :     4.004156  p :    12.001619
      px      :     3.998732
      py      :     3.998732
      dz2     :     1.000584  d :     6.971032
      dxz     :     1.978424
      dyz     :     1.978427
      dx2y2   :     1.006798
      dxy     :     1.006798
      f0      :     0.005552  f :     0.038024
      f+1     :     0.005815
      f-1     :     0.005815
      f+2     :     0.006387
      f-2     :     0.006387
      f+3     :     0.004034
      f-3     :     0.004034
      g0      :     0.000516  g :     0.004674
      g+1     :     0.000546
      g-1     :     0.000546
      g+2     :     0.000592
      g-2     :     0.000592
      g+3     :     0.000550
      g-3     :     0.000550
      g+4     :     0.000392
      g-4     :     0.000392

SPIN
  0 Fes       :     0.985903  s :     0.985903
      pz      :     0.005183  p :     0.022021
      px      :     0.008419
      py      :     0.008419
      dz2     :     0.989863  d :     2.979001
      dxz     :     0.011612
      dyz     :     0.011608
      dx2y2   :     0.982959
      dxy     :     0.982959
      f0      :     0.001575  f :     0.011516
      f+1     :     0.001318
      f-1     :     0.001318
      f+2     :     0.000576
      f-2     :     0.000576
      f+3     :     0.003077
      f-3     :     0.003077
      g0      :     0.000155  g :     0.001559
      g+1     :     0.000157
      g-1     :     0.000157
      g+2     :     0.000154
      g-2     :     0.000154
      g+3     :     0.000147
      g-3     :     0.000147
      g+4     :     0.000244
      g-4     :     0.000244


                      *****************************
                      * MAYER POPULATION ANALYSIS *
                      *****************************

  NA   - Mulliken gross atomic population
  ZA   - Total nuclear charge
  QA   - Mulliken gross atomic charge
  VA   - Mayer's total valence
  BVA  - Mayer's bonded valence
  FA   - Mayer's free valence

  ATOM       NA         ZA         QA         VA         BVA        FA
  0 Fe    26.0000    26.0000    -0.0000     4.6217     0.0000     4.6217





------------------------------------------------------------------------------- 
                                     TIMINGS                                   
------------------------------------------------------------------------------- 


Total execution time                   ...       22.475 sec

Fock Matrix Formation                  ...        0.480 sec (  2.1%)
Initial Guess                          ...        0.022 sec (  0.1%)
DIIS Solver                            ...        0.946 sec (  4.2%)
State Vector Update                    ...        0.045 sec (  0.2%)
Sigma-vector construction              ...       16.658 sec ( 74.1%)
  <0|H|D>                              ...        0.002 sec (  0.0% of sigma)
  <D|H|D>(0-ext Fock)                  ...        0.017 sec (  0.1% of sigma)
  <D|H|D>(0-ext)                       ...        0.056 sec (  0.3% of sigma)
  <D|H|D>(2-ext Fock)                  ...        0.005 sec (  0.0% of sigma)
  <D|H|D>(2-ext)                       ...        0.195 sec (  1.2% of sigma)
  <D|H|D>(4-ext)                       ...        7.338 sec ( 44.1% of sigma)
  <S|H|0>                              ...        0.351 sec (  2.1% of sigma)
  <S|H|S>                              ...        0.002 sec (  0.0% of sigma)
  <S|H|D>(1-ext)                       ...        0.004 sec (  0.0% of sigma)
  <D|H|S>(1-ext)                       ...        0.077 sec (  0.5% of sigma)
  Fock-dressing                        ...        5.755 sec ( 34.5% of sigma)
  (ik|jl)-dressing                     ...        0.070 sec (  0.4% of sigma)
  (ij|ab),(ia|jb)-dressing             ...        2.221 sec ( 13.3% of sigma)
  Pair energies                        ...        0.004 sec (  0.0% of sigma)
Total Time for computing (T)           ...        1.338 sec (  6.0% of ALL)
  I/O of integral and amplitudes       ...        0.379 sec ( 28.3% of (T))
  External N**7 contributions          ...        0.358 sec ( 26.7% of (T))
  Internal N**7 contributions          ...        0.171 sec ( 12.8% of (T))
  N**6 triples energy contributions    ...        0.398 sec ( 29.8% of (T))


-------------------
EXTRAPOLATED ENERGY
-------------------


-----------------------------------------------------------------
                      EP1 - MDCI extrapolation:
-----------------------------------------------------------------
NOTE: We use as reference SCF energy, for the extrapolation, the one from the MDCI module and not the one 
from the SCF calculation. In case the first step is a DFT calculation these two might be different.

NOTE: For the SCF part we extrapolate based on the scheme proposed in J. Chem. Phys. 2008, 129, 184116
using the exponents from J. Chem. Theory Comput., 7, 33-43 (2011)

NOTE: For the correlation part we extrapolate based on the scheme proposed in J. Chem. Phys. 1997, 106, 9639
using the exponents from J. Chem. Theory Comput., 7, 33-43 (2011)


Alpha(3/4)     :  7.880 (SCF Extrapolation)
Beta(3/4)      :  2.970 (correlation extrapolation)

SCF energy with basis def2-TZVPP:                     -1262.347841084
SCF energy with basis def2-QZVPP:                     -1262.373173476
Extrapolated CBS SCF energy (3/4) :                   -1262.376662727 (-0.003489250) 

MDCI energy with basis def2-TZVPP:                       -0.563531267
MDCI energy with basis def2-QZVPP:                       -0.586746197
Extrapolated CBS correlation energy (3/4) :              -0.603942429 (-0.017196232)

Estimated CBS total energy (3/4) :                    -1262.980605156



-------------------------   --------------------
FINAL SINGLE POINT ENERGY     -1262.980605155869
-------------------------   --------------------


                            ***************************************
                            *     ORCA property calculations      *
                            ***************************************

                                    ---------------------
                                    Active property flags
                                    ---------------------
   (+) Dipole Moment


------------------------------------------------------------------------------
                       ORCA ELECTRIC PROPERTIES CALCULATION
------------------------------------------------------------------------------

Dipole Moment Calculation                       ... on
Quadrupole Moment Calculation                   ... off
Polarizability Calculation                      ... off
GBWName                                         ... 66_Fe.gbw
Electron density file                           ... 66_Fe.scfp
The origin for moment calculation is the CENTER OF MASS  = ( 0.000000,  0.000000  0.000000)

-------------
DIPOLE MOMENT
-------------
                                X             Y             Z
Electronic contribution:     -0.00000       0.00000      -0.00000
Nuclear contribution   :      0.00000       0.00000       0.00000
                        -----------------------------------------
Total Dipole Moment    :     -0.00000       0.00000      -0.00000
                        -----------------------------------------
Magnitude (a.u.)       :      0.00000
Magnitude (Debye)      :      0.00000



--------------------
Rotational spectrum 
--------------------
 
Rotational constants in cm-1:     0.000000     0.000000     0.000000 
Rotational constants in MHz :     0.000000     0.000000     0.000000 

 Dipole components along the rotational axes: 
x,y,z [a.u.] :    -0.000000     0.000000    -0.000000 
x,y,z [Debye]:    -0.000000     0.000000    -0.000000 

 

                           *** MDCI DENSITY ***

------------------------------------------------------------------------------
                       ORCA ELECTRIC PROPERTIES CALCULATION
------------------------------------------------------------------------------

Dipole Moment Calculation                       ... on
Quadrupole Moment Calculation                   ... off
Polarizability Calculation                      ... off
GBWName                                         ... 66_Fe.gbw
Electron density file                           ... 66_Fe.mdcip
The origin for moment calculation is the CENTER OF MASS  = ( 0.000000,  0.000000  0.000000)

-------------
DIPOLE MOMENT
-------------
                                X             Y             Z
Electronic contribution:      0.00000       0.00000      -0.00000
Nuclear contribution   :      0.00000       0.00000       0.00000
                        -----------------------------------------
Total Dipole Moment    :      0.00000       0.00000      -0.00000
                        -----------------------------------------
Magnitude (a.u.)       :      0.00000
Magnitude (Debye)      :      0.00000



--------------------
Rotational spectrum 
--------------------
 
Rotational constants in cm-1:     0.000000     0.000000     0.000000 
Rotational constants in MHz :     0.000000     0.000000     0.000000 

 Dipole components along the rotational axes: 
x,y,z [a.u.] :     0.000000     0.000000    -0.000000 
x,y,z [Debye]:     0.000000     0.000000    -0.000000 

 

Timings for individual modules:

Sum of individual times         ...       45.891 sec (=   0.765 min)
GTO integral calculation        ...        1.968 sec (=   0.033 min)   4.3 %
SCF iterations                  ...       14.968 sec (=   0.249 min)  32.6 %
MDCI module                     ...       28.955 sec (=   0.483 min)  63.1 %
                             ****ORCA TERMINATED NORMALLY****
TOTAL RUN TIME: 0 days 0 hours 0 minutes 47 seconds 50 msec
