
                                 *****************
                                 * O   R   C   A *
                                 *****************

           --- An Ab Initio, DFT and Semiempirical electronic structure package ---

                  #######################################################
                  #                        -***-                        #
                  #          Department of theory and spectroscopy      #
                  #               Directorship: Frank Neese             #
                  #        Max Planck Institute fuer Kohlenforschung    #
                  #                Kaiser Wilhelm Platz 1               #
                  #                 D-45470 Muelheim/Ruhr               #
                  #                      Germany                        #
                  #                                                     #
                  #                  All rights reserved                #
                  #                        -***-                        #
                  #######################################################


                         Program Version 4.2.0 -  RELEASE  -


 With contributions from (in alphabetic order):
   Daniel Aravena         : Magnetic Suceptibility
   Michael Atanasov       : Ab Initio Ligand Field Theory (pilot matlab implementation)
   Alexander A. Auer      : GIAO ZORA, VPT2
   Ute Becker             : Parallelization
   Giovanni Bistoni       : ED, misc. LED, open-shell LED, HFLED
   Martin Brehm           : Molecular dynamics
   Dmytro Bykov           : SCF Hessian
   Vijay G. Chilkuri      : MRCI spin determinant printing, contributions to CSF-ICE
   Dipayan Datta          : RHF DLPNO-CCSD density
   Achintya Kumar Dutta   : EOM-CC, STEOM-CC
   Dmitry Ganyushin       : Spin-Orbit,Spin-Spin,Magnetic field MRCI
   Miquel Garcia          : C-PCM Hessian, Gaussian charge scheme
   Yang Guo               : DLPNO-NEVPT2, CIM, IAO-localization
   Andreas Hansen         : Spin unrestricted coupled pair/coupled cluster methods
   Benjamin Helmich-Paris : CASSCF linear response (MC-RPA)
   Lee Huntington         : MR-EOM, pCC
   Robert Izsak           : Overlap fitted RIJCOSX, COSX-SCS-MP3, EOM
   Christian Kollmar      : KDIIS, OOCD, Brueckner-CCSD(T), CCSD density
   Simone Kossmann        : Meta GGA functionals, TD-DFT gradient, OOMP2, MP2 Hessian
   Martin Krupicka        : AUTO-CI
   Lucas Lang             : DCDCAS
   Dagmar Lenk            : GEPOL surface, SMD
   Dimitrios Liakos       : Extrapolation schemes; Compound Job, initial MDCI parallelization
   Dimitrios Manganas     : Further ROCIS development; embedding schemes
   Dimitrios Pantazis     : SARC Basis sets
   Taras Petrenko         : DFT Hessian,TD-DFT gradient, ASA, ECA, R-Raman, ABS, FL, XAS/XES, NRVS
   Peter Pinski           : DLPNO-MP2, DLPNO-MP2 Gradient
   Christoph Reimann      : Effective Core Potentials
   Marius Retegan         : Local ZFS, SOC
   Christoph Riplinger    : Optimizer, TS searches, QM/MM, DLPNO-CCSD(T), (RO)-DLPNO pert. Triples
   Tobias Risthaus        : Range-separated hybrids, TD-DFT gradient, RPA, STAB
   Michael Roemelt        : Original ROCIS implementation
   Masaaki Saitow         : Open-shell DLPNO-CCSD energy and density
   Barbara Sandhoefer     : DKH picture change effects
   Avijit Sen             : IP-ROCIS
   Kantharuban Sivalingam : CASSCF convergence, NEVPT2, FIC-MRCI
   Bernardo de Souza      : ESD, SOC TD-DFT
   Georgi Stoychev        : AutoAux, RI-MP2 NMR
   Willem Van den Heuvel  : Paramagnetic NMR
   Boris Wezisla          : Elementary symmetry handling
   Frank Wennmohs         : Technical directorship


 We gratefully acknowledge several colleagues who have allowed us to
 interface, adapt or use parts of their codes:
   Stefan Grimme, W. Hujo, H. Kruse,             : VdW corrections, initial TS optimization,
                  C. Bannwarth                     DFT functionals, gCP, sTDA/sTD-DF
   Ed Valeev, F. Pavosevic, A. Kumar             : LibInt (2-el integral package), F12 methods
   Garnet Chan, S. Sharma, J. Yang, R. Olivares  : DMRG
   Ulf Ekstrom                                   : XCFun DFT Library
   Mihaly Kallay                                 : mrcc  (arbitrary order and MRCC methods)
   Andreas Klamt, Michael Diedenhofen            : otool_cosmo (COSMO solvation model)
   Jiri Pittner, Ondrej Demel                    : Mk-CCSD
   Frank Weinhold                                : gennbo (NPA and NBO analysis)
   Christopher J. Cramer and Donald G. Truhlar   : smd solvation model
   Lars Goerigk                                  : TD-DFT with DH, B97 family of functionals
   V. Asgeirsson, H. Jonsson                     : NEB implementation
   FAccTs GmbH                                   : IRC, NEB, NEB-TS, Multilevel, MM, QM/MM, CI optimization
   S Lehtola, MJT Oliveira, MAL Marques          : LibXC Library


 Your calculation uses the libint2 library for the computation of 2-el integrals
 For citations please refer to: http://libint.valeyev.net

 Your ORCA version has been built with support for libXC version: 4.2.3
 For citations please refer to: https://tddft.org/programs/libxc/

 This ORCA versions uses:
   CBLAS   interface :  Fast vector & matrix operations
   LAPACKE interface :  Fast linear algebra routines
   SCALAPACK package :  Parallel linear algebra routines


----- Orbital basis set information -----
Your calculation utilizes the basis: def2-TZVPP
   F. Weigend and R. Ahlrichs, Phys. Chem. Chem. Phys. 7, 3297 (2005).

================================================================================
                                        WARNINGS
                       Please study these warnings very carefully!
================================================================================


WARNING: your system is open-shell and RHF/RKS was chosen
  ===> : WILL SWITCH to UHF/UKS


WARNING: MDCI localization with Augmented Hessian Foster-Boys
  ===> : Switching off randomization!

WARNING: Post HF methods need fully converged wavefunctions
  ===> : Setting SCFConvForced true
         You can overwrite this default with %scf ConvForced false 


INFO   : the flag for use of LIBINT has been found!

================================================================================
                                       INPUT FILE
================================================================================
NAME = 67_Co.in
|  1> #
|  2> # 67_Co ccsd(t)/cbs
|  3> #
|  4> ! ccsd(t) extrapolate(3/4,def2) verytightscf
|  5> 
|  6> *xyz 0 4
|  7> Co 0.0 0.0 0.0
|  8> *
|  9> 
| 10> %maxcore 5000
| 11> %pal
| 12> nprocs 24
| 13> end
| 14> 
| 15> 
| 16>                          ****END OF INPUT****
================================================================================

                   *****************************************
                   * Extrapolated Single Point Calculation *
                   *****************************************

----- Orbital basis set information -----
Your calculation utilizes the basis: def2-TZVPP
   F. Weigend and R. Ahlrichs, Phys. Chem. Chem. Phys. 7, 3297 (2005).

----- AuxJ basis set information -----
Your calculation utilizes the auxiliary basis: def2/J
   F. Weigend, Phys. Chem. Chem. Phys. 8, 1057 (2006).

----- AuxC basis set information -----
Your calculation utilizes the auxiliary basis: def2-TZVPP/C
  H-La, Hf-Rn : A. Hellweg, C. Hattig, S. Hofener and W. Klopper, Theor. Chem. Acc. 117, 587 (2007).
        Ce-Lu : J. Chmela and M. E. Harding, Mol. Phys. (2018).

----- AuxJK basis set information -----
Your calculation utilizes the auxiliary basis: def2/JK
   H-Ba, Hf-Rn: F. Weigend, J. Comput. Chem. 29, 167 (2008).

All done

                     -----------------------------------------
                     Extrapolated Energy 1 Basis=  def2-TZVPP
                     -----------------------------------------

---------------------------------
CARTESIAN COORDINATES (ANGSTROEM)
---------------------------------
  Co     0.000000    0.000000    0.000000

----------------------------
CARTESIAN COORDINATES (A.U.)
----------------------------
  NO LB      ZA    FRAG     MASS         X           Y           Z
   0 Co   27.0000    0    58.930    0.000000    0.000000    0.000000

--------------------------------
INTERNAL COORDINATES (ANGSTROEM)
--------------------------------
 Co     0   0   0     0.000000000000     0.00000000     0.00000000

---------------------------
INTERNAL COORDINATES (A.U.)
---------------------------
 Co     0   0   0     0.000000000000     0.00000000     0.00000000

---------------------
BASIS SET INFORMATION
---------------------
There are 1 groups of distinct atoms

 Group   1 Type Co  : 17s12p7d2f1g contracted to 6s5p4d2f1g pattern {842111/63111/4111/11/1}

Atom   0Co   basis set group =>   1
---------------------------------
AUXILIARY/J BASIS SET INFORMATION
---------------------------------
There are 1 groups of distinct atoms

 Group   1 Type Co  : 19s5p5d3f3g contracted to 8s5p5d2f3g pattern {121111111/11111/11111/21/111}

Atom   0Co   basis set group =>   1
---------------------------------
AUXILIARY/C BASIS SET INFORMATION
---------------------------------
There are 1 groups of distinct atoms

 Group   1 Type Co  : 9s9p8d7f5g3h1i contracted to 9s9p8d7f5g3h1i pattern {111111111/111111111/11111111/1111111/11111/111/1}

Atom   0Co   basis set group =>   1
----------------------------------
AUXILIARY/JK BASIS SET INFORMATION
----------------------------------
There are 1 groups of distinct atoms

 Group   1 Type Co  : 19s14p12d10f7g3h1i contracted to 16s13p11d9f5g3h1i pattern {4111111111111111/2111111111111/21111111111/211111111/31111/111/1}

Atom   0Co   basis set group =>   1


           ************************************************************
           *        Program running with 24 parallel MPI-processes    *
           *              working on a common directory               *
           ************************************************************
------------------------------------------------------------------------------
                           ORCA GTO INTEGRAL CALCULATION
------------------------------------------------------------------------------

                         BASIS SET STATISTICS AND STARTUP INFO

 # of primitive gaussian shells          ...   39
 # of primitive gaussian functions       ...  111
 # of contracted shells                  ...   18
 # of contracted basis functions         ...   64
 Highest angular momentum                ...    4
 Maximum contraction depth               ...    8
 Integral package used                   ... LIBINT
 Integral threshhold            Thresh   ...  1.000e-12
 Primitive cut-off              TCut     ...  1.000e-14


------------------------------ INTEGRAL EVALUATION ----------------------------


 * One electron integrals 
 Pre-screening matrix                    ... done
 Shell pair data                         ... done (   0.000 sec)



           ************************************************************
           *        Program running with 24 parallel MPI-processes    *
           *              working on a common directory               *
           ************************************************************
-------------------------------------------------------------------------------
                                 ORCA SCF
-------------------------------------------------------------------------------

------------
SCF SETTINGS
------------
Hamiltonian:
 Ab initio Hamiltonian  Method          .... Hartree-Fock(GTOs)


General Settings:
 Integral files         IntName         .... 67_Co
 Hartree-Fock type      HFTyp           .... UHF
 Total Charge           Charge          ....    0
 Multiplicity           Mult            ....    4
 Number of Electrons    NEL             ....   27
 Basis Dimension        Dim             ....   64
 Nuclear Repulsion      ENuc            ....      0.0000000000 Eh

Convergence Acceleration:
 DIIS                   CNVDIIS         .... on
   Start iteration      DIISMaxIt       ....    12
   Startup error        DIISStart       ....  0.200000
   # of expansion vecs  DIISMaxEq       ....     5
   Bias factor          DIISBfac        ....   1.050
   Max. coefficient     DIISMaxC        ....  10.000
 Newton-Raphson         CNVNR           .... off
 SOSCF                  CNVSOSCF        .... off
 Level Shifting         CNVShift        .... on
   Level shift para.    LevelShift      ....    0.2500
   Turn off err/grad.   ShiftErr        ....    0.0010
 Zerner damping         CNVZerner       .... off
 Static damping         CNVDamp         .... on
   Fraction old density DampFac         ....    0.7000
   Max. Damping (<1)    DampMax         ....    0.9800
   Min. Damping (>=0)   DampMin         ....    0.0000
   Turn off err/grad.   DampErr         ....    0.1000
 Fernandez-Rico         CNVRico         .... off

SCF Procedure:
 Maximum # iterations   MaxIter         ....   125
 SCF integral mode      SCFMode         .... Direct
   Integral package                     .... LIBINT
 Reset frequency        DirectResetFreq ....    20
 Integral Threshold     Thresh          ....  1.000e-12 Eh
 Primitive CutOff       TCut            ....  1.000e-14 Eh

Convergence Tolerance:
 Convergence Check Mode ConvCheckMode   .... Total+1el-Energy
 Convergence forced     ConvForced      .... 1
 Energy Change          TolE            ....  1.000e-09 Eh
 1-El. energy change                    ....  1.000e-06 Eh
 DIIS Error             TolErr          ....  1.000e-08


Diagonalization of the overlap matrix:
Smallest eigenvalue                        ... 5.545e-02
Time for diagonalization                   ...    0.002 sec
Threshold for overlap eigenvalues          ... 1.000e-08
Number of eigenvalues below threshold      ... 0
Time for construction of square roots      ...    0.001 sec
Total time needed                          ...    0.003 sec

-------------------
DFT GRID GENERATION
-------------------

General Integration Accuracy     IntAcc      ...  4.340
Radial Grid Type                 RadialGrid  ... Gauss-Chebyshev
Angular Grid (max. acc.)         AngularGrid ... Lebedev-110
Angular grid pruning method      GridPruning ... 3 (G Style)
Weight generation scheme         WeightScheme... Becke
Basis function cutoff            BFCut       ...    1.0000e-12
Integration weight cutoff        WCut        ...    1.0000e-14
Grids for H and He will be reduced by one unit

# of grid points (after initial pruning)     ...   2912 (   0.0 sec)
# of grid points (after weights+screening)   ...   2912 (   0.0 sec)
Grid point division into batches done        ...    0.0 sec
Reduced shell lists constructed in    0.0 sec

Total number of grid points                  ...     2912
Total number of batches                      ...       46
Average number of points per batch           ...       63
Average number of grid points per atom       ...     2912
Average number of shells per batch           ...     4.00 (22.22%)
Average number of basis functions per batch  ...    12.00 (18.75%)
Average number of large shells per batch     ...     4.00 (100.00%)
Average number of large basis fcns per batch ...    12.00 (100.00%)
Maximum spatial batch extension              ...  18.98, 28.73, 28.73 au
Average spatial batch extension              ...   0.83,  1.25,  1.25 au

Time for grid setup =    0.019 sec

------------------------------
INITIAL GUESS: MODEL POTENTIAL
------------------------------
Loading Hartree-Fock densities                     ... done
Calculating cut-offs                               ... done
Setting up the integral package                    ... done
Initializing the effective Hamiltonian             ... done
Starting the Coulomb interaction                   ... done (   0.0 sec)
Reading the grid                                   ... done
Mapping shells                                     ... done
Starting the XC term evaluation                    ... done (   0.0 sec)
Transforming the Hamiltonian                       ... done (   0.0 sec)
Diagonalizing the Hamiltonian                      ... done (   0.0 sec)
Back transforming the eigenvectors                 ... done (   0.0 sec)
Now organizing SCF variables                       ... done
                      ------------------
                      INITIAL GUESS DONE (   0.1 sec)
                      ------------------
--------------
SCF ITERATIONS
--------------
ITER       Energy         Delta-E        Max-DP      RMS-DP      [F,P]     Damp
               ***  Starting incremental Fock matrix formation  ***
  0  -1381.2893543933   0.000000000000 0.05372622  0.00097446  0.2138565 0.7000
  1  -1381.3054662776  -0.016111884322 0.05747213  0.00088086  0.1065127 0.7000
                               ***Turning on DIIS***
  2  -1381.3141849457  -0.008718668051 0.16462524  0.00244879  0.0546609 0.0000
  3  -1381.1774740302   0.136710915496 0.04050236  0.00073008  0.0320822 0.0000
  4  -1381.5800028429  -0.402528812660 0.04055866  0.00063189  0.0217712 0.0000
  5  -1381.3553125849   0.224690257991 0.03501384  0.00052006  0.0043593 0.0000
  6  -1381.3502786300   0.005033954860 0.02820953  0.00040888  0.0026032 0.0000
  7  -1381.3409442132   0.009334416806 0.01290072  0.00018435  0.0012476 0.0000
  8  -1381.3394066324   0.001537580757 0.00998325  0.00014147  0.0006255 0.0000
  9  -1381.3388982822   0.000508350295 0.00284783  0.00004016  0.0001434 0.0000
 10  -1381.3374345629   0.001463719255 0.00014450  0.00000215  0.0000363 0.0000
 11  -1381.3375681947  -0.000133631822 0.00040945  0.00000578  0.0000390 0.0000
 12  -1381.3377341428  -0.000165948080 0.00001862  0.00000029  0.0000017 0.0000
 13  -1381.3377177836   0.000016359208 0.00000140  0.00000006  0.0000005 0.0000
 14  -1381.3377176939   0.000000089660 0.00000152  0.00000005  0.0000004 0.0000
 15  -1381.3377192972  -0.000001603244 0.00000173  0.00000003  0.0000002 0.0000
 16  -1381.3377193467  -0.000000049514 0.00000049  0.00000001  0.0000000 0.0000
                            ***DIIS convergence achieved***

               *****************************************************
               *                     SUCCESS                       *
               *           SCF CONVERGED AFTER  17 CYCLES          *
               *****************************************************


----------------
TOTAL SCF ENERGY
----------------

Total Energy       :        -1381.33771924 Eh          -37588.11028 eV

Components:
Nuclear Repulsion  :            0.00000000 Eh               0.00000 eV
Electronic Energy  :        -1381.33771924 Eh          -37588.11028 eV
One Electron Energy:        -1919.20336131 Eh          -52224.17849 eV
Two Electron Energy:          537.86564208 Eh           14636.06820 eV

Virial components:
Potential Energy   :        -2762.42012742 Eh          -75169.27320 eV
Kinetic Energy     :         1381.08240818 Eh           37581.16292 eV
Virial Ratio       :            2.00018486


---------------
SCF CONVERGENCE
---------------

  Last Energy change         ...    1.0890e-07  Tolerance :   1.0000e-09
  Last MAX-Density change    ...    3.4766e-08  Tolerance :   1.0000e-08
  Last RMS-Density change    ...    1.0124e-09  Tolerance :   1.0000e-09
  Last DIIS Error            ...    4.5410e-09  Tolerance :   1.0000e-08

             **** THE GBW FILE WAS UPDATED (67_Co.gbw) ****
             **** DENSITY FILE WAS UPDATED (67_Co.scfp) ****
             **** ENERGY FILE WAS UPDATED (67_Co.en.tmp) ****
----------------------
UHF SPIN CONTAMINATION
----------------------

Expectation value of <S**2>     :     3.752341
Ideal value S*(S+1) for S=1.5   :     3.750000
Deviation                       :     0.002341

             **** THE GBW FILE WAS UPDATED (67_Co.gbw) ****
             **** DENSITY FILE WAS UPDATED (67_Co.scfp) ****
----------------
ORBITAL ENERGIES
----------------
                 SPIN UP ORBITALS
  NO   OCC          E(Eh)            E(eV) 
   0   1.0000    -282.862720     -7697.0859 
   1   1.0000     -34.669790      -943.4130 
   2   1.0000     -29.924610      -814.2900 
   3   1.0000     -29.924610      -814.2900 
   4   1.0000     -29.924610      -814.2900 
   5   1.0000      -4.393895      -119.5640 
   6   1.0000      -2.908164       -79.1352 
   7   1.0000      -2.908164       -79.1352 
   8   1.0000      -2.908164       -79.1352 
   9   1.0000      -0.498277       -13.5588 
  10   1.0000      -0.498277       -13.5588 
  11   1.0000      -0.446035       -12.1372 
  12   1.0000      -0.446035       -12.1372 
  13   1.0000      -0.446035       -12.1372 
  14   1.0000      -0.232462        -6.3256 
  15   0.0000       0.101395         2.7591 
  16   0.0000       0.101395         2.7591 
  17   0.0000       0.101395         2.7591 
  18   0.0000       0.238395         6.4871 
  19   0.0000       0.292929         7.9710 
  20   0.0000       0.292929         7.9710 
  21   0.0000       0.296641         8.0720 
  22   0.0000       0.296641         8.0720 
  23   0.0000       0.296641         8.0720 
  24   0.0000       0.679725        18.4963 
  25   0.0000       0.679725        18.4963 
  26   0.0000       0.679725        18.4963 
  27   0.0000       1.200630        32.6708 
  28   0.0000       1.200630        32.6708 
  29   0.0000       1.218016        33.1439 
  30   0.0000       1.218016        33.1439 
  31   0.0000       1.218016        33.1439 
  32   0.0000       3.001591        81.6775 
  33   0.0000       3.001591        81.6775 
  34   0.0000       3.001591        81.6775 
  35   0.0000       3.051085        83.0242 
  36   0.0000       3.051085        83.0242 
  37   0.0000       3.051085        83.0242 
  38   0.0000       3.064109        83.3786 
  39   0.0000       3.064109        83.3786 
  40   0.0000       3.064109        83.3786 
  41   0.0000       3.082762        83.8862 
  42   0.0000       3.254516        88.5599 
  43   0.0000       4.348230       118.3214 
  44   0.0000       4.348230       118.3214 
  45   0.0000       4.383391       119.2781 
  46   0.0000       4.383391       119.2781 
  47   0.0000       4.383391       119.2781 
  48   0.0000      10.669808       290.3402 
  49   0.0000      10.681754       290.6653 
  50   0.0000      10.681754       290.6653 
  51   0.0000      10.681754       290.6653 
  52   0.0000      10.690457       290.9021 
  53   0.0000      10.690457       290.9021 
  54   0.0000      10.716575       291.6128 
  55   0.0000      10.716575       291.6128 
  56   0.0000      10.716575       291.6128 
  57   0.0000      11.275386       306.8189 
  58   0.0000      11.275386       306.8189 
  59   0.0000      11.275386       306.8189 
  60   0.0000      11.302675       307.5614 
  61   0.0000      11.302675       307.5614 
  62   0.0000      11.302675       307.5614 
  63   0.0000      11.337123       308.4988 

                 SPIN DOWN ORBITALS
  NO   OCC          E(Eh)            E(eV) 
   0   1.0000    -282.859697     -7697.0037 
   1   1.0000     -34.604781      -941.6440 
   2   1.0000     -29.862865      -812.6099 
   3   1.0000     -29.862865      -812.6099 
   4   1.0000     -29.862865      -812.6099 
   5   1.0000      -4.210928      -114.5852 
   6   1.0000      -2.693435       -73.2921 
   7   1.0000      -2.693435       -73.2921 
   8   1.0000      -2.693435       -73.2921 
   9   1.0000      -0.378641       -10.3033 
  10   1.0000      -0.378641       -10.3033 
  11   1.0000      -0.378641       -10.3033 
  12   0.0000       0.027192         0.7399 
  13   0.0000       0.162123         4.4116 
  14   0.0000       0.162123         4.4116 
  15   0.0000       0.162123         4.4116 
  16   0.0000       0.267849         7.2885 
  17   0.0000       0.267849         7.2885 
  18   0.0000       0.302723         8.2375 
  19   0.0000       0.318011         8.6535 
  20   0.0000       0.318011         8.6535 
  21   0.0000       0.318011         8.6535 
  22   0.0000       0.492246        13.3947 
  23   0.0000       0.492246        13.3947 
  24   0.0000       0.726407        19.7665 
  25   0.0000       0.726407        19.7665 
  26   0.0000       0.726407        19.7665 
  27   0.0000       1.251148        34.0455 
  28   0.0000       1.251148        34.0455 
  29   0.0000       1.251148        34.0455 
  30   0.0000       1.363026        37.0898 
  31   0.0000       1.363026        37.0898 
  32   0.0000       3.061327        83.3029 
  33   0.0000       3.061327        83.3029 
  34   0.0000       3.061327        83.3029 
  35   0.0000       3.093959        84.1909 
  36   0.0000       3.134539        85.2951 
  37   0.0000       3.134539        85.2951 
  38   0.0000       3.134539        85.2951 
  39   0.0000       3.168286        86.2134 
  40   0.0000       3.168286        86.2134 
  41   0.0000       3.168286        86.2134 
  42   0.0000       3.327404        90.5433 
  43   0.0000       4.419783       120.2684 
  44   0.0000       4.419783       120.2684 
  45   0.0000       4.419783       120.2684 
  46   0.0000       4.524011       123.1046 
  47   0.0000       4.524011       123.1046 
  48   0.0000      10.753799       292.6258 
  49   0.0000      10.753799       292.6258 
  50   0.0000      10.753799       292.6258 
  51   0.0000      10.766265       292.9650 
  52   0.0000      10.766265       292.9650 
  53   0.0000      10.769995       293.0665 
  54   0.0000      10.769995       293.0665 
  55   0.0000      10.769995       293.0665 
  56   0.0000      10.775729       293.2225 
  57   0.0000      11.358694       309.0858 
  58   0.0000      11.411248       310.5158 
  59   0.0000      11.411248       310.5158 
  60   0.0000      11.411248       310.5158 
  61   0.0000      11.453266       311.6592 
  62   0.0000      11.453266       311.6592 
  63   0.0000      11.453266       311.6592 

                    ********************************
                    * MULLIKEN POPULATION ANALYSIS *
                    ********************************

--------------------------------------------
MULLIKEN ATOMIC CHARGES AND SPIN POPULATIONS
--------------------------------------------
   0 Co:    0.000000    3.000000
Sum of atomic charges         :    0.0000000
Sum of atomic spin populations:    3.0000000

-----------------------------------------------------
MULLIKEN REDUCED ORBITAL CHARGES AND SPIN POPULATIONS
-----------------------------------------------------
CHARGE
  0 Cos       :     6.999969  s :     6.999969
      pz      :     3.999675  p :    11.999025
      px      :     3.999675
      py      :     3.999675
      dz2     :     0.999994  d :     7.999976
      dxz     :     1.999996
      dyz     :     1.999996
      dx2y2   :     0.999994
      dxy     :     1.999996
      f0      :     0.000325  f :     0.000975
      f+1     :     0.000122
      f-1     :     0.000122
      f+2     :     0.000000
      f-2     :     0.000000
      f+3     :     0.000203
      f-3     :     0.000203
      g0      :     0.000020  g :     0.000055
      g+1     :     0.000001
      g-1     :     0.000001
      g+2     :     0.000006
      g-2     :     0.000004
      g+3     :     0.000004
      g-3     :     0.000004
      g+4     :     0.000016
      g-4     :     0.000000

SPIN
  0 Cos       :     1.000014  s :     1.000014
      pz      :     0.000294  p :     0.000882
      px      :     0.000294
      py      :     0.000294
      dz2     :     0.999994  d :     1.999993
      dxz     :     0.000001
      dyz     :     0.000001
      dx2y2   :     0.999994
      dxy     :     0.000001
      f0      :    -0.000294  f :    -0.000882
      f+1     :    -0.000110
      f-1     :    -0.000110
      f+2     :    -0.000000
      f-2     :    -0.000000
      f+3     :    -0.000184
      f-3     :    -0.000184
      g0      :    -0.000006  g :    -0.000008
      g+1     :    -0.000000
      g-1     :    -0.000000
      g+2     :     0.000006
      g-2     :    -0.000001
      g+3     :    -0.000001
      g-3     :    -0.000001
      g+4     :    -0.000003
      g-4     :    -0.000000


                     *******************************
                     * LOEWDIN POPULATION ANALYSIS *
                     *******************************

-------------------------------------------
LOEWDIN ATOMIC CHARGES AND SPIN POPULATIONS
-------------------------------------------
   0 Co:    0.000000    3.000000

----------------------------------------------------
LOEWDIN REDUCED ORBITAL CHARGES AND SPIN POPULATIONS
----------------------------------------------------
CHARGE
  0 Cos       :     6.999969  s :     6.999969
      pz      :     3.999675  p :    11.999025
      px      :     3.999675
      py      :     3.999675
      dz2     :     0.999994  d :     7.999976
      dxz     :     1.999996
      dyz     :     1.999996
      dx2y2   :     0.999994
      dxy     :     1.999996
      f0      :     0.000325  f :     0.000975
      f+1     :     0.000122
      f-1     :     0.000122
      f+2     :     0.000000
      f-2     :     0.000000
      f+3     :     0.000203
      f-3     :     0.000203
      g0      :     0.000020  g :     0.000055
      g+1     :     0.000001
      g-1     :     0.000001
      g+2     :     0.000006
      g-2     :     0.000004
      g+3     :     0.000004
      g-3     :     0.000004
      g+4     :     0.000016
      g-4     :     0.000000

SPIN
  0 Cos       :     1.000014  s :     1.000014
      pz      :     0.000294  p :     0.000882
      px      :     0.000294
      py      :     0.000294
      dz2     :     0.999994  d :     1.999993
      dxz     :     0.000001
      dyz     :     0.000001
      dx2y2   :     0.999994
      dxy     :     0.000001
      f0      :    -0.000294  f :    -0.000882
      f+1     :    -0.000110
      f-1     :    -0.000110
      f+2     :    -0.000000
      f-2     :    -0.000000
      f+3     :    -0.000184
      f-3     :    -0.000184
      g0      :    -0.000006  g :    -0.000008
      g+1     :    -0.000000
      g-1     :    -0.000000
      g+2     :     0.000006
      g-2     :    -0.000001
      g+3     :    -0.000001
      g-3     :    -0.000001
      g+4     :    -0.000003
      g-4     :    -0.000000


                      *****************************
                      * MAYER POPULATION ANALYSIS *
                      *****************************

  NA   - Mulliken gross atomic population
  ZA   - Total nuclear charge
  QA   - Mulliken gross atomic charge
  VA   - Mayer's total valence
  BVA  - Mayer's bonded valence
  FA   - Mayer's free valence

  ATOM       NA         ZA         QA         VA         BVA        FA
  0 Co    27.0000    27.0000    -0.0000     3.0047     0.0000     3.0047

  Mayer bond orders larger than 0.100000


-------
TIMINGS
-------

Total SCF time: 0 days 0 hours 0 min 2 sec 

Total time                  ....       2.109 sec
Sum of individual times     ....       1.931 sec  ( 91.6%)

Fock matrix formation       ....       1.757 sec  ( 83.3%)
Diagonalization             ....       0.019 sec  (  0.9%)
Density matrix formation    ....       0.005 sec  (  0.2%)
Population analysis         ....       0.004 sec  (  0.2%)
Initial guess               ....       0.110 sec  (  5.2%)
Orbital Transformation      ....       0.000 sec  (  0.0%)
Orbital Orthonormalization  ....       0.000 sec  (  0.0%)
DIIS solution               ....       0.016 sec  (  0.8%)


           ************************************************************
           *        Program running with 24 parallel MPI-processes    *
           *              working on a common directory               *
           ************************************************************


------------------------------------------------------------------------------- 
                              ORCA-MATRIX DRIVEN CI                            
------------------------------------------------------------------------------- 

--------------------------------
AUTOMATIC CHOICE OF INCORE LEVEL
--------------------------------

Memory available                           ...   2500.00 MB
Memory needed for S+T                      ...      3.02 MB
Memory needed for J+K                      ...      6.09 MB
Memory needed for DIIS                     ...     42.31 MB
Memory needed for 3-ext                    ...      8.98 MB
Memory needed for 4-ext                    ...     22.44 MB
Memory needed for triples                  ...      4.49 MB
 -> Final InCoreLevel    ... 5
 -> check shows that triples correction can be computed


Wavefunction type
-----------------
Correlation treatment                      ...      CCSD     
Single excitations                         ... ON
Orbital optimization                       ... OFF
Calculation of Z vector                    ... OFF
Calculation of Brueckner orbitals          ... OFF
Perturbative triple excitations            ... ON
Calculation of F12 correction              ... OFF
Frozen core treatment                      ... chemical core (10 el)
Reference Wavefunction                     ... UHF
  Alpha-MOs occ    :     5 ...   14 ( 10 MO's/ 10 electrons)
  Beta-MOs occ     :     5 ...   11 (  7 MO's/  7 electrons)
  Alpha-MOs virt   :    15 ...   63 ( 49 MO's              )
  Beta-MOs virt    :    12 ...   63 ( 52 MO's              )
Number of AO's                             ...     64
Number of electrons                        ...     27
Number of correlated electrons             ...     17

Algorithmic settings
--------------------
Integral transformation                    ... AO direct full transformation
K(C) Formation                             ... FULL-MO TRAFO
Maximum number of iterations               ...        50
Convergence tolerance (max. residuum)      ... 1.000e-06
Level shift for amplitude update           ... 2.000e-01
Maximum number of DIIS vectors             ...         7
DIIS turned on at iteration                ...         0
Damping before turning on DIIS             ...     0.500
Damping after turning on DIIS              ...     0.000
Pair specific amplitude update             ... OFF
Natural orbital iterations                 ... OFF
Perturbative natural orbital generation    ... OFF
Printlevel                                 ... 2

Memory handling:
----------------
Maximum memory for working arrays          ...   2500 MB
Data storage in matrix containers          ... UNCOMPRESSED
Data type for integral storage             ... DOUBLE
In-Core Storage of quantities:
   Amplitudes+Sigma Vector      ... YES
   J+K operators                ... YES
   DIIS vectors                 ... YES
   3-external integrals         ... YES
   4-external integrals         ... YES


Initializing the integral package          ... done
Warning: reference  - re-canonicalizations have been set to INT 1 VIRT 1

--------------------------
UNRESTRICTED FOCK OPERATOR
--------------------------

<ss|ss>:          231 b            0 skpd (  0.0%)    0.001 s ( 0.002 ms/b)
<ss|sp>:          630 b            0 skpd (  0.0%)    0.001 s ( 0.001 ms/b)
<ss|sd>:          504 b            0 skpd (  0.0%)    0.001 s ( 0.001 ms/b)
<ss|sf>:          252 b            0 skpd (  0.0%)    0.000 s ( 0.001 ms/b)
<ss|sg>:          126 b            0 skpd (  0.0%)    0.000 s ( 0.002 ms/b)
<ss|pp>:          315 b            0 skpd (  0.0%)    0.001 s ( 0.003 ms/b)
<ss|pd>:          420 b            0 skpd (  0.0%)    0.000 s ( 0.001 ms/b)
<ss|pf>:          210 b            0 skpd (  0.0%)    0.000 s ( 0.001 ms/b)
<ss|pg>:          105 b            0 skpd (  0.0%)    0.001 s ( 0.005 ms/b)
<ss|dd>:          210 b            0 skpd (  0.0%)    0.001 s ( 0.005 ms/b)
<ss|df>:          168 b            0 skpd (  0.0%)    0.000 s ( 0.003 ms/b)
<ss|dg>:           84 b            0 skpd (  0.0%)    0.001 s ( 0.013 ms/b)
<ss|ff>:           63 b            0 skpd (  0.0%)    0.000 s ( 0.006 ms/b)
<ss|fg>:           42 b            0 skpd (  0.0%)    0.001 s ( 0.014 ms/b)
<ss|gg>:           21 b            0 skpd (  0.0%)    0.000 s ( 0.018 ms/b)
<sp|sp>:          465 b            0 skpd (  0.0%)    0.001 s ( 0.001 ms/b)
<sp|sd>:          720 b            0 skpd (  0.0%)    0.001 s ( 0.001 ms/b)
<sp|sf>:          360 b            0 skpd (  0.0%)    0.000 s ( 0.001 ms/b)
<sp|sg>:          180 b            0 skpd (  0.0%)    0.000 s ( 0.003 ms/b)
<sp|pp>:          450 b            0 skpd (  0.0%)    0.001 s ( 0.003 ms/b)
<sp|pd>:          600 b            0 skpd (  0.0%)    0.001 s ( 0.002 ms/b)
<sp|pf>:          300 b            0 skpd (  0.0%)    0.001 s ( 0.002 ms/b)
<sp|pg>:          150 b            0 skpd (  0.0%)    0.001 s ( 0.005 ms/b)
<sp|dd>:          300 b            0 skpd (  0.0%)    0.002 s ( 0.005 ms/b)
<sp|df>:          240 b            0 skpd (  0.0%)    0.001 s ( 0.003 ms/b)
<sp|dg>:          120 b            0 skpd (  0.0%)    0.002 s ( 0.014 ms/b)
<sp|ff>:           90 b            0 skpd (  0.0%)    0.001 s ( 0.008 ms/b)
<sp|fg>:           60 b            0 skpd (  0.0%)    0.001 s ( 0.017 ms/b)
<sp|gg>:           30 b            0 skpd (  0.0%)    0.001 s ( 0.024 ms/b)
<sd|sd>:          300 b            0 skpd (  0.0%)    0.001 s ( 0.002 ms/b)
<sd|sf>:          288 b            0 skpd (  0.0%)    0.000 s ( 0.001 ms/b)
<sd|sg>:          144 b            0 skpd (  0.0%)    0.001 s ( 0.004 ms/b)
<sd|pp>:          360 b            0 skpd (  0.0%)    0.001 s ( 0.003 ms/b)
<sd|pd>:          480 b            0 skpd (  0.0%)    0.001 s ( 0.003 ms/b)
<sd|pf>:          240 b            0 skpd (  0.0%)    0.001 s ( 0.003 ms/b)
<sd|pg>:          120 b            0 skpd (  0.0%)    0.001 s ( 0.009 ms/b)
<sd|dd>:          240 b            0 skpd (  0.0%)    0.002 s ( 0.007 ms/b)
<sd|df>:          192 b            0 skpd (  0.0%)    0.001 s ( 0.005 ms/b)
<sd|dg>:           96 b            0 skpd (  0.0%)    0.002 s ( 0.019 ms/b)
<sd|ff>:           72 b            0 skpd (  0.0%)    0.001 s ( 0.011 ms/b)
<sd|fg>:           48 b            0 skpd (  0.0%)    0.001 s ( 0.021 ms/b)
<sd|gg>:           24 b            0 skpd (  0.0%)    0.001 s ( 0.051 ms/b)
<sf|sf>:           78 b            0 skpd (  0.0%)    0.000 s ( 0.002 ms/b)
<sf|sg>:           72 b            0 skpd (  0.0%)    0.000 s ( 0.006 ms/b)
<sf|pp>:          180 b            0 skpd (  0.0%)    0.001 s ( 0.004 ms/b)
<sf|pd>:          240 b            0 skpd (  0.0%)    0.001 s ( 0.004 ms/b)
<sf|pf>:          120 b            0 skpd (  0.0%)    0.000 s ( 0.004 ms/b)
<sf|pg>:           60 b            0 skpd (  0.0%)    0.001 s ( 0.013 ms/b)
<sf|dd>:          120 b            0 skpd (  0.0%)    0.001 s ( 0.010 ms/b)
<sf|df>:           96 b            0 skpd (  0.0%)    0.001 s ( 0.007 ms/b)
<sf|dg>:           48 b            0 skpd (  0.0%)    0.001 s ( 0.022 ms/b)
<sf|ff>:           36 b            0 skpd (  0.0%)    0.001 s ( 0.015 ms/b)
<sf|fg>:           24 b            0 skpd (  0.0%)    0.001 s ( 0.029 ms/b)
<sf|gg>:           12 b            0 skpd (  0.0%)    0.001 s ( 0.076 ms/b)
<sg|sg>:           21 b            0 skpd (  0.0%)    0.000 s ( 0.008 ms/b)
<sg|pp>:           90 b            0 skpd (  0.0%)    0.001 s ( 0.008 ms/b)
<sg|pd>:          120 b            0 skpd (  0.0%)    0.001 s ( 0.008 ms/b)
<sg|pf>:           60 b            0 skpd (  0.0%)    0.000 s ( 0.007 ms/b)
<sg|pg>:           30 b            0 skpd (  0.0%)    0.001 s ( 0.027 ms/b)
<sg|dd>:           60 b            0 skpd (  0.0%)    0.001 s ( 0.019 ms/b)
<sg|df>:           48 b            0 skpd (  0.0%)    0.001 s ( 0.013 ms/b)
<sg|dg>:           24 b            0 skpd (  0.0%)    0.001 s ( 0.045 ms/b)
<sg|ff>:           18 b            0 skpd (  0.0%)    0.000 s ( 0.021 ms/b)
<sg|fg>:           12 b            0 skpd (  0.0%)    0.001 s ( 0.054 ms/b)
<sg|gg>:            6 b            0 skpd (  0.0%)    0.001 s ( 0.141 ms/b)
<pp|pp>:          120 b            0 skpd (  0.0%)    0.001 s ( 0.009 ms/b)
<pp|pd>:          300 b            0 skpd (  0.0%)    0.001 s ( 0.004 ms/b)
<pp|pf>:          150 b            0 skpd (  0.0%)    0.001 s ( 0.004 ms/b)
<pp|pg>:           75 b            0 skpd (  0.0%)    0.001 s ( 0.013 ms/b)
<pp|dd>:          150 b            0 skpd (  0.0%)    0.002 s ( 0.010 ms/b)
<pp|df>:          120 b            0 skpd (  0.0%)    0.001 s ( 0.007 ms/b)
<pp|dg>:           60 b            0 skpd (  0.0%)    0.001 s ( 0.021 ms/b)
<pp|ff>:           45 b            0 skpd (  0.0%)    0.001 s ( 0.012 ms/b)
<pp|fg>:           30 b            0 skpd (  0.0%)    0.001 s ( 0.027 ms/b)
<pp|gg>:           15 b            0 skpd (  0.0%)    0.001 s ( 0.074 ms/b)
<pd|pd>:          210 b            0 skpd (  0.0%)    0.002 s ( 0.010 ms/b)
<pd|pf>:          200 b            0 skpd (  0.0%)    0.001 s ( 0.006 ms/b)
<pd|pg>:          100 b            0 skpd (  0.0%)    0.002 s ( 0.021 ms/b)
<pd|dd>:          200 b            0 skpd (  0.0%)    0.003 s ( 0.016 ms/b)
<pd|df>:          160 b            0 skpd (  0.0%)    0.002 s ( 0.011 ms/b)
<pd|dg>:           80 b            0 skpd (  0.0%)    0.003 s ( 0.035 ms/b)
<pd|ff>:           60 b            0 skpd (  0.0%)    0.001 s ( 0.021 ms/b)
<pd|fg>:           40 b            0 skpd (  0.0%)    0.002 s ( 0.047 ms/b)
<pd|gg>:           20 b            0 skpd (  0.0%)    0.003 s ( 0.129 ms/b)
<pf|pf>:           55 b            0 skpd (  0.0%)    0.000 s ( 0.009 ms/b)
<pf|pg>:           50 b            0 skpd (  0.0%)    0.001 s ( 0.026 ms/b)
<pf|dd>:          100 b            0 skpd (  0.0%)    0.002 s ( 0.018 ms/b)
<pf|df>:           80 b            0 skpd (  0.0%)    0.001 s ( 0.015 ms/b)
<pf|dg>:           40 b            0 skpd (  0.0%)    0.002 s ( 0.044 ms/b)
<pf|ff>:           30 b            0 skpd (  0.0%)    0.001 s ( 0.036 ms/b)
<pf|fg>:           20 b            0 skpd (  0.0%)    0.001 s ( 0.071 ms/b)
<pf|gg>:           10 b            0 skpd (  0.0%)    0.002 s ( 0.174 ms/b)
<pg|pg>:           15 b            0 skpd (  0.0%)    0.001 s ( 0.045 ms/b)
<pg|dd>:           50 b            0 skpd (  0.0%)    0.002 s ( 0.037 ms/b)
<pg|df>:           40 b            0 skpd (  0.0%)    0.001 s ( 0.025 ms/b)
<pg|dg>:           20 b            0 skpd (  0.0%)    0.002 s ( 0.086 ms/b)
<pg|ff>:           15 b            0 skpd (  0.0%)    0.001 s ( 0.044 ms/b)
<pg|fg>:           10 b            0 skpd (  0.0%)    0.001 s ( 0.118 ms/b)
<pg|gg>:            5 b            0 skpd (  0.0%)    0.001 s ( 0.289 ms/b)
<dd|dd>:           55 b            0 skpd (  0.0%)    0.003 s ( 0.046 ms/b)
<dd|df>:           80 b            0 skpd (  0.0%)    0.002 s ( 0.020 ms/b)
<dd|dg>:           40 b            0 skpd (  0.0%)    0.002 s ( 0.062 ms/b)
<dd|ff>:           30 b            0 skpd (  0.0%)    0.001 s ( 0.037 ms/b)
<dd|fg>:           20 b            0 skpd (  0.0%)    0.002 s ( 0.083 ms/b)
<dd|gg>:           10 b            0 skpd (  0.0%)    0.002 s ( 0.224 ms/b)
<df|df>:           36 b            0 skpd (  0.0%)    0.001 s ( 0.041 ms/b)
<df|dg>:           32 b            0 skpd (  0.0%)    0.002 s ( 0.069 ms/b)
<df|ff>:           24 b            0 skpd (  0.0%)    0.001 s ( 0.062 ms/b)
<df|fg>:           16 b            0 skpd (  0.0%)    0.002 s ( 0.120 ms/b)
<df|gg>:            8 b            0 skpd (  0.0%)    0.002 s ( 0.304 ms/b)
<dg|dg>:           10 b            0 skpd (  0.0%)    0.002 s ( 0.156 ms/b)
<dg|ff>:           12 b            0 skpd (  0.0%)    0.001 s ( 0.072 ms/b)
<dg|fg>:            8 b            0 skpd (  0.0%)    0.001 s ( 0.187 ms/b)
<dg|gg>:            4 b            0 skpd (  0.0%)    0.002 s ( 0.468 ms/b)
<ff|ff>:            6 b            0 skpd (  0.0%)    0.001 s ( 0.090 ms/b)
<ff|fg>:            6 b            0 skpd (  0.0%)    0.001 s ( 0.175 ms/b)
<ff|gg>:            3 b            0 skpd (  0.0%)    0.001 s ( 0.467 ms/b)
<fg|fg>:            3 b            0 skpd (  0.0%)    0.001 s ( 0.320 ms/b)
<fg|gg>:            2 b            0 skpd (  0.0%)    0.002 s ( 0.756 ms/b)
<gg|gg>:            1 b            0 skpd (  0.0%)    0.002 s ( 1.764 ms/b)
Recanonicalizing the internal orbitals
Recanonicalizing the virtual orbitals
Time needed for Fock operator              ...            0.140 sec
Reference energy                           ...  -1381.337719239
Warning: for UHF the TrafoType has to be JK
Warning: for UHF the K(C)-option cannot be MO but must be AOX

-------------------------------
PARTIAL EXCHANGE TRANSFORMATION
-------------------------------

Transformation type                        ... two-operators
Generation of integrals (i,mue|j,nue)      ... ON
Generation of integrals (mue,kappa|nue,tau)... ON
Generation of integrals (i,mue|a,nue)      ... ON
Dimension of the basis                     ...   64
Number of internal alpha-MOs               ...   10 (   5-  14)
Number of internal beta-MOs                ...    7 (   5-  11)
Number of external alpha-MOs               ...   49 (  15-  63)
Number of external beta-MOs                ...   52 (  12-  63)
Pair cutoff                                ... 0.000e+00 Eh
Number of AO pairs in the trafo            ... 2080
Total Number of distinct AO pairs          ... 2080
Memory devoted for trafo                   ... 2500.0 MB 
Max. Number of MO pairs treated together   ... 80000      
Number Format for Storage                  ... Double (8 Byte)
Integral package used                      ... LIBINT

Starting integral evaluation:
    ... done with AO integral generation
Closing buffer AOK[aa] ( 0.00 GB; CompressionRatio= 0.00)
Closing buffer AOK[bb] ( 0.00 GB; CompressionRatio= 0.00)
Closing buffer AOK[ab] ( 0.00 GB; CompressionRatio= 0.00)
Closing buffer AOK[ba] ( 0.00 GB; CompressionRatio= 0.00)
Collecting buffer AOK 
Closing buffer IAAO1[aa] ( 0.00 GB; CompressionRatio= 0.00)
Closing buffer IAAO1[bb] ( 0.00 GB; CompressionRatio= 0.00)
Closing buffer IAAO1[ab] ( 0.00 GB; CompressionRatio= 0.00)
Closing buffer IAAO1[ba] ( 0.00 GB; CompressionRatio= 0.00)
Closing buffer IAAO2[aa] ( 0.00 GB; CompressionRatio= 0.00)
Closing buffer IAAO2[bb] ( 0.00 GB; CompressionRatio= 0.00)
Closing buffer IAAO2[ab] ( 0.00 GB; CompressionRatio= 0.00)
Closing buffer IAAO2[ba] ( 0.00 GB; CompressionRatio= 0.00)
Collecting buffer IAAO 
Closing buffer PRQS    ( 0.00 GB; CompressionRatio= 0.00)
Collecting buffer PRQS 
Number of alpha/alpha MO pairs in trafo    ...   55
Number of beta /beta  MO pairs in trafo    ...   28
Number of alpha/ beta MO pairs in trafo    ...   70
------------------------
SORTING OF (i,mue|j,nue)
------------------------

SORTING OF ALPHA/ALPHA PAIRS
IBATCH = 1 of  1
Closing buffer KAO[aa] ( 0.00 GB; CompressionRatio= 1.00)
Collecting buffer KAO 
SORTING OF BETA /BETA  PAIRS
IBATCH = 1 of  1
Closing buffer KAO[bb] ( 0.00 GB; CompressionRatio= 1.00)
Collecting buffer KAO 
SORTING OF ALPHA/BETA  PAIRS
IBATCH = 1 of  1
Closing buffer KAO[ab] ( 0.00 GB; CompressionRatio= 0.999633923124)
Collecting buffer KAO[ab] 
------------------------
SORTING OF (i,mue|a,nue)
------------------------

Number of alpha/alpha (i,a) pairs in trafo  ...  490
Number of beta /beta  (i,a) pairs in trafo  ...  364
Number of alpha/ beta (i,a) pairs in trafo  ...  520
Number of beta /alpha (i,a) pairs in trafo  ...  343
Setting up the alpha/alpha list             ... done
Setting up the beta /beta  list             ... done
Setting up the alpha/beta  list             ... done
Setting up the beta /alpha list             ... done
    ... Now sorting (i,mue|a,nue)integrals
    ... Integrals (i,b|a,c) will be made on the fly
SORTING OF ALPHA/ALPHA PAIRS
IBATCH = 1 of  1
Closing buffer IPAQ[aa]  0.00 GB; CompressionRatio= 1.00)
SORTING OF BETA /BETA  PAIRS
IBATCH = 1 of  1
Closing buffer IPAQ[bb]( 0.00 GB; CompressionRatio= 1.00)
SORTING OF ALPHA/BETA  PAIRS (NMatSort_ab=22)
IBATCH = 1 of  1
Closing buffer IPAQ[ab]( 0.00 GB; CompressionRatio= 1.00)
SORTING OF BETA/ALPHA  PAIRS
IBATCH = 1 of  1
Closing buffer IPAQ[ba]( 0.00 GB; CompressionRatio= 1.00)
N(AO-Batches) Done                         ...         0 
N(AO-Batches) Skipped                      ...         0 
N(IJ)-pairs Skipped                        ...         0 
TOTAL TIME for half transformation         ...     0.382 sec
AO-integral generation                     ...     0.000 sec
Half transformation                        ...     0.000 sec
K-integral sorting                         ...     0.173 sec
<ss|**>: 
------------------------------
PARTIAL COULOMB TRANSFORMATION
------------------------------

Transformation type                        ... two-operators
Dimension of the basis                     ...   64
Number of internal alpha-MOs               ...   10 (5-14)
Number of internal beta-MOs                ...    7 (5-11)
Pair cutoff                                ... 0.000e+00 Eh
Number of AO pairs included in the trafo   ... 2080
Total Number of distinct AO pairs          ... 2080
Memory devoted for trafo                   ... 2500.0 MB 
Max. Number of MO pairs treated together   ... 157538      
Max. Number of MOs treated per batch       ... 2461      
Number Format for Storage                  ... Double (8 Byte)
AO-integral source                         ... DIRECT
Integral package used                      ... LIBINT

Starting integral evaluation:
        3591 b        0 skpd     0.001 s (  0.000 ms/b)
<sp|**>: <sd|**>:         5130 b        0 skpd     0.008 s (  0.001 ms/b)
        4104 b        0 skpd     0.009 s (  0.002 ms/b)
<sf|**>:         2052 b        0 skpd     0.005 s (  0.003 ms/b)
<sg|**>:         1026 b        0 skpd     0.010 s (  0.010 ms/b)
<pp|**>:         2565 b        0 skpd     0.012 s (  0.005 ms/b)
<pd|**>:         3420 b        0 skpd     0.017 s (  0.005 ms/b)
<pf|**>:         1710 b        0 skpd     0.008 s (  0.005 ms/b)
<pg|**>:          855 b        0 skpd     0.015 s (  0.018 ms/b)
<dd|**>:         1710 b        0 skpd     0.022 s (  0.013 ms/b)
<df|**>:         1368 b        0 skpd     0.012 s (  0.009 ms/b)
<dg|**>:          684 b        0 skpd     0.019 s (  0.028 ms/b)
<ff|**>:          513 b        0 skpd     0.009 s (  0.017 ms/b)
<fg|**>:          342 b        0 skpd     0.013 s (  0.037 ms/b)
<gg|**>:          171 b        0 skpd     0.018 s (  0.106 ms/b)
Closing buffer AOJ[aa] ( 0.00 GB; CompressionRatio= 0.97)
Closing buffer AOJ[bb] ( 0.00 GB; CompressionRatio= 0.00)
Collecting buffer AOJ 
    ... done with AO integral generation
Number of Alpha-MO pairs included          ...   55
Number of Beta-MO pairs included           ...   28
    ... Now sorting integrals
SORTING ALPHA/ALPHA PAIRS
IBATCH = 1 of  1
Closing buffer JAO[aa] ( 0.00 GB; CompressionRatio= 1.00)
SORTING BETA/BETA PAIRS
IBATCH = 1 of  1
Closing buffer JAO[bb] ( 0.00 GB; CompressionRatio= 1.00)
Collecting buffer JAO 
TOTAL TIME for half transformation         ...     0.209 sec
AO-integral generation                     ...     0.179 sec
Half transformation                        ...     0.002 sec
J-integral sorting                         ...     0.022 sec

-------------------------- SECOND HALF TRANSFORMATION -------------------------
Formation of (ij|kl),(ij|ka), (ij|ab)      ... ok (     0.024 sec)
Formation of (ik|jl),(ik|ja), (ia|jb)      ... ok (     0.032 sec)


-----------------------
SPIN UNRESTRICTED GUESS
-----------------------

Entering MDCI_UHF_Guess, Tailored=0
Spin-components of the MP2 energy:
EMP2(aa)=     -0.146885390
EMP2(bb)=     -0.073210832
EMP2(ab)=     -0.435475959

Initial guess performed in     0.011 sec
E(0)                                       ...  -1381.337719239
E(MP2)                                     ...     -0.655572181
Initial E(tot)                             ...  -1381.993291419
<T|T>                                      ...      0.101053312
Number of pairs included                   ... 136

------------------------------------------------
                  UHF COUPLED CLUSTER ITERATIONS
------------------------------------------------

Number of amplitudes to be optimized       ...       261179

Iter       E(tot)           E(Corr)          Delta-E          Residual     Time      <S|S>**1/2
  0  -1381.993291419     -0.655572181      0.000000000      0.028471198    0.23      0.000000013
                           *** Turning on DIIS ***
  1  -1381.914731968     -0.577012729      0.078559451      0.011873026    0.25      0.067801022
  2  -1381.940552253     -0.602833014     -0.025820285      0.006822782    0.25      0.056464269
  3  -1381.940926230     -0.603206992     -0.000373977      0.004733822    0.25      0.069977384
  4  -1381.942113259     -0.604394020     -0.001187029      0.002539155    0.25      0.076151656
  5  -1381.942873267     -0.605154029     -0.000760008      0.000546167    0.26      0.082560286
  6  -1381.942949492     -0.605230253     -0.000076224      0.000189986    0.25      0.084056183
  7  -1381.942954295     -0.605235056     -0.000004803      0.000082992    0.26      0.084378574
  8  -1381.942959616     -0.605240377     -0.000005321      0.000031746    0.29      0.084351088
  9  -1381.942956261     -0.605237022      0.000003355      0.000013635    0.26      0.084317644
 10  -1381.942957137     -0.605237898     -0.000000877      0.000004680    0.25      0.084294979
 11  -1381.942956540     -0.605237301      0.000000598      0.000001253    0.25      0.084284811
 12  -1381.942956112     -0.605236873      0.000000428      0.000000554    0.26      0.084282733
               --- The Coupled-Cluster iterations have converged ---

----------------------
COUPLED CLUSTER ENERGY
----------------------

E(0)                                       ...  -1381.337719239
E(CORR)                                    ...     -0.605236873
E(TOT)                                     ...  -1381.942956112
Singles norm <S|S>**1/2                    ...      0.084282733 ( 0.055658899, 0.028623834)  
T1 diagnostic                              ...      0.020441565                              

------------------
LARGEST AMPLITUDES
------------------
  14a-> 18a  -1a-> -1a       0.064087
   9b-> 19b  -1b-> -1b       0.037391
  10b-> 20b  -1b-> -1b       0.037337
  11b-> 21b  -1b-> -1b       0.037326
  14a-> 15a   9b-> 13b       0.028978
  11a-> 21a  -1a-> -1a       0.028254
  13a-> 23a  -1a-> -1a       0.027908
  12a-> 22a  -1a-> -1a       0.027880
   9a-> 19a  -1a-> -1a       0.026074
  10a-> 20a  -1a-> -1a       0.026074
  14a-> 17a  11b-> 15b       0.024822
  11a-> 29a   9b-> 27b       0.024281
  13a-> 31a  11b-> 29b       0.023685
  12a-> 30a  10b-> 28b       0.023534
  14a-> 16a  11b-> 14b       0.018794
  14a-> 17a  10b-> 14b       0.018375

----------------------
UHF TRIPLES CORRECTION (Algorithm 1)
----------------------

Multiplier for the singles contribution    ...      1.000000000

SPIN-CASE Alpha-Alpha-Alpha:
10% done
20% done
30% done
40% done
50% done
60% done
70% done
80% done
90% done


SPIN-CASE Beta-Beta-Beta:
10% done
20% done
30% done
40% done
50% done
60% done
70% done
80% done
90% done


SPIN-CASE Alpha-Alpha-Beta:
10% done
20% done
30% done
40% done
50% done
60% done
70% done
80% done
90% done


SPIN-CASE Beta-Beta-Alpha:
10% done
20% done
30% done
40% done
50% done
60% done
70% done
80% done
90% done


Triples Correction (T)                     ...     -0.017634435
    alpha-alpha-alpha ... -0.001444517 (  8.2%)
    alpha-alpha-beta  ... -0.010118473 ( 57.4%)
    alpha-beta -beta  ... -0.005782890 ( 32.8%)
    beta -beta -beta  ... -0.000288555 (  1.6%)
Scaling of triples based on CCSD energies (Peterson et al. Molecular Physics 113, 1551 (2015))
E(T*) = f*E(T) where f = E(F12-CCSD)/E(CCSD) 
f = CCSD (with F12)/ CCSD (without F12)    ...      1.000000000
Scaled triples correction (T)              ...     -0.017634435

Final correlation energy                   ...     -0.622871308
E(CCSD)                                    ...  -1381.942956112
E(CCSD(T))                                 ...  -1381.960590547



        !!!!!!!!!!!!!!!!!!!!!!!!!!!!!!!!!!!!!!!!!!!!!!!!!!!!!!!!!!!!!!!!!!!!!!!!!! 
        !  Warning: Densities are linearized densities                           !
        !!!!!!!!!!!!!!!!!!!!!!!!!!!!!!!!!!!!!!!!!!!!!!!!!!!!!!!!!!!!!!!!!!!!!!!!!! 

NORM  =      1.102382787 sqrt=     1.049944183
W(HF) =      0.907125920
------------------------------------------------------------------------------
                           ORCA POPULATION ANALYSIS
------------------------------------------------------------------------------
Input electron density              ... 67_Co.mdcip
Input spin density                  ... 67_Co.mdcir
BaseName (.gbw .S,...)              ... 67_Co

                    ********************************
                    * MULLIKEN POPULATION ANALYSIS *
                    ********************************

------------------------------------------
MULLIKEN ATOMIC CHARGES AND SPIN DENSITIES
------------------------------------------
   0 Co:    0.000000    3.000000
Sum of atomic charges       :    0.0000000
Sum of atomic spin densities:    3.0000000

---------------------------------------------------
MULLIKEN REDUCED ORBITAL CHARGES AND SPIN DENSITIES
---------------------------------------------------
CHARGE
  0 Cos       :     6.988479  s :     6.988479
      pz      :     4.002715  p :    12.008145
      px      :     4.002715
      py      :     4.002715
      dz2     :     1.001918  d :     7.968624
      dxz     :     1.988262
      dyz     :     1.988262
      dx2y2   :     1.001918
      dxy     :     1.988262
      f0      :     0.004139  f :     0.031454
      f+1     :     0.004408
      f-1     :     0.004408
      f+2     :     0.004570
      f-2     :     0.005327
      f+3     :     0.004301
      f-3     :     0.004301
      g0      :     0.000345  g :     0.003298
      g+1     :     0.000356
      g-1     :     0.000356
      g+2     :     0.000363
      g-2     :     0.000396
      g+3     :     0.000390
      g-3     :     0.000390
      g+4     :     0.000350
      g-4     :     0.000350

SPIN
  0 Cos       :     0.988125  s :     0.988125
      pz      :     0.004131  p :     0.012394
      px      :     0.004131
      py      :     0.004131
      dz2     :     0.989977  d :     1.992337
      dxz     :     0.004128
      dyz     :     0.004128
      dx2y2   :     0.989977
      dxy     :     0.004128
      f0      :     0.001415  f :     0.006436
      f+1     :     0.001041
      f-1     :     0.001041
      f+2     :     0.000816
      f-2     :    -0.000259
      f+3     :     0.001191
      f-3     :     0.001191
      g0      :     0.000099  g :     0.000708
      g+1     :     0.000091
      g-1     :     0.000091
      g+2     :     0.000097
      g-2     :     0.000040
      g+3     :     0.000047
      g-3     :     0.000047
      g+4     :     0.000098
      g-4     :     0.000098


                     *******************************
                     * LOEWDIN POPULATION ANALYSIS *
                     *******************************

-----------------------------------------
LOEWDIN ATOMIC CHARGES AND SPIN DENSITIES
-----------------------------------------
   0 Co:    0.000000    3.000000

--------------------------------------------------
LOEWDIN REDUCED ORBITAL CHARGES AND SPIN DENSITIES
--------------------------------------------------
CHARGE
  0 Cos       :     6.988479  s :     6.988479
      pz      :     4.002715  p :    12.008145
      px      :     4.002715
      py      :     4.002715
      dz2     :     1.001918  d :     7.968624
      dxz     :     1.988262
      dyz     :     1.988262
      dx2y2   :     1.001918
      dxy     :     1.988262
      f0      :     0.004139  f :     0.031454
      f+1     :     0.004408
      f-1     :     0.004408
      f+2     :     0.004570
      f-2     :     0.005327
      f+3     :     0.004301
      f-3     :     0.004301
      g0      :     0.000345  g :     0.003298
      g+1     :     0.000356
      g-1     :     0.000356
      g+2     :     0.000363
      g-2     :     0.000396
      g+3     :     0.000390
      g-3     :     0.000390
      g+4     :     0.000350
      g-4     :     0.000350

SPIN
  0 Cos       :     0.988125  s :     0.988125
      pz      :     0.004131  p :     0.012394
      px      :     0.004131
      py      :     0.004131
      dz2     :     0.989977  d :     1.992337
      dxz     :     0.004128
      dyz     :     0.004128
      dx2y2   :     0.989977
      dxy     :     0.004128
      f0      :     0.001415  f :     0.006436
      f+1     :     0.001041
      f-1     :     0.001041
      f+2     :     0.000816
      f-2     :    -0.000259
      f+3     :     0.001191
      f-3     :     0.001191
      g0      :     0.000099  g :     0.000708
      g+1     :     0.000091
      g-1     :     0.000091
      g+2     :     0.000097
      g-2     :     0.000040
      g+3     :     0.000047
      g-3     :     0.000047
      g+4     :     0.000098
      g-4     :     0.000098


                      *****************************
                      * MAYER POPULATION ANALYSIS *
                      *****************************

  NA   - Mulliken gross atomic population
  ZA   - Total nuclear charge
  QA   - Mulliken gross atomic charge
  VA   - Mayer's total valence
  BVA  - Mayer's bonded valence
  FA   - Mayer's free valence

  ATOM       NA         ZA         QA         VA         BVA        FA
  0 Co    27.0000    27.0000     0.0000     3.6106     0.0000     3.6106





------------------------------------------------------------------------------- 
                                     TIMINGS                                   
------------------------------------------------------------------------------- 


Total execution time                   ...        4.510 sec

Fock Matrix Formation                  ...        0.140 sec (  3.1%)
Initial Guess                          ...        0.011 sec (  0.3%)
DIIS Solver                            ...        0.304 sec (  6.7%)
State Vector Update                    ...        0.016 sec (  0.4%)
Sigma-vector construction              ...        2.974 sec ( 65.9%)
  <D|H|D>(0-ext Fock)                  ...        0.004 sec (  0.1% of sigma)
  <D|H|D>(0-ext)                       ...        0.013 sec (  0.4% of sigma)
  <D|H|D>(2-ext Fock)                  ...        0.001 sec (  0.0% of sigma)
  <D|H|D>(2-ext)                       ...        0.057 sec (  1.9% of sigma)
  <D|H|D>(4-ext)                       ...        0.892 sec ( 30.0% of sigma)
  <S|H|0>                              ...        0.074 sec (  2.5% of sigma)
  <S|H|D>(1-ext)                       ...        0.002 sec (  0.1% of sigma)
  <D|H|S>(1-ext)                       ...        0.023 sec (  0.8% of sigma)
  Fock-dressing                        ...        1.113 sec ( 37.4% of sigma)
  (ik|jl)-dressing                     ...        0.020 sec (  0.7% of sigma)
  (ij|ab),(ia|jb)-dressing             ...        0.591 sec ( 19.9% of sigma)
  Pair energies                        ...        0.001 sec (  0.0% of sigma)
Total Time for computing (T)           ...        0.185 sec (  4.1% of ALL)
  I/O of integral and amplitudes       ...        0.042 sec ( 22.4% of (T))
  External N**7 contributions          ...        0.052 sec ( 28.0% of (T))
  Internal N**7 contributions          ...        0.024 sec ( 13.0% of (T))
  N**6 triples energy contributions    ...        0.062 sec ( 33.6% of (T))

----- Orbital basis set information -----
Your calculation utilizes the basis: def2-QZVPP
   F. Weigend and R. Ahlrichs, Phys. Chem. Chem. Phys. 7, 3297 (2005).

----- AuxJ basis set information -----
Your calculation utilizes the auxiliary basis: def2/J
   F. Weigend, Phys. Chem. Chem. Phys. 8, 1057 (2006).

----- AuxC basis set information -----
Your calculation utilizes the auxiliary basis: def2-QZVPP/C
  H-La, Hf-Rn : A. Hellweg, C. Hattig, S. Hofener and W. Klopper, Theor. Chem. Acc. 117, 587 (2007).
        Ce-Lu : J. Chmela and M. E. Harding, Mol. Phys. (2018).

----- AuxJK basis set information -----
Your calculation utilizes the auxiliary basis: def2/JK
   H-Ba, Hf-Rn: F. Weigend, J. Comput. Chem. 29, 167 (2008).

All done

                     -----------------------------------------
                     Extrapolated Energy 2 Basis=  def2-QZVPP
                     -----------------------------------------

---------------------------------
CARTESIAN COORDINATES (ANGSTROEM)
---------------------------------
  Co     0.000000    0.000000    0.000000

----------------------------
CARTESIAN COORDINATES (A.U.)
----------------------------
  NO LB      ZA    FRAG     MASS         X           Y           Z
   0 Co   27.0000    0    58.930    0.000000    0.000000    0.000000

--------------------------------
INTERNAL COORDINATES (ANGSTROEM)
--------------------------------
 Co     0   0   0     0.000000000000     0.00000000     0.00000000

---------------------------
INTERNAL COORDINATES (A.U.)
---------------------------
 Co     0   0   0     0.000000000000     0.00000000     0.00000000

---------------------
BASIS SET INFORMATION
---------------------
There are 1 groups of distinct atoms

 Group   1 Type Co  : 24s18p10d4f2g contracted to 11s6p5d4f2g pattern {114111111111/951111/61111/1111/11}

Atom   0Co   basis set group =>   1
---------------------------------
AUXILIARY/J BASIS SET INFORMATION
---------------------------------
There are 1 groups of distinct atoms

 Group   1 Type Co  : 19s5p5d3f3g contracted to 8s5p5d2f3g pattern {121111111/11111/11111/21/111}

Atom   0Co   basis set group =>   1
---------------------------------
AUXILIARY/C BASIS SET INFORMATION
---------------------------------
There are 1 groups of distinct atoms

 Group   1 Type Co  : 15s13p11d8f7g5h2i contracted to 15s13p11d8f7g5h2i pattern {111111111111111/1111111111111/11111111111/11111111/1111111/11111/11}

Atom   0Co   basis set group =>   1
----------------------------------
AUXILIARY/JK BASIS SET INFORMATION
----------------------------------
There are 1 groups of distinct atoms

 Group   1 Type Co  : 19s14p12d10f7g3h1i contracted to 16s13p11d9f5g3h1i pattern {4111111111111111/2111111111111/21111111111/211111111/31111/111/1}

Atom   0Co   basis set group =>   1

Checking for AutoStart:
The File: 67_Co.gbw exists
Trying to determine its content:
     ... Fine, the file contains calculation information
     ... Fine, the calculation information was read
     ... Fine, the file contains a basis set
     ... Fine, the basis set was read
     ... Fine, the file contains a geometry
     ... Fine, the geometry was read
     ... Fine, the file contains a set of orbitals
     ... Fine, the orbitals can be read
     => possible old guess file was deleted
     => GBW file was renamed to GES file
     => GES file is set as startup file
     => Guess is set to MORead
     ... now leaving AutoStart



           ************************************************************
           *        Program running with 24 parallel MPI-processes    *
           *              working on a common directory               *
           ************************************************************
------------------------------------------------------------------------------
                           ORCA GTO INTEGRAL CALCULATION
------------------------------------------------------------------------------

                         BASIS SET STATISTICS AND STARTUP INFO

 # of primitive gaussian shells          ...   58
 # of primitive gaussian functions       ...  174
 # of contracted shells                  ...   28
 # of contracted basis functions         ...  100
 Highest angular momentum                ...    4
 Maximum contraction depth               ...   11
 Integral package used                   ... LIBINT
 Integral threshhold            Thresh   ...  1.000e-12
 Primitive cut-off              TCut     ...  1.000e-14


------------------------------ INTEGRAL EVALUATION ----------------------------


 * One electron integrals 
 Pre-screening matrix                    ... done
 Shell pair data                         ... done (   0.000 sec)



           ************************************************************
           *        Program running with 24 parallel MPI-processes    *
           *              working on a common directory               *
           ************************************************************
-------------------------------------------------------------------------------
                                 ORCA SCF
-------------------------------------------------------------------------------

------------
SCF SETTINGS
------------
Hamiltonian:
 Ab initio Hamiltonian  Method          .... Hartree-Fock(GTOs)


General Settings:
 Integral files         IntName         .... 67_Co
 Hartree-Fock type      HFTyp           .... UHF
 Total Charge           Charge          ....    0
 Multiplicity           Mult            ....    4
 Number of Electrons    NEL             ....   27
 Basis Dimension        Dim             ....  100
 Nuclear Repulsion      ENuc            ....      0.0000000000 Eh

Convergence Acceleration:
 DIIS                   CNVDIIS         .... on
   Start iteration      DIISMaxIt       ....    12
   Startup error        DIISStart       ....  0.200000
   # of expansion vecs  DIISMaxEq       ....     5
   Bias factor          DIISBfac        ....   1.050
   Max. coefficient     DIISMaxC        ....  10.000
 Newton-Raphson         CNVNR           .... off
 SOSCF                  CNVSOSCF        .... off
 Level Shifting         CNVShift        .... on
   Level shift para.    LevelShift      ....    0.2500
   Turn off err/grad.   ShiftErr        ....    0.0010
 Zerner damping         CNVZerner       .... off
 Static damping         CNVDamp         .... on
   Fraction old density DampFac         ....    0.7000
   Max. Damping (<1)    DampMax         ....    0.9800
   Min. Damping (>=0)   DampMin         ....    0.0000
   Turn off err/grad.   DampErr         ....    0.1000
 Fernandez-Rico         CNVRico         .... off

SCF Procedure:
 Maximum # iterations   MaxIter         ....   125
 SCF integral mode      SCFMode         .... Direct
   Integral package                     .... LIBINT
 Reset frequency        DirectResetFreq ....    20
 Integral Threshold     Thresh          ....  1.000e-12 Eh
 Primitive CutOff       TCut            ....  1.000e-14 Eh

Convergence Tolerance:
 Convergence Check Mode ConvCheckMode   .... Total+1el-Energy
 Convergence forced     ConvForced      .... 1
 Energy Change          TolE            ....  1.000e-09 Eh
 1-El. energy change                    ....  1.000e-06 Eh
 DIIS Error             TolErr          ....  1.000e-08


Diagonalization of the overlap matrix:
Smallest eigenvalue                        ... 1.192e-03
Time for diagonalization                   ...    0.003 sec
Threshold for overlap eigenvalues          ... 1.000e-08
Number of eigenvalues below threshold      ... 0
Time for construction of square roots      ...    0.002 sec
Total time needed                          ...    0.005 sec

---------------------
INITIAL GUESS: MOREAD
---------------------
Guess MOs are being read from file: 67_Co.ges
Input Geometry matches current geometry (good)
Atom 0: N(Shells)= 28 and 18 - projection required
Input basis set needs projection
NBasis(read)= 64
NBasis(calc)= 100
Basis set overlap was calculated
Using GuessMode=FMatrix for the initial guess
C*T matrix was formed
Effective Fockian was calculated
Effective Fockian was diagonalized
Initial density was built
C*T matrix was formed
Effective Fockian was calculated
Effective Fockian was diagonalized
Initial density was built
                      ------------------
                      INITIAL GUESS DONE (   0.0 sec)
                      ------------------
--------------
SCF ITERATIONS
--------------
ITER       Energy         Delta-E        Max-DP      RMS-DP      [F,P]     Damp
               ***  Starting incremental Fock matrix formation  ***
  0  -1381.3638165070   0.000000000000 0.01337977  0.00023668  0.0724070 0.7000
  1  -1381.3645223514  -0.000705844327 0.00975228  0.00016984  0.0506560 0.7000
                               ***Turning on DIIS***
  2  -1381.3650220710  -0.000499719632 0.02434345  0.00040754  0.0354393 0.0000
  3  -1381.3661437999  -0.001121728883 0.00557561  0.00005023  0.0004951 0.0000
  4  -1381.3631354026   0.003008397236 0.00130787  0.00001154  0.0003488 0.0000
  5  -1381.3682844540  -0.005149051352 0.00107684  0.00000966  0.0001693 0.0000
  6  -1381.3660930032   0.002191450798 0.00050688  0.00000464  0.0000347 0.0000
  7  -1381.3663315504  -0.000238547187 0.00024635  0.00000232  0.0000135 0.0000
  8  -1381.3662395341   0.000092016335 0.00002153  0.00000024  0.0000014 0.0000
  9  -1381.3662124883   0.000027045750 0.00000703  0.00000006  0.0000005 0.0000
 10  -1381.3662099612   0.000002527129 0.00000241  0.00000002  0.0000001 0.0000
 11  -1381.3662103960  -0.000000434868 0.00000015  0.00000000  0.0000001 0.0000
                            ***DIIS convergence achieved***

               *****************************************************
               *                     SUCCESS                       *
               *           SCF CONVERGED AFTER  12 CYCLES          *
               *****************************************************


----------------
TOTAL SCF ENERGY
----------------

Total Energy       :        -1381.36621018 Eh          -37588.88556 eV

Components:
Nuclear Repulsion  :            0.00000000 Eh               0.00000 eV
Electronic Energy  :        -1381.36621018 Eh          -37588.88556 eV
One Electron Energy:        -1919.30270567 Eh          -52226.88178 eV
Two Electron Energy:          537.93649549 Eh           14637.99622 eV

Virial components:
Potential Energy   :        -2762.68716706 Eh          -75176.53972 eV
Kinetic Energy     :         1381.32095688 Eh           37587.65416 eV
Virial Ratio       :            2.00003276


---------------
SCF CONVERGENCE
---------------

  Last Energy change         ...    2.1521e-07  Tolerance :   1.0000e-09
  Last MAX-Density change    ...    6.9276e-08  Tolerance :   1.0000e-08
  Last RMS-Density change    ...    1.0402e-09  Tolerance :   1.0000e-09
  Last DIIS Error            ...    1.2988e-08  Tolerance :   1.0000e-08

             **** THE GBW FILE WAS UPDATED (67_Co.gbw) ****
             **** DENSITY FILE WAS UPDATED (67_Co.scfp) ****
             **** ENERGY FILE WAS UPDATED (67_Co.en.tmp) ****
----------------------
UHF SPIN CONTAMINATION
----------------------

Expectation value of <S**2>     :     3.752435
Ideal value S*(S+1) for S=1.5   :     3.750000
Deviation                       :     0.002435

             **** THE GBW FILE WAS UPDATED (67_Co.gbw) ****
             **** DENSITY FILE WAS UPDATED (67_Co.scfp) ****
----------------
ORBITAL ENERGIES
----------------
                 SPIN UP ORBITALS
  NO   OCC          E(Eh)            E(eV) 
   0   1.0000    -282.856909     -7696.9278 
   1   1.0000     -34.665986      -943.3094 
   2   1.0000     -29.920843      -814.1875 
   3   1.0000     -29.920843      -814.1875 
   4   1.0000     -29.920843      -814.1875 
   5   1.0000      -4.393097      -119.5422 
   6   1.0000      -2.907473       -79.1164 
   7   1.0000      -2.907473       -79.1164 
   8   1.0000      -2.907473       -79.1164 
   9   1.0000      -0.498931       -13.5766 
  10   1.0000      -0.498931       -13.5766 
  11   1.0000      -0.446204       -12.1418 
  12   1.0000      -0.446204       -12.1418 
  13   1.0000      -0.446204       -12.1418 
  14   1.0000      -0.232390        -6.3236 
  15   0.0000       0.035499         0.9660 
  16   0.0000       0.035499         0.9660 
  17   0.0000       0.035499         0.9660 
  18   0.0000       0.107645         2.9292 
  19   0.0000       0.164440         4.4746 
  20   0.0000       0.164440         4.4746 
  21   0.0000       0.164440         4.4746 
  22   0.0000       0.192387         5.2351 
  23   0.0000       0.192387         5.2351 
  24   0.0000       0.193968         5.2781 
  25   0.0000       0.193968         5.2781 
  26   0.0000       0.193968         5.2781 
  27   0.0000       0.554968        15.1015 
  28   0.0000       0.569522        15.4975 
  29   0.0000       0.569522        15.4975 
  30   0.0000       0.569522        15.4975 
  31   0.0000       0.660025        17.9602 
  32   0.0000       0.660025        17.9602 
  33   0.0000       0.668264        18.1844 
  34   0.0000       0.668264        18.1844 
  35   0.0000       0.668264        18.1844 
  36   0.0000       0.722537        19.6612 
  37   0.0000       0.722537        19.6612 
  38   0.0000       0.722537        19.6612 
  39   0.0000       0.723912        19.6987 
  40   0.0000       0.723912        19.6987 
  41   0.0000       0.723912        19.6987 
  42   0.0000       0.725657        19.7461 
  43   0.0000       1.956584        53.2413 
  44   0.0000       1.956584        53.2413 
  45   0.0000       1.959173        53.3118 
  46   0.0000       1.959173        53.3118 
  47   0.0000       1.959173        53.3118 
  48   0.0000       1.977449        53.8091 
  49   0.0000       1.977449        53.8091 
  50   0.0000       1.977449        53.8091 
  51   0.0000       2.319990        63.1301 
  52   0.0000       2.319990        63.1301 
  53   0.0000       2.319990        63.1301 
  54   0.0000       2.328969        63.3745 
  55   0.0000       2.328969        63.3745 
  56   0.0000       2.328969        63.3745 
  57   0.0000       2.340541        63.6893 
  58   0.0000       2.806708        76.3744 
  59   0.0000       5.441266       148.0644 
  60   0.0000       5.441266       148.0644 
  61   0.0000       5.476238       149.0160 
  62   0.0000       5.476238       149.0160 
  63   0.0000       5.476238       149.0160 
  64   0.0000       6.099771       165.9832 
  65   0.0000       6.107615       166.1967 
  66   0.0000       6.107615       166.1967 
  67   0.0000       6.107615       166.1967 
  68   0.0000       6.113577       166.3589 
  69   0.0000       6.113577       166.3589 
  70   0.0000       6.130781       166.8270 
  71   0.0000       6.130781       166.8270 
  72   0.0000       6.130781       166.8270 
  73   0.0000       6.455077       175.6516 
  74   0.0000       6.455077       175.6516 
  75   0.0000       6.455077       175.6516 
  76   0.0000       6.477735       176.2681 
  77   0.0000       6.477735       176.2681 
  78   0.0000       6.477735       176.2681 
  79   0.0000       6.506463       177.0498 
  80   0.0000      11.230845       305.6068 
  81   0.0000      18.840980       512.6891 
  82   0.0000      18.840980       512.6891 
  83   0.0000      18.840980       512.6891 
  84   0.0000      18.866202       513.3754 
  85   0.0000      18.866202       513.3754 
  86   0.0000      18.866202       513.3754 
  87   0.0000      18.897967       514.2398 
  88   0.0000      20.387057       554.7600 
  89   0.0000      20.400890       555.1364 
  90   0.0000      20.400890       555.1364 
  91   0.0000      20.400890       555.1364 
  92   0.0000      20.410889       555.4085 
  93   0.0000      20.410889       555.4085 
  94   0.0000      20.440990       556.2276 
  95   0.0000      20.440990       556.2276 
  96   0.0000      20.440990       556.2276 
  97   0.0000      38.330159      1043.0167 
  98   0.0000     128.373846      3493.2299 
  99   0.0000     808.384385     21997.2574 

                 SPIN DOWN ORBITALS
  NO   OCC          E(Eh)            E(eV) 
   0   1.0000    -282.854148     -7696.8527 
   1   1.0000     -34.601400      -941.5520 
   2   1.0000     -29.859051      -812.5061 
   3   1.0000     -29.859051      -812.5061 
   4   1.0000     -29.859051      -812.5061 
   5   1.0000      -4.210364      -114.5698 
   6   1.0000      -2.692932       -73.2784 
   7   1.0000      -2.692932       -73.2784 
   8   1.0000      -2.692932       -73.2784 
[...]
AO-integral source                         ... DIRECT
Integral package used                      ... LIBINT

Starting integral evaluation:
       26796 b        0 skpd     0.012 s (  0.000 ms/b)
<sp|**>:        26796 b        0 skpd     0.037 s (  0.001 ms/b)
<sd|**>: <sf|**>:        22330 b        0 skpd     0.057 s (  0.003 ms/b)
       17864 b        0 skpd     0.021 s (  0.001 ms/b)
<sg|**>:         8932 b        0 skpd     0.036 s (  0.004 ms/b)
<pp|**>:         8526 b        0 skpd     0.068 s (  0.008 ms/b)
<pd|**>:        12180 b        0 skpd     0.103 s (  0.008 ms/b)
<pf|**>:         9744 b        0 skpd     0.031 s (  0.003 ms/b)
<pg|**>:         4872 b        0 skpd     0.057 s (  0.012 ms/b)
<dd|**>:         6090 b        0 skpd     0.126 s (  0.021 ms/b)
<df|**>:         8120 b        0 skpd     0.047 s (  0.006 ms/b)
<dg|**>:         4060 b        0 skpd     0.071 s (  0.017 ms/b)
<ff|**>:         4060 b        0 skpd     0.021 s (  0.005 ms/b)
<fg|**>:         3248 b        0 skpd     0.030 s (  0.009 ms/b)
<gg|**>:         1218 b        0 skpd     0.047 s (  0.038 ms/b)
Closing buffer AOJ[aa] ( 0.00 GB; CompressionRatio= 0.97)
Closing buffer AOJ[bb] ( 0.00 GB; CompressionRatio= 0.00)
Collecting buffer AOJ 
    ... done with AO integral generation
Number of Alpha-MO pairs included          ...   55
Number of Beta-MO pairs included           ...   28
    ... Now sorting integrals
SORTING ALPHA/ALPHA PAIRS
IBATCH = 1 of  1
Closing buffer JAO[aa] ( 0.00 GB; CompressionRatio= 1.00)
SORTING BETA/BETA PAIRS
IBATCH = 1 of  1
Closing buffer JAO[bb] ( 0.00 GB; CompressionRatio= 1.00)
Collecting buffer JAO 
TOTAL TIME for half transformation         ...     0.794 sec
AO-integral generation                     ...     0.756 sec
Half transformation                        ...     0.010 sec
J-integral sorting                         ...     0.014 sec

-------------------------- SECOND HALF TRANSFORMATION -------------------------
Formation of (ij|kl),(ij|ka), (ij|ab)      ... ok (     0.038 sec)
Formation of (ik|jl),(ik|ja), (ia|jb)      ... ok (     0.062 sec)


-----------------------
SPIN UNRESTRICTED GUESS
-----------------------

Entering MDCI_UHF_Guess, Tailored=0
Spin-components of the MP2 energy:
EMP2(aa)=     -0.151126102
EMP2(bb)=     -0.073595778
EMP2(ab)=     -0.450754353

Initial guess performed in     0.025 sec
E(0)                                       ...  -1381.366210216
E(MP2)                                     ...     -0.675476233
Initial E(tot)                             ...  -1382.041686449
<T|T>                                      ...      0.105623147
Number of pairs included                   ... 136

------------------------------------------------
                  UHF COUPLED CLUSTER ITERATIONS
------------------------------------------------

Number of amplitudes to be optimized       ...       768185

Iter       E(tot)           E(Corr)          Delta-E          Residual     Time      <S|S>**1/2
  0  -1382.041686449     -0.675476233      0.000000000      0.030058554    0.93      0.000000014
                           *** Turning on DIIS ***
  1  -1381.965309033     -0.599098817      0.076377416      0.010447487    1.06      0.071501966
  2  -1381.991254160     -0.625043943     -0.025945126      0.005768354    1.08      0.060434443
  3  -1381.991565260     -0.625355043     -0.000311100      0.004263875    1.11      0.075421643
  4  -1381.992879383     -0.626669167     -0.001314124      0.002548711    1.11      0.083071331
  5  -1381.993710095     -0.627499879     -0.000830712      0.000844038    1.11      0.090926491
  6  -1381.993841119     -0.627630903     -0.000131024      0.000275057    1.15      0.093220148
  7  -1381.993859376     -0.627649160     -0.000018257      0.000067783    1.15      0.094135830
  8  -1381.993870661     -0.627660445     -0.000011285      0.000027073    1.12      0.094261741
  9  -1381.993869831     -0.627659615      0.000000830      0.000020356    1.13      0.094270526
 10  -1381.993868584     -0.627658368      0.000001247      0.000010846    1.13      0.094252432
 11  -1381.993869748     -0.627659532     -0.000001164      0.000004427    1.12      0.094238459
 12  -1381.993868758     -0.627658541      0.000000991      0.000001748    1.10      0.094232677
 13  -1381.993868697     -0.627658481      0.000000060      0.000000476    1.13      0.094227659
               --- The Coupled-Cluster iterations have converged ---

----------------------
COUPLED CLUSTER ENERGY
----------------------

E(0)                                       ...  -1381.366210216
E(CORR)                                    ...     -0.627658481
E(TOT)                                     ...  -1381.993868697
Singles norm <S|S>**1/2                    ...      0.094227659 ( 0.062381718, 0.031845941)  
T1 diagnostic                              ...      0.022853564                              

------------------
LARGEST AMPLITUDES
------------------
  14a-> 18a  -1a-> -1a       0.065765
  14a-> 27a  -1a-> -1a       0.040361
   9b-> 22b  -1b-> -1b       0.031993
  10b-> 24b  -1b-> -1b       0.029977
  11b-> 23b  -1b-> -1b       0.027713
  11b-> 33b  -1b-> -1b       0.023860
  11a-> 24a  -1a-> -1a       0.023486
   9b-> 31b  -1b-> -1b       0.023205
  10b-> 32b  -1b-> -1b       0.022725
  10a-> 23a  -1a-> -1a       0.021116
   9a-> 22a  -1a-> -1a       0.021116
  12a-> 25a  -1a-> -1a       0.019884
  13a-> 26a  -1a-> -1a       0.019339
  12a-> 34a  -1a-> -1a       0.018044
  10b-> 23b  -1b-> -1b       0.017957
  13a-> 35a  -1a-> -1a       0.017763

----------------------
UHF TRIPLES CORRECTION (Algorithm 1)
----------------------

Multiplier for the singles contribution    ...      1.000000000

SPIN-CASE Alpha-Alpha-Alpha:
10% done
20% done
30% done
40% done
50% done
60% done
70% done
80% done
90% done


SPIN-CASE Beta-Beta-Beta:
10% done
20% done
30% done
40% done
50% done
60% done
70% done
80% done
90% done


SPIN-CASE Alpha-Alpha-Beta:
10% done
20% done
30% done
40% done
50% done
60% done
70% done
80% done
90% done


SPIN-CASE Beta-Beta-Alpha:
10% done
20% done
30% done
40% done
50% done
60% done
70% done
80% done
90% done


Triples Correction (T)                     ...     -0.022167059
    alpha-alpha-alpha ... -0.001925145 (  8.7%)
    alpha-alpha-beta  ... -0.012812119 ( 57.8%)
    alpha-beta -beta  ... -0.007088317 ( 32.0%)
    beta -beta -beta  ... -0.000341479 (  1.5%)
Scaling of triples based on CCSD energies (Peterson et al. Molecular Physics 113, 1551 (2015))
E(T*) = f*E(T) where f = E(F12-CCSD)/E(CCSD) 
f = CCSD (with F12)/ CCSD (without F12)    ...      1.000000000
Scaled triples correction (T)              ...     -0.022167059

Final correlation energy                   ...     -0.649825540
E(CCSD)                                    ...  -1381.993868697
E(CCSD(T))                                 ...  -1382.016035757



        !!!!!!!!!!!!!!!!!!!!!!!!!!!!!!!!!!!!!!!!!!!!!!!!!!!!!!!!!!!!!!!!!!!!!!!!!! 
        !  Warning: Densities are linearized densities                           !
        !!!!!!!!!!!!!!!!!!!!!!!!!!!!!!!!!!!!!!!!!!!!!!!!!!!!!!!!!!!!!!!!!!!!!!!!!! 

NORM  =      1.110695761 sqrt=     1.053895517
W(HF) =      0.900336559
------------------------------------------------------------------------------
                           ORCA POPULATION ANALYSIS
------------------------------------------------------------------------------
Input electron density              ... 67_Co.mdcip
Input spin density                  ... 67_Co.mdcir
BaseName (.gbw .S,...)              ... 67_Co

                    ********************************
                    * MULLIKEN POPULATION ANALYSIS *
                    ********************************

------------------------------------------
MULLIKEN ATOMIC CHARGES AND SPIN DENSITIES
------------------------------------------
   0 Co:   -0.000000    3.000000
Sum of atomic charges       :   -0.0000000
Sum of atomic spin densities:    3.0000000

---------------------------------------------------
MULLIKEN REDUCED ORBITAL CHARGES AND SPIN DENSITIES
---------------------------------------------------
CHARGE
  0 Cos       :     6.986199  s :     6.986199
      pz      :     4.002916  p :    12.008748
      px      :     4.002916
      py      :     4.002916
      dz2     :     1.001329  d :     7.961691
      dxz     :     1.986344
      dyz     :     1.986344
      dx2y2   :     1.001329
      dxy     :     1.986344
      f0      :     0.004999  f :     0.038682
      f+1     :     0.005404
      f-1     :     0.005404
      f+2     :     0.005647
      f-2     :     0.006743
      f+3     :     0.005242
      f-3     :     0.005242
      g0      :     0.000482  g :     0.004680
      g+1     :     0.000501
      g-1     :     0.000501
      g+2     :     0.000514
      g-2     :     0.000573
      g+3     :     0.000563
      g-3     :     0.000563
      g+4     :     0.000491
      g-4     :     0.000491

SPIN
  0 Cos       :     0.985867  s :     0.985867
      pz      :     0.005269  p :     0.015808
      px      :     0.005269
      py      :     0.005269
      dz2     :     0.989118  d :     1.990867
      dxz     :     0.004211
      dyz     :     0.004211
      dx2y2   :     0.989118
      dxy     :     0.004211
      f0      :     0.001546  f :     0.006481
      f+1     :     0.001075
      f-1     :     0.001075
      f+2     :     0.000791
      f-2     :    -0.000532
      f+3     :     0.001263
      f-3     :     0.001263
      g0      :     0.000136  g :     0.000977
      g+1     :     0.000126
      g-1     :     0.000126
      g+2     :     0.000135
      g-2     :     0.000054
      g+3     :     0.000065
      g-3     :     0.000065
      g+4     :     0.000136
      g-4     :     0.000136


                     *******************************
                     * LOEWDIN POPULATION ANALYSIS *
                     *******************************

-----------------------------------------
LOEWDIN ATOMIC CHARGES AND SPIN DENSITIES
-----------------------------------------
   0 Co:   -0.000000    3.000000

--------------------------------------------------
LOEWDIN REDUCED ORBITAL CHARGES AND SPIN DENSITIES
--------------------------------------------------
CHARGE
  0 Cos       :     6.986199  s :     6.986199
      pz      :     4.002916  p :    12.008748
      px      :     4.002916
      py      :     4.002916
      dz2     :     1.001329  d :     7.961691
      dxz     :     1.986344
      dyz     :     1.986344
      dx2y2   :     1.001329
      dxy     :     1.986344
      f0      :     0.004999  f :     0.038682
      f+1     :     0.005404
      f-1     :     0.005404
      f+2     :     0.005647
      f-2     :     0.006743
      f+3     :     0.005242
      f-3     :     0.005242
      g0      :     0.000482  g :     0.004680
      g+1     :     0.000501
      g-1     :     0.000501
      g+2     :     0.000514
      g-2     :     0.000573
      g+3     :     0.000563
      g-3     :     0.000563
      g+4     :     0.000491
      g-4     :     0.000491

SPIN
  0 Cos       :     0.985867  s :     0.985867
      pz      :     0.005269  p :     0.015808
      px      :     0.005269
      py      :     0.005269
      dz2     :     0.989118  d :     1.990867
      dxz     :     0.004211
      dyz     :     0.004211
      dx2y2   :     0.989118
      dxy     :     0.004211
      f0      :     0.001546  f :     0.006481
      f+1     :     0.001075
      f-1     :     0.001075
      f+2     :     0.000791
      f-2     :    -0.000532
      f+3     :     0.001263
      f-3     :     0.001263
      g0      :     0.000136  g :     0.000977
      g+1     :     0.000126
      g-1     :     0.000126
      g+2     :     0.000135
      g-2     :     0.000054
      g+3     :     0.000065
      g-3     :     0.000065
      g+4     :     0.000136
      g-4     :     0.000136


                      *****************************
                      * MAYER POPULATION ANALYSIS *
                      *****************************

  NA   - Mulliken gross atomic population
  ZA   - Total nuclear charge
  QA   - Mulliken gross atomic charge
  VA   - Mayer's total valence
  BVA  - Mayer's bonded valence
  FA   - Mayer's free valence

  ATOM       NA         ZA         QA         VA         BVA        FA
  0 Co    27.0000    27.0000    -0.0000     3.6413     0.0000     3.6413





------------------------------------------------------------------------------- 
                                     TIMINGS                                   
------------------------------------------------------------------------------- 


Total execution time                   ...       20.343 sec

Fock Matrix Formation                  ...        0.491 sec (  2.4%)
Initial Guess                          ...        0.025 sec (  0.1%)
DIIS Solver                            ...        0.906 sec (  4.5%)
State Vector Update                    ...        0.044 sec (  0.2%)
Sigma-vector construction              ...       14.482 sec ( 71.2%)
  <0|H|D>                              ...        0.003 sec (  0.0% of sigma)
  <D|H|D>(0-ext Fock)                  ...        0.016 sec (  0.1% of sigma)
  <D|H|D>(0-ext)                       ...        0.057 sec (  0.4% of sigma)
  <D|H|D>(2-ext Fock)                  ...        0.005 sec (  0.0% of sigma)
  <D|H|D>(2-ext)                       ...        0.212 sec (  1.5% of sigma)
  <D|H|D>(4-ext)                       ...        6.042 sec ( 41.7% of sigma)
  <S|H|0>                              ...        0.415 sec (  2.9% of sigma)
  <S|H|S>                              ...        0.002 sec (  0.0% of sigma)
  <S|H|D>(1-ext)                       ...        0.004 sec (  0.0% of sigma)
  <D|H|S>(1-ext)                       ...        0.075 sec (  0.5% of sigma)
  Fock-dressing                        ...        4.973 sec ( 34.3% of sigma)
  (ik|jl)-dressing                     ...        0.071 sec (  0.5% of sigma)
  (ij|ab),(ia|jb)-dressing             ...        2.081 sec ( 14.4% of sigma)
  Pair energies                        ...        0.003 sec (  0.0% of sigma)
Total Time for computing (T)           ...        1.364 sec (  6.7% of ALL)
  I/O of integral and amplitudes       ...        0.295 sec ( 21.6% of (T))
  External N**7 contributions          ...        0.380 sec ( 27.9% of (T))
  Internal N**7 contributions          ...        0.191 sec ( 14.0% of (T))
  N**6 triples energy contributions    ...        0.464 sec ( 34.0% of (T))


-------------------
EXTRAPOLATED ENERGY
-------------------


-----------------------------------------------------------------
                      EP1 - MDCI extrapolation:
-----------------------------------------------------------------
NOTE: We use as reference SCF energy, for the extrapolation, the one from the MDCI module and not the one 
from the SCF calculation. In case the first step is a DFT calculation these two might be different.

NOTE: For the SCF part we extrapolate based on the scheme proposed in J. Chem. Phys. 2008, 129, 184116
using the exponents from J. Chem. Theory Comput., 7, 33-43 (2011)

NOTE: For the correlation part we extrapolate based on the scheme proposed in J. Chem. Phys. 1997, 106, 9639
using the exponents from J. Chem. Theory Comput., 7, 33-43 (2011)


Alpha(3/4)     :  7.880 (SCF Extrapolation)
Beta(3/4)      :  2.970 (correlation extrapolation)

SCF energy with basis def2-TZVPP:                     -1381.337719239
SCF energy with basis def2-QZVPP:                     -1381.366210216
Extrapolated CBS SCF energy (3/4) :                   -1381.370134526 (-0.003924310) 

MDCI energy with basis def2-TZVPP:                       -0.622871308
MDCI energy with basis def2-QZVPP:                       -0.649825540
Extrapolated CBS correlation energy (3/4) :              -0.669791623 (-0.019966083)

Estimated CBS total energy (3/4) :                    -1382.039926150



-------------------------   --------------------
FINAL SINGLE POINT ENERGY     -1382.039926149661
-------------------------   --------------------


                            ***************************************
                            *     ORCA property calculations      *
                            ***************************************

                                    ---------------------
                                    Active property flags
                                    ---------------------
   (+) Dipole Moment


------------------------------------------------------------------------------
                       ORCA ELECTRIC PROPERTIES CALCULATION
------------------------------------------------------------------------------

Dipole Moment Calculation                       ... on
Quadrupole Moment Calculation                   ... off
Polarizability Calculation                      ... off
GBWName                                         ... 67_Co.gbw
Electron density file                           ... 67_Co.scfp
The origin for moment calculation is the CENTER OF MASS  = ( 0.000000,  0.000000  0.000000)

-------------
DIPOLE MOMENT
-------------
                                X             Y             Z
Electronic contribution:     -0.00000      -0.00000       0.00000
Nuclear contribution   :      0.00000       0.00000       0.00000
                        -----------------------------------------
Total Dipole Moment    :     -0.00000      -0.00000       0.00000
                        -----------------------------------------
Magnitude (a.u.)       :      0.00000
Magnitude (Debye)      :      0.00000



--------------------
Rotational spectrum 
--------------------
 
Rotational constants in cm-1:     0.000000     0.000000     0.000000 
Rotational constants in MHz :     0.000000     0.000000     0.000000 

 Dipole components along the rotational axes: 
x,y,z [a.u.] :    -0.000000    -0.000000     0.000000 
x,y,z [Debye]:    -0.000000    -0.000000     0.000000 

 

                           *** MDCI DENSITY ***

------------------------------------------------------------------------------
                       ORCA ELECTRIC PROPERTIES CALCULATION
------------------------------------------------------------------------------

Dipole Moment Calculation                       ... on
Quadrupole Moment Calculation                   ... off
Polarizability Calculation                      ... off
GBWName                                         ... 67_Co.gbw
Electron density file                           ... 67_Co.mdcip
The origin for moment calculation is the CENTER OF MASS  = ( 0.000000,  0.000000  0.000000)

-------------
DIPOLE MOMENT
-------------
                                X             Y             Z
Electronic contribution:      0.00000      -0.00000       0.00000
Nuclear contribution   :      0.00000       0.00000       0.00000
                        -----------------------------------------
Total Dipole Moment    :      0.00000      -0.00000       0.00000
                        -----------------------------------------
Magnitude (a.u.)       :      0.00000
Magnitude (Debye)      :      0.00000



--------------------
Rotational spectrum 
--------------------
 
Rotational constants in cm-1:     0.000000     0.000000     0.000000 
Rotational constants in MHz :     0.000000     0.000000     0.000000 

 Dipole components along the rotational axes: 
x,y,z [a.u.] :     0.000000    -0.000000     0.000000 
x,y,z [Debye]:     0.000000    -0.000000     0.000000 

 

Timings for individual modules:

Sum of individual times         ...       32.703 sec (=   0.545 min)
GTO integral calculation        ...        1.435 sec (=   0.024 min)   4.4 %
SCF iterations                  ...        5.479 sec (=   0.091 min)  16.8 %
MDCI module                     ...       25.788 sec (=   0.430 min)  78.9 %
                             ****ORCA TERMINATED NORMALLY****
TOTAL RUN TIME: 0 days 0 hours 0 minutes 33 seconds 579 msec
