
                                 *****************
                                 * O   R   C   A *
                                 *****************

           --- An Ab Initio, DFT and Semiempirical electronic structure package ---

                  #######################################################
                  #                        -***-                        #
                  #          Department of theory and spectroscopy      #
                  #               Directorship: Frank Neese             #
                  #        Max Planck Institute fuer Kohlenforschung    #
                  #                Kaiser Wilhelm Platz 1               #
                  #                 D-45470 Muelheim/Ruhr               #
                  #                      Germany                        #
                  #                                                     #
                  #                  All rights reserved                #
                  #                        -***-                        #
                  #######################################################


                         Program Version 4.2.0 -  RELEASE  -


 With contributions from (in alphabetic order):
   Daniel Aravena         : Magnetic Suceptibility
   Michael Atanasov       : Ab Initio Ligand Field Theory (pilot matlab implementation)
   Alexander A. Auer      : GIAO ZORA, VPT2
   Ute Becker             : Parallelization
   Giovanni Bistoni       : ED, misc. LED, open-shell LED, HFLED
   Martin Brehm           : Molecular dynamics
   Dmytro Bykov           : SCF Hessian
   Vijay G. Chilkuri      : MRCI spin determinant printing, contributions to CSF-ICE
   Dipayan Datta          : RHF DLPNO-CCSD density
   Achintya Kumar Dutta   : EOM-CC, STEOM-CC
   Dmitry Ganyushin       : Spin-Orbit,Spin-Spin,Magnetic field MRCI
   Miquel Garcia          : C-PCM Hessian, Gaussian charge scheme
   Yang Guo               : DLPNO-NEVPT2, CIM, IAO-localization
   Andreas Hansen         : Spin unrestricted coupled pair/coupled cluster methods
   Benjamin Helmich-Paris : CASSCF linear response (MC-RPA)
   Lee Huntington         : MR-EOM, pCC
   Robert Izsak           : Overlap fitted RIJCOSX, COSX-SCS-MP3, EOM
   Christian Kollmar      : KDIIS, OOCD, Brueckner-CCSD(T), CCSD density
   Simone Kossmann        : Meta GGA functionals, TD-DFT gradient, OOMP2, MP2 Hessian
   Martin Krupicka        : AUTO-CI
   Lucas Lang             : DCDCAS
   Dagmar Lenk            : GEPOL surface, SMD
   Dimitrios Liakos       : Extrapolation schemes; Compound Job, initial MDCI parallelization
   Dimitrios Manganas     : Further ROCIS development; embedding schemes
   Dimitrios Pantazis     : SARC Basis sets
   Taras Petrenko         : DFT Hessian,TD-DFT gradient, ASA, ECA, R-Raman, ABS, FL, XAS/XES, NRVS
   Peter Pinski           : DLPNO-MP2, DLPNO-MP2 Gradient
   Christoph Reimann      : Effective Core Potentials
   Marius Retegan         : Local ZFS, SOC
   Christoph Riplinger    : Optimizer, TS searches, QM/MM, DLPNO-CCSD(T), (RO)-DLPNO pert. Triples
   Tobias Risthaus        : Range-separated hybrids, TD-DFT gradient, RPA, STAB
   Michael Roemelt        : Original ROCIS implementation
   Masaaki Saitow         : Open-shell DLPNO-CCSD energy and density
   Barbara Sandhoefer     : DKH picture change effects
   Avijit Sen             : IP-ROCIS
   Kantharuban Sivalingam : CASSCF convergence, NEVPT2, FIC-MRCI
   Bernardo de Souza      : ESD, SOC TD-DFT
   Georgi Stoychev        : AutoAux, RI-MP2 NMR
   Willem Van den Heuvel  : Paramagnetic NMR
   Boris Wezisla          : Elementary symmetry handling
   Frank Wennmohs         : Technical directorship


 We gratefully acknowledge several colleagues who have allowed us to
 interface, adapt or use parts of their codes:
   Stefan Grimme, W. Hujo, H. Kruse,             : VdW corrections, initial TS optimization,
                  C. Bannwarth                     DFT functionals, gCP, sTDA/sTD-DF
   Ed Valeev, F. Pavosevic, A. Kumar             : LibInt (2-el integral package), F12 methods
   Garnet Chan, S. Sharma, J. Yang, R. Olivares  : DMRG
   Ulf Ekstrom                                   : XCFun DFT Library
   Mihaly Kallay                                 : mrcc  (arbitrary order and MRCC methods)
   Andreas Klamt, Michael Diedenhofen            : otool_cosmo (COSMO solvation model)
   Jiri Pittner, Ondrej Demel                    : Mk-CCSD
   Frank Weinhold                                : gennbo (NPA and NBO analysis)
   Christopher J. Cramer and Donald G. Truhlar   : smd solvation model
   Lars Goerigk                                  : TD-DFT with DH, B97 family of functionals
   V. Asgeirsson, H. Jonsson                     : NEB implementation
   FAccTs GmbH                                   : IRC, NEB, NEB-TS, Multilevel, MM, QM/MM, CI optimization
   S Lehtola, MJT Oliveira, MAL Marques          : LibXC Library


 Your calculation uses the libint2 library for the computation of 2-el integrals
 For citations please refer to: http://libint.valeyev.net

 Your ORCA version has been built with support for libXC version: 4.2.3
 For citations please refer to: https://tddft.org/programs/libxc/

 This ORCA versions uses:
   CBLAS   interface :  Fast vector & matrix operations
   LAPACKE interface :  Fast linear algebra routines
   SCALAPACK package :  Parallel linear algebra routines


----- Orbital basis set information -----
Your calculation utilizes the basis: def2-TZVPP
   F. Weigend and R. Ahlrichs, Phys. Chem. Chem. Phys. 7, 3297 (2005).

================================================================================
                                        WARNINGS
                       Please study these warnings very carefully!
================================================================================


WARNING: your system is open-shell and RHF/RKS was chosen
  ===> : WILL SWITCH to UHF/UKS


WARNING: MDCI localization with Augmented Hessian Foster-Boys
  ===> : Switching off randomization!

WARNING: Post HF methods need fully converged wavefunctions
  ===> : Setting SCFConvForced true
         You can overwrite this default with %scf ConvForced false 


INFO   : the flag for use of LIBINT has been found!

================================================================================
                                       INPUT FILE
================================================================================
NAME = 68_Ni.in
|  1> #
|  2> # 68_Ni ccsd(t)/cbs
|  3> #
|  4> ! ccsd(t) extrapolate(3/4,def2) verytightscf nrscf kdiis
|  5> 
|  6> *xyz 0 3
|  7> Ni 0.0 0.0 0.0
|  8> *
|  9> 
| 10> %maxcore 5000
| 11> 
| 12> %pal
| 13> nprocs 24
| 14> end
| 15> 
| 16> 
| 17>                          ****END OF INPUT****
================================================================================

                   *****************************************
                   * Extrapolated Single Point Calculation *
                   *****************************************

----- Orbital basis set information -----
Your calculation utilizes the basis: def2-TZVPP
   F. Weigend and R. Ahlrichs, Phys. Chem. Chem. Phys. 7, 3297 (2005).

----- AuxJ basis set information -----
Your calculation utilizes the auxiliary basis: def2/J
   F. Weigend, Phys. Chem. Chem. Phys. 8, 1057 (2006).

----- AuxC basis set information -----
Your calculation utilizes the auxiliary basis: def2-TZVPP/C
  H-La, Hf-Rn : A. Hellweg, C. Hattig, S. Hofener and W. Klopper, Theor. Chem. Acc. 117, 587 (2007).
        Ce-Lu : J. Chmela and M. E. Harding, Mol. Phys. (2018).

----- AuxJK basis set information -----
Your calculation utilizes the auxiliary basis: def2/JK
   H-Ba, Hf-Rn: F. Weigend, J. Comput. Chem. 29, 167 (2008).

All done

                     -----------------------------------------
                     Extrapolated Energy 1 Basis=  def2-TZVPP
                     -----------------------------------------

---------------------------------
CARTESIAN COORDINATES (ANGSTROEM)
---------------------------------
  Ni     0.000000    0.000000    0.000000

----------------------------
CARTESIAN COORDINATES (A.U.)
----------------------------
  NO LB      ZA    FRAG     MASS         X           Y           Z
   0 Ni   28.0000    0    58.700    0.000000    0.000000    0.000000

--------------------------------
INTERNAL COORDINATES (ANGSTROEM)
--------------------------------
 Ni     0   0   0     0.000000000000     0.00000000     0.00000000

---------------------------
INTERNAL COORDINATES (A.U.)
---------------------------
 Ni     0   0   0     0.000000000000     0.00000000     0.00000000

---------------------
BASIS SET INFORMATION
---------------------
There are 1 groups of distinct atoms

 Group   1 Type Ni  : 17s12p7d2f1g contracted to 6s5p4d2f1g pattern {842111/63111/4111/11/1}

Atom   0Ni   basis set group =>   1
---------------------------------
AUXILIARY/J BASIS SET INFORMATION
---------------------------------
There are 1 groups of distinct atoms

 Group   1 Type Ni  : 19s5p5d3f3g contracted to 8s5p5d2f3g pattern {121111111/11111/11111/21/111}

Atom   0Ni   basis set group =>   1
---------------------------------
AUXILIARY/C BASIS SET INFORMATION
---------------------------------
There are 1 groups of distinct atoms

 Group   1 Type Ni  : 9s9p8d7f5g3h1i contracted to 9s9p8d7f5g3h1i pattern {111111111/111111111/11111111/1111111/11111/111/1}

Atom   0Ni   basis set group =>   1
----------------------------------
AUXILIARY/JK BASIS SET INFORMATION
----------------------------------
There are 1 groups of distinct atoms

 Group   1 Type Ni  : 19s14p12d10f7g3h1i contracted to 16s13p11d9f5g3h1i pattern {4111111111111111/2111111111111/21111111111/211111111/31111/111/1}

Atom   0Ni   basis set group =>   1


           ************************************************************
           *        Program running with 24 parallel MPI-processes    *
           *              working on a common directory               *
           ************************************************************
------------------------------------------------------------------------------
                           ORCA GTO INTEGRAL CALCULATION
------------------------------------------------------------------------------

                         BASIS SET STATISTICS AND STARTUP INFO

 # of primitive gaussian shells          ...   39
 # of primitive gaussian functions       ...  111
 # of contracted shells                  ...   18
 # of contracted basis functions         ...   64
 Highest angular momentum                ...    4
 Maximum contraction depth               ...    8
 Integral package used                   ... LIBINT
 Integral threshhold            Thresh   ...  1.000e-12
 Primitive cut-off              TCut     ...  1.000e-14


------------------------------ INTEGRAL EVALUATION ----------------------------


 * One electron integrals 
 Pre-screening matrix                    ... done
 Shell pair data                         ... done (   0.000 sec)



           ************************************************************
           *        Program running with 24 parallel MPI-processes    *
           *              working on a common directory               *
           ************************************************************
-------------------------------------------------------------------------------
                                 ORCA SCF
-------------------------------------------------------------------------------

------------
SCF SETTINGS
------------
Hamiltonian:
 Ab initio Hamiltonian  Method          .... Hartree-Fock(GTOs)


General Settings:
 Integral files         IntName         .... 68_Ni
 Hartree-Fock type      HFTyp           .... UHF
 Total Charge           Charge          ....    0
 Multiplicity           Mult            ....    3
 Number of Electrons    NEL             ....   28
 Basis Dimension        Dim             ....   64
 Nuclear Repulsion      ENuc            ....      0.0000000000 Eh

Convergence Acceleration:
 DIIS                   CNVDIIS         .... off
 Newton-Raphson         CNVNR           .... on
   Start iteration      NRMaxIt         ....   150
   Startup grad/error   NRStart         ....  0.003300
 SOSCF                  CNVSOSCF        .... off
 Level Shifting         CNVShift        .... off
 Zerner damping         CNVZerner       .... off
 Static damping         CNVDamp         .... off
 Fernandez-Rico         CNVRico         .... off

SCF Procedure:
 Maximum # iterations   MaxIter         ....   125
 SCF integral mode      SCFMode         .... Direct
   Integral package                     .... LIBINT
 Reset frequency        DirectResetFreq ....    20
 Integral Threshold     Thresh          ....  1.000e-12 Eh
 Primitive CutOff       TCut            ....  1.000e-14 Eh

Convergence Tolerance:
 Convergence Check Mode ConvCheckMode   .... Total+1el-Energy
 Convergence forced     ConvForced      .... 1
 Energy Change          TolE            ....  1.000e-09 Eh
 1-El. energy change                    ....  1.000e-06 Eh
 Orbital Gradient       TolG            ....  2.000e-06
 Orbital Rotation angle TolX            ....  2.000e-06


Diagonalization of the overlap matrix:
Smallest eigenvalue                        ... 5.720e-02
Time for diagonalization                   ...    0.002 sec
Threshold for overlap eigenvalues          ... 1.000e-08
Number of eigenvalues below threshold      ... 0
Time for construction of square roots      ...    0.001 sec
Total time needed                          ...    0.004 sec

-------------------
DFT GRID GENERATION
-------------------

General Integration Accuracy     IntAcc      ...  4.340
Radial Grid Type                 RadialGrid  ... Gauss-Chebyshev
Angular Grid (max. acc.)         AngularGrid ... Lebedev-110
Angular grid pruning method      GridPruning ... 3 (G Style)
Weight generation scheme         WeightScheme... Becke
Basis function cutoff            BFCut       ...    1.0000e-12
Integration weight cutoff        WCut        ...    1.0000e-14
Grids for H and He will be reduced by one unit

# of grid points (after initial pruning)     ...   2912 (   0.0 sec)
# of grid points (after weights+screening)   ...   2912 (   0.0 sec)
Grid point division into batches done        ...    0.0 sec
Reduced shell lists constructed in    0.0 sec

Total number of grid points                  ...     2912
Total number of batches                      ...       46
Average number of points per batch           ...       63
Average number of grid points per atom       ...     2912
Average number of shells per batch           ...     4.00 (22.22%)
Average number of basis functions per batch  ...    12.00 (18.75%)
Average number of large shells per batch     ...     4.00 (100.00%)
Average number of large basis fcns per batch ...    12.00 (100.00%)
Maximum spatial batch extension              ...  17.39, 26.34, 26.34 au
Average spatial batch extension              ...   0.76,  1.15,  1.15 au

Time for grid setup =    0.021 sec

------------------------------
INITIAL GUESS: MODEL POTENTIAL
------------------------------
Loading Hartree-Fock densities                     ... done
Calculating cut-offs                               ... done
Setting up the integral package                    ... done
Initializing the effective Hamiltonian             ... done
Starting the Coulomb interaction                   ... done (   0.0 sec)
Reading the grid                                   ... done
Mapping shells                                     ... done
Starting the XC term evaluation                    ... done (   0.0 sec)
Transforming the Hamiltonian                       ... done (   0.0 sec)
Diagonalizing the Hamiltonian                      ... done (   0.0 sec)
Back transforming the eigenvectors                 ... done (   0.0 sec)
Now organizing SCF variables                       ... done
                      ------------------
                      INITIAL GUESS DONE (   0.1 sec)
                      ------------------
--------------
SCF ITERATIONS
--------------
ITER       Energy         Delta-E        Max-DP      RMS-DP      [F,P]   Gradient Norm
               ***  Starting incremental Fock matrix formation  ***
                             ****Resetting KDIIS****
                             ****Turning on KDIIS(Cayley)****
  0  -1506.7474656599   0.000000000000 0.03412777  0.00052175  0.2048473   0.124649151
  1  -1506.7619566218  -0.014490961852 0.05770889  0.00081972  0.1880422   0.105841067
  2  -1506.7730925091  -0.011135887323 0.14055367  0.00208298  0.1514704   0.085415351
  3  -1506.7880046986  -0.014912189493 0.22578604  0.00341094  0.0896911   0.051987363
                      *** Initiating the Newton-Raphson procedure ***
                      *** Removing any level shift *** 
ITER      Energy       Delta-E        Grad      Rot      Max-DP    RMS-DP
  4  -1506.79735515  -0.0093504549  0.001602  0.000000  0.001642  0.000025
     CP-SCF ITERATION   0: 
     CP-SCF ITERATION   1:      0.000000267413
     CP-SCF ITERATION   2:      0.000000025658
     CP-SCF ITERATION   3:      0.000000006093
     CP-SCF ITERATION   4:      0.000000014483
     CP-SCF ITERATION   5:      0.000016541145
     CP-SCF ITERATION   6:      0.000000083179
     CP-SCF ITERATION   7:      0.000000005819
     CP-SCF ITERATION   8:      0.000000000607
  5  -1506.79736274  -0.0000075818  0.004459  0.004908  0.003121  0.000061
     CP-SCF ITERATION   0: 
     CP-SCF ITERATION   1:      0.000000018244
     CP-SCF ITERATION   2:      0.000000006209
     CP-SCF ITERATION   3:      0.000000002040
     CP-SCF ITERATION   4:      0.000000000641
  6  -1506.79737686  -0.0000141211  0.000738  0.001062  0.000506  0.000012
     CP-SCF ITERATION   0: 
     CP-SCF ITERATION   1:      0.000000001307
     CP-SCF ITERATION   2:      0.000000006140
     CP-SCF ITERATION   3:      0.000000013633
     CP-SCF ITERATION   4:      0.000000076203
     CP-SCF ITERATION   5:      0.000003739751
     CP-SCF ITERATION   6:      0.000000040205
     CP-SCF ITERATION   7:      0.000000003712
     CP-SCF ITERATION   8:      0.000000001028
     CP-SCF ITERATION   9:      0.000000000243
  7  -1506.79737721  -0.0000003513  0.000263  0.105644  0.035154  0.000793
     CP-SCF ITERATION   0: 
     CP-SCF ITERATION   1:      0.000000012580
     CP-SCF ITERATION   2:      0.000000000567
  8  -1506.79737286   0.0000043506  0.003751  0.000935  0.000198  0.000008
     CP-SCF ITERATION   0: 
     CP-SCF ITERATION   1:      0.000000000356
  9  -1506.79737460  -0.0000017465  0.000180  0.000057  0.000019  0.000001
     CP-SCF ITERATION   0: 
     CP-SCF ITERATION   1:      0.000000000634
 10  -1506.79737461  -0.0000000027  0.000103  0.000073  0.000022  0.000001
     CP-SCF ITERATION   0: 
     CP-SCF ITERATION   1:      0.000000000267
 11  -1506.79737460   0.0000000027  0.000247  0.000042  0.000011  0.000000
     CP-SCF ITERATION   0: 
     CP-SCF ITERATION   1:      0.000000000851
 12  -1506.79737461  -0.0000000044  0.000100  0.000082  0.000025  0.000001
     CP-SCF ITERATION   0: 
     CP-SCF ITERATION   1:      0.000000000202
 13  -1506.79737460   0.0000000043  0.000294  0.000040  0.000008  0.000000
     CP-SCF ITERATION   0: 
     CP-SCF ITERATION   1:      0.000000001258
     CP-SCF ITERATION   2:      0.000000083202
     CP-SCF ITERATION   3:      0.000000007662
     CP-SCF ITERATION   4:      0.000000000538
 14  -1506.79737461  -0.0000000063  0.000088  0.124075  0.037998  0.000910
     CP-SCF ITERATION   0: 
     CP-SCF ITERATION   1:      0.000000019766
     CP-SCF ITERATION   2:      0.000000000644
 15  -1506.79737064   0.0000039738  0.005061  0.001237  0.000250  0.000011
     CP-SCF ITERATION   0: 
     CP-SCF ITERATION   1:      0.000000000090
 16  -1506.79737383  -0.0000031929  0.000227  0.000044  0.000011  0.000000
     CP-SCF ITERATION   0: 
     CP-SCF ITERATION   1:      0.000000000037
 17  -1506.79737383  -0.0000000045  0.000059  0.000019  0.000005  0.000000
     CP-SCF ITERATION   0: 
     CP-SCF ITERATION   1:      0.000000000044
 18  -1506.79737383  -0.0000000002  0.000054  0.000015  0.000004  0.000000
     CP-SCF ITERATION   0: 
     CP-SCF ITERATION   1:      0.000000000040
 19  -1506.79737383  -0.0000000001  0.000047  0.000016  0.000004  0.000000
               *** Restarting incremental Fock matrix formation ***
     CP-SCF ITERATION   0: 
     CP-SCF ITERATION   1:      0.000000000034
 20  -1506.79737383   0.0000000000  0.000059  0.000013  0.000003  0.000000
     CP-SCF ITERATION   0: 
     CP-SCF ITERATION   1:      0.000000000049
 21  -1506.79737383  -0.0000000002  0.000043  0.000018  0.000005  0.000000
     CP-SCF ITERATION   0: 
     CP-SCF ITERATION   1:      0.000000000029
 22  -1506.79737383   0.0000000001  0.000067  0.000012  0.000002  0.000000
     CP-SCF ITERATION   0: 
     CP-SCF ITERATION   1:      0.000000000061
 23  -1506.79737383  -0.0000000003  0.000039  0.000021  0.000005  0.000000
     CP-SCF ITERATION   0: 
     CP-SCF ITERATION   1:      0.000000000025
 24  -1506.79737383   0.0000000002  0.000074  0.000012  0.000002  0.000000
     CP-SCF ITERATION   0: 
     CP-SCF ITERATION   1:      0.000000000076
 25  -1506.79737383  -0.0000000003  0.000036  0.000024  0.000006  0.000000
     CP-SCF ITERATION   0: 
     CP-SCF ITERATION   1:      0.000000000022
 26  -1506.79737383   0.0000000003  0.000082  0.000012  0.000002  0.000000
     CP-SCF ITERATION   0: 
     CP-SCF ITERATION   1:      0.000000000095
 27  -1506.79737383  -0.0000000004  0.000033  0.000028  0.000008  0.000000
     CP-SCF ITERATION   0: 
     CP-SCF ITERATION   1:      0.000000000020
 28  -1506.79737383   0.0000000004  0.000090  0.000012  0.000002  0.000000
     CP-SCF ITERATION   0: 
     CP-SCF ITERATION   1:      0.000000000123
 29  -1506.79737383  -0.0000000006  0.000030  0.000034  0.000010  0.000000
     CP-SCF ITERATION   0: 
     CP-SCF ITERATION   1:      0.000000000018
 30  -1506.79737383   0.0000000005  0.000099  0.000012  0.000002  0.000000
     CP-SCF ITERATION   0: 
     CP-SCF ITERATION   1:      0.000000000162
 31  -1506.79737383  -0.0000000007  0.000027  0.000042  0.000012  0.000000
     CP-SCF ITERATION   0: 
     CP-SCF ITERATION   1:      0.000000000017
 32  -1506.79737383   0.0000000006  0.000109  0.000013  0.000002  0.000000
     CP-SCF ITERATION   0: 
     CP-SCF ITERATION   1:      0.000000000224
 33  -1506.79737384  -0.0000000009  0.000025  0.000054  0.000016  0.000000
     CP-SCF ITERATION   0: 
     CP-SCF ITERATION   1:      0.000000000016
 34  -1506.79737383   0.0000000008  0.000122  0.000013  0.000002  0.000000
     CP-SCF ITERATION   0: 
     CP-SCF ITERATION   1:      0.000000000325
 35  -1506.79737384  -0.0000000011  0.000022  0.000074  0.000022  0.000001
     CP-SCF ITERATION   0: 
     CP-SCF ITERATION   1:      0.000000000015
 36  -1506.79737383   0.0000000010  0.000138  0.000014  0.000002  0.000000
     CP-SCF ITERATION   0: 
     CP-SCF ITERATION   1:      0.000000000508
 37  -1506.79737384  -0.0000000014  0.000020  0.000109  0.000032  0.000001
     CP-SCF ITERATION   0: 
     CP-SCF ITERATION   1:      0.000000000014
 38  -1506.79737383   0.0000000013  0.000159  0.000016  0.000003  0.000000
     CP-SCF ITERATION   0: 
     CP-SCF ITERATION   1:      0.000000000890
 39  -1506.79737384  -0.0000000019  0.000018  0.000181  0.000053  0.000001
               *** Restarting incremental Fock matrix formation ***
     CP-SCF ITERATION   0: 
     CP-SCF ITERATION   1:      0.000000000013
 40  -1506.79737383   0.0000000017  0.000190  0.000019  0.000004  0.000000
     CP-SCF ITERATION   0: 
     CP-SCF ITERATION   1:      0.000000001857
     CP-SCF ITERATION   2:      0.000000000087
 41  -1506.79737384  -0.0000000028  0.000015  0.023659  0.006874  0.000172
     CP-SCF ITERATION   0: 
     CP-SCF ITERATION   1:      0.000000000045
 42  -1506.79737375   0.0000000849  0.000215  0.000044  0.000010  0.000000
     CP-SCF ITERATION   0: 
     CP-SCF ITERATION   1:      0.000000000001
 43  -1506.79737376  -0.0000000045  0.000025  0.000007  0.000002  0.000000
     CP-SCF ITERATION   0: 
     CP-SCF ITERATION   1:      0.000000000002
 44  -1506.79737376  -0.0000000001  0.000010  0.000003  0.000001  0.000000
     CP-SCF ITERATION   0: 
     CP-SCF ITERATION   1:      0.000000000002
 45  -1506.79737376  -0.0000000000  0.000008  0.000004  0.000001  0.000000
     CP-SCF ITERATION   0: 
     CP-SCF ITERATION   1:      0.000000000001
 46  -1506.79737376   0.0000000000  0.000015  0.000002  0.000001  0.000000
     CP-SCF ITERATION   0: 
     CP-SCF ITERATION   1:      0.000000000005
 47  -1506.79737376  -0.0000000000  0.000006  0.000008  0.000002  0.000000
     CP-SCF ITERATION   0: 
     CP-SCF ITERATION   1:      0.000000000001
 48  -1506.79737376   0.0000000000  0.000024  0.000002  0.000001  0.000000
     CP-SCF ITERATION   0: 
     CP-SCF ITERATION   1:      0.000000000059
 49  -1506.79737376  -0.0000000000  0.000004  0.000071  0.000022  0.000001
     CP-SCF ITERATION   0: 
     CP-SCF ITERATION   1:      0.000000000001
 50  -1506.79737376   0.0000000001  0.000060  0.000005  0.000001  0.000000
     CP-SCF ITERATION   0: 
     CP-SCF ITERATION   1:      0.000000000095
 51  -1506.79737376  -0.0000000002  0.000002  0.000071  0.000022  0.000001
     CP-SCF ITERATION   0: 
     CP-SCF ITERATION   1:      0.000000000001
 52  -1506.79737376   0.0000000000  0.000030  0.000007  0.000003  0.000000
     CP-SCF ITERATION   0: 
     CP-SCF ITERATION   1:      0.000000000003
 53  -1506.79737376  -0.0000000001  0.000012  0.000003  0.000001  0.000000
     CP-SCF ITERATION   0: 
     CP-SCF ITERATION   1:      0.000000000004
 54  -1506.79737376  -0.0000000000  0.000005  0.000007  0.000002  0.000000
     CP-SCF ITERATION   0: 
     CP-SCF ITERATION   1:      0.000000000001
 55  -1506.79737376   0.0000000000  0.000022  0.000002  0.000001  0.000000
     CP-SCF ITERATION   0: 
     CP-SCF ITERATION   1:      0.000000000007
 56  -1506.79737376  -0.0000000000  0.000003  0.000013  0.000004  0.000000
     CP-SCF ITERATION   0: 
     CP-SCF ITERATION   1:      0.000000000001
 57  -1506.79737376   0.0000000000  0.000031  0.000003  0.000001  0.000000
     CP-SCF ITERATION   0: 
     CP-SCF ITERATION   1:      0.000000000012
 58  -1506.79737376  -0.0000000001  0.000003  0.000022  0.000007  0.000000
     CP-SCF ITERATION   0: 
     CP-SCF ITERATION   1:      0.000000000001
 59  -1506.79737376   0.0000000001  0.000038  0.000003  0.000001  0.000000
               *** Restarting incremental Fock matrix formation ***
     CP-SCF ITERATION   0: 
     CP-SCF ITERATION   1:      0.000000000011
 60  -1506.79737376  -0.0000000001  0.000003  0.000024  0.000007  0.000000
     CP-SCF ITERATION   0: 
     CP-SCF ITERATION   1:      0.000000000001
 61  -1506.79737376   0.0000000000  0.000030  0.000004  0.000001  0.000000
     CP-SCF ITERATION   0: 
     CP-SCF ITERATION   1:      0.000000000004
 62  -1506.79737376  -0.0000000001  0.000008  0.000015  0.000004  0.000000
     CP-SCF ITERATION   0: 
     CP-SCF ITERATION   1:      0.000000000001
 63  -1506.79737376  -0.0000000000  0.000003  0.000006  0.000002  0.000000
                   <<< The NR Solver signals convergence >>>
                    *** KDIIS BlockDiag (32.201 sec) ***
              ***Rediagonalizing the Fockian in SOSCF/NRSCF***

               *****************************************************
               *                     SUCCESS                       *
               *           SCF CONVERGED AFTER  64 CYCLES          *
               *****************************************************


----------------
TOTAL SCF ENERGY
----------------

Total Energy       :        -1506.79737376 Eh          -41002.04104 eV

Components:
Nuclear Repulsion  :            0.00000000 Eh               0.00000 eV
Electronic Energy  :        -1506.79737376 Eh          -41002.04104 eV
One Electron Energy:        -2099.15647873 Eh          -57120.95176 eV
Two Electron Energy:          592.35910497 Eh           16118.91072 eV

Virial components:
Potential Energy   :        -3013.32216250 Eh          -81996.66467 eV
Kinetic Energy     :         1506.52478874 Eh           40994.62363 eV
Virial Ratio       :            2.00018094


---------------
SCF CONVERGENCE
---------------

  Last Energy change         ...   -1.3188e-11  Tolerance :   1.0000e-09
  Last MAX-Density change    ...    2.4510e-06  Tolerance :   1.0000e-08
  Last RMS-Density change    ...    6.0045e-08  Tolerance :   1.0000e-09
  Last Orbital Gradient      ...    1.4575e-06  Tolerance :   2.0000e-06
  Last Orbital Rotation      ...    5.7206e-06  Tolerance :   2.0000e-06

             **** THE GBW FILE WAS UPDATED (68_Ni.gbw) ****
             **** DENSITY FILE WAS UPDATED (68_Ni.scfp) ****
             **** ENERGY FILE WAS UPDATED (68_Ni.en.tmp) ****
----------------------
UHF SPIN CONTAMINATION
----------------------

Expectation value of <S**2>     :     2.000904
Ideal value S*(S+1) for S=1.0   :     2.000000
Deviation                       :     0.000904

             **** THE GBW FILE WAS UPDATED (68_Ni.gbw) ****
             **** DENSITY FILE WAS UPDATED (68_Ni.scfp) ****
----------------
ORBITAL ENERGIES
----------------
                 SPIN UP ORBITALS
  NO   OCC          E(Eh)            E(eV) 
   0   1.0000    -305.405326     -8310.5014 
   1   1.0000     -37.694092     -1025.7084 
   2   1.0000     -32.733792      -890.7318 
   3   1.0000     -32.733290      -890.7181 
   4   1.0000     -32.696940      -889.7290 
   5   1.0000      -4.706263      -128.0639 
   6   1.0000      -3.145932       -85.6052 
   7   1.0000      -3.144833       -85.5753 
   8   1.0000      -3.066222       -83.4361 
   9   1.0000      -0.548536       -14.9264 
  10   1.0000      -0.492364       -13.3979 
  11   1.0000      -0.462663       -12.5897 
  12   1.0000      -0.462243       -12.5783 
  13   1.0000      -0.451665       -12.2904 
  14   1.0000      -0.236332        -6.4309 
  15   0.0000       0.110191         2.9985 
  16   0.0000       0.110327         3.0022 
  17   0.0000       0.119891         3.2624 
  18   0.0000       0.255336         6.9480 
  19   0.0000       0.313481         8.5303 
  20   0.0000       0.316985         8.6256 
  21   0.0000       0.321264         8.7420 
  22   0.0000       0.321324         8.7437 
  23   0.0000       0.322895         8.7864 
  24   0.0000       0.740193        20.1417 
  25   0.0000       0.740462        20.1490 
  26   0.0000       0.759955        20.6794 
  27   0.0000       1.289588        35.0915 
  28   0.0000       1.307170        35.5699 
  29   0.0000       1.320802        35.9408 
  30   0.0000       1.320993        35.9460 
  31   0.0000       1.325822        36.0775 
  32   0.0000       3.274082        89.0923 
  33   0.0000       3.274773        89.1111 
  34   0.0000       3.319778        90.3358 
  35   0.0000       3.416411        92.9653 
  36   0.0000       3.416488        92.9674 
  37   0.0000       3.436161        93.5027 
  38   0.0000       3.455942        94.0410 
  39   0.0000       3.461700        94.1976 
  40   0.0000       3.461864        94.2021 
  41   0.0000       3.464974        94.2867 
  42   0.0000       3.536725        96.2392 
  43   0.0000       4.706670       128.0750 
  44   0.0000       4.744169       129.0954 
  45   0.0000       4.767893       129.7410 
  46   0.0000       4.768223       129.7500 
  47   0.0000       4.777186       129.9938 
  48   0.0000      12.183113       331.5194 
  49   0.0000      12.184721       331.5631 
  50   0.0000      12.216486       332.4275 
  51   0.0000      12.216881       332.4382 
  52   0.0000      12.227991       332.7406 
  53   0.0000      12.256514       333.5167 
  54   0.0000      12.257396       333.5407 
  55   0.0000      12.257450       333.5422 
  56   0.0000      12.258088       333.5595 
  57   0.0000      12.607716       343.0734 
  58   0.0000      12.607997       343.0810 
  59   0.0000      12.642051       344.0077 
  60   0.0000      12.679518       345.0272 
  61   0.0000      12.686257       345.2106 
  62   0.0000      12.686490       345.2170 
  63   0.0000      12.689963       345.3115 

                 SPIN DOWN ORBITALS
  NO   OCC          E(Eh)            E(eV) 
   0   1.0000    -305.402751     -8310.4314 
   1   1.0000     -37.657311     -1024.7075 
   2   1.0000     -32.688380      -889.4960 
   3   1.0000     -32.686861      -889.4547 
   4   1.0000     -32.686843      -889.4542 
   5   1.0000      -4.606216      -125.3415 
   6   1.0000      -3.041805       -82.7717 
   7   1.0000      -2.987147       -81.2844 
   8   1.0000      -2.986376       -81.2634 
   9   1.0000      -0.475800       -12.9472 
  10   1.0000      -0.419491       -11.4149 
  11   1.0000      -0.418713       -11.3937 
  12   1.0000      -0.400083       -10.8868 
  13   0.0000       0.025920         0.7053 
  14   0.0000       0.172962         4.7065 
  15   0.0000       0.172993         4.7074 
  16   0.0000       0.175397         4.7728 
  17   0.0000       0.276124         7.5137 
  18   0.0000       0.313203         8.5227 
  19   0.0000       0.337544         9.1851 
  20   0.0000       0.342230         9.3126 
  21   0.0000       0.342297         9.3144 
  22   0.0000       0.343967         9.3598 
  23   0.0000       0.480688        13.0802 
  24   0.0000       0.781651        21.2698 
  25   0.0000       0.781731        21.2720 
  26   0.0000       0.787628        21.4324 
  27   0.0000       1.328659        36.1546 
  28   0.0000       1.346852        36.6497 
  29   0.0000       1.347107        36.6566 
  30   0.0000       1.353301        36.8252 
  31   0.0000       1.440475        39.1973 
  32   0.0000       3.319361        90.3244 
  33   0.0000       3.319564        90.3299 
  34   0.0000       3.335537        90.7646 
  35   0.0000       3.464314        94.2688 
  36   0.0000       3.474412        94.5436 
  37   0.0000       3.474813        94.5545 
  38   0.0000       3.484134        94.8081 
  39   0.0000       3.506722        95.4228 
  40   0.0000       3.513601        95.6099 
  41   0.0000       3.513943        95.6192 
  42   0.0000       3.583310        97.5068 
  43   0.0000       4.758006       129.4719 
  44   0.0000       4.790238       130.3490 
  45   0.0000       4.790687       130.3612 
  46   0.0000       4.801582       130.6577 
  47   0.0000       4.872445       132.5860 
  48   0.0000      12.254994       333.4753 
  49   0.0000      12.256140       333.5065 
  50   0.0000      12.259585       333.6003 
  51   0.0000      12.259613       333.6010 
  52   0.0000      12.261855       333.6621 
  53   0.0000      12.275240       334.0262 
  54   0.0000      12.275716       334.0392 
  55   0.0000      12.275987       334.0466 
  56   0.0000      12.276466       334.0596 
  57   0.0000      12.689365       345.2952 
  58   0.0000      12.703331       345.6752 
  59   0.0000      12.703912       345.6910 
  60   0.0000      12.720279       346.1364 
  61   0.0000      12.746733       346.8562 
  62   0.0000      12.751826       346.9948 
  63   0.0000      12.752243       347.0062 

                    ********************************
                    * MULLIKEN POPULATION ANALYSIS *
                    ********************************

--------------------------------------------
MULLIKEN ATOMIC CHARGES AND SPIN POPULATIONS
--------------------------------------------
   0 Ni:   -0.000000    2.000000
Sum of atomic charges         :   -0.0000000
Sum of atomic spin populations:    2.0000000

-----------------------------------------------------
MULLIKEN REDUCED ORBITAL CHARGES AND SPIN POPULATIONS
-----------------------------------------------------
CHARGE
  0 Nis       :     6.999720  s :     6.999720
      pz      :     3.999781  p :    11.999534
      px      :     3.999969
      py      :     3.999784
      dz2     :     1.244943  d :     9.000211
      dxz     :     1.999987
      dyz     :     1.999996
      dx2y2   :     1.755297
      dxy     :     1.999987
      f0      :     0.000166  f :     0.000466
      f+1     :     0.000012
      f-1     :     0.000163
      f+2     :     0.000053
      f-2     :     0.000000
      f+3     :     0.000019
      f-3     :     0.000052
      g0      :     0.000018  g :     0.000070
      g+1     :     0.000008
      g-1     :     0.000001
      g+2     :     0.000012
      g-2     :     0.000003
      g+3     :     0.000005
      g-3     :     0.000004
      g+4     :     0.000010
      g-4     :     0.000009

SPIN
  0 Nis       :     0.999736  s :     0.999736
      pz      :     0.000152  p :     0.000284
      px      :    -0.000020
      py      :     0.000152
      dz2     :     0.755179  d :     1.000245
      dxz     :    -0.000006
      dyz     :    -0.000002
      dx2y2   :     0.245079
      dxy     :    -0.000005
      f0      :    -0.000107  f :    -0.000284
      f+1     :     0.000007
      f-1     :    -0.000158
      f+2     :    -0.000045
      f-2     :    -0.000000
      f+3     :     0.000013
      f-3     :     0.000006
      g0      :     0.000003  g :     0.000019
      g+1     :     0.000008
      g-1     :     0.000000
      g+2     :    -0.000005
      g-2     :    -0.000003
      g+3     :    -0.000002
      g-3     :     0.000001
      g+4     :     0.000008
      g-4     :     0.000009


                     *******************************
                     * LOEWDIN POPULATION ANALYSIS *
                     *******************************

-------------------------------------------
LOEWDIN ATOMIC CHARGES AND SPIN POPULATIONS
-------------------------------------------
   0 Ni:   -0.000000    2.000000

----------------------------------------------------
LOEWDIN REDUCED ORBITAL CHARGES AND SPIN POPULATIONS
----------------------------------------------------
CHARGE
  0 Nis       :     6.999720  s :     6.999720
      pz      :     3.999781  p :    11.999534
      px      :     3.999969
      py      :     3.999784
      dz2     :     1.244943  d :     9.000211
      dxz     :     1.999987
      dyz     :     1.999996
      dx2y2   :     1.755297
      dxy     :     1.999987
      f0      :     0.000166  f :     0.000466
      f+1     :     0.000012
      f-1     :     0.000163
      f+2     :     0.000053
      f-2     :     0.000000
      f+3     :     0.000019
      f-3     :     0.000052
      g0      :     0.000018  g :     0.000070
      g+1     :     0.000008
      g-1     :     0.000001
      g+2     :     0.000012
      g-2     :     0.000003
      g+3     :     0.000005
      g-3     :     0.000004
      g+4     :     0.000010
      g-4     :     0.000009

SPIN
  0 Nis       :     0.999736  s :     0.999736
      pz      :     0.000152  p :     0.000284
      px      :    -0.000020
      py      :     0.000152
      dz2     :     0.755179  d :     1.000245
      dxz     :    -0.000006
      dyz     :    -0.000002
      dx2y2   :     0.245079
      dxy     :    -0.000005
      f0      :    -0.000107  f :    -0.000284
      f+1     :     0.000007
      f-1     :    -0.000158
      f+2     :    -0.000045
      f-2     :    -0.000000
      f+3     :     0.000013
      f-3     :     0.000006
      g0      :     0.000003  g :     0.000019
      g+1     :     0.000008
      g-1     :     0.000000
      g+2     :    -0.000005
      g-2     :    -0.000003
      g+3     :    -0.000002
      g-3     :     0.000001
      g+4     :     0.000008
      g-4     :     0.000009


                      *****************************
                      * MAYER POPULATION ANALYSIS *
                      *****************************

  NA   - Mulliken gross atomic population
  ZA   - Total nuclear charge
  QA   - Mulliken gross atomic charge
  VA   - Mayer's total valence
  BVA  - Mayer's bonded valence
  FA   - Mayer's free valence

  ATOM       NA         ZA         QA         VA         BVA        FA
  0 Ni    28.0000    28.0000    -0.0000     2.0018     0.0000     2.0018

  Mayer bond orders larger than 0.100000


-------
TIMINGS
-------

Total SCF time: 0 days 0 hours 0 min 32 sec 

Total time                  ....      32.211 sec
Sum of individual times     ....      31.874 sec  ( 99.0%)

Fock matrix formation       ....       8.064 sec  ( 25.0%)
Diagonalization             ....       0.009 sec  (  0.0%)
Density matrix formation    ....       0.018 sec  (  0.1%)
Population analysis         ....       0.004 sec  (  0.0%)
Initial guess               ....       0.127 sec  (  0.4%)
Orbital Transformation      ....       0.000 sec  (  0.0%)
Orbital Orthonormalization  ....       0.000 sec  (  0.0%)
DIIS solution               ....       0.000 sec  (  0.0%)
NR solution                 ....      23.633 sec  ( 73.4%)


           ************************************************************
           *        Program running with 24 parallel MPI-processes    *
           *              working on a common directory               *
           ************************************************************


------------------------------------------------------------------------------- 
                              ORCA-MATRIX DRIVEN CI                            
------------------------------------------------------------------------------- 

--------------------------------
AUTOMATIC CHOICE OF INCORE LEVEL
--------------------------------

Memory available                           ...   2500.00 MB
Memory needed for S+T                      ...      3.02 MB
Memory needed for J+K                      ...      6.09 MB
Memory needed for DIIS                     ...     42.31 MB
Memory needed for 3-ext                    ...      8.98 MB
Memory needed for 4-ext                    ...     22.44 MB
Memory needed for triples                  ...      4.49 MB
 -> Final InCoreLevel    ... 5
 -> check shows that triples correction can be computed


Wavefunction type
-----------------
Correlation treatment                      ...      CCSD     
Single excitations                         ... ON
Orbital optimization                       ... OFF
Calculation of Z vector                    ... OFF
Calculation of Brueckner orbitals          ... OFF
Perturbative triple excitations            ... ON
Calculation of F12 correction              ... OFF
Frozen core treatment                      ... chemical core (10 el)
Reference Wavefunction                     ... UHF
  Alpha-MOs occ    :     5 ...   14 ( 10 MO's/ 10 electrons)
  Beta-MOs occ     :     5 ...   12 (  8 MO's/  8 electrons)
  Alpha-MOs virt   :    15 ...   63 ( 49 MO's              )
  Beta-MOs virt    :    13 ...   63 ( 51 MO's              )
Number of AO's                             ...     64
Number of electrons                        ...     28
Number of correlated electrons             ...     18

Algorithmic settings
--------------------
Integral transformation                    ... AO direct full transformation
K(C) Formation                             ... FULL-MO TRAFO
Maximum number of iterations               ...        50
Convergence tolerance (max. residuum)      ... 1.000e-06
Level shift for amplitude update           ... 2.000e-01
Maximum number of DIIS vectors             ...         7
DIIS turned on at iteration                ...         0
Damping before turning on DIIS             ...     0.500
Damping after turning on DIIS              ...     0.000
Pair specific amplitude update             ... OFF
Natural orbital iterations                 ... OFF
Perturbative natural orbital generation    ... OFF
Printlevel                                 ... 2

Memory handling:
----------------
Maximum memory for working arrays          ...   2500 MB
Data storage in matrix containers          ... UNCOMPRESSED
Data type for integral storage             ... DOUBLE
In-Core Storage of quantities:
   Amplitudes+Sigma Vector      ... YES
   J+K operators                ... YES
   DIIS vectors                 ... YES
   3-external integrals         ... YES
   4-external integrals         ... YES


Initializing the integral package          ... done
Warning: reference  - re-canonicalizations have been set to INT 1 VIRT 1

--------------------------
UNRESTRICTED FOCK OPERATOR
--------------------------

<ss|ss>:          231 b            0 skpd (  0.0%)    0.000 s ( 0.002 ms/b)
<ss|sp>:          630 b            0 skpd (  0.0%)    0.001 s ( 0.002 ms/b)
<ss|sd>:          504 b            0 skpd (  0.0%)    0.001 s ( 0.002 ms/b)
<ss|sf>:          252 b            0 skpd (  0.0%)    0.000 s ( 0.001 ms/b)
<ss|sg>:          126 b            0 skpd (  0.0%)    0.000 s ( 0.002 ms/b)
<ss|pp>:          315 b            0 skpd (  0.0%)    0.001 s ( 0.002 ms/b)
<ss|pd>:          420 b            0 skpd (  0.0%)    0.001 s ( 0.001 ms/b)
<ss|pf>:          210 b            0 skpd (  0.0%)    0.000 s ( 0.001 ms/b)
<ss|pg>:          105 b            0 skpd (  0.0%)    0.000 s ( 0.003 ms/b)
<ss|dd>:          210 b            0 skpd (  0.0%)    0.001 s ( 0.003 ms/b)
<ss|df>:          168 b            0 skpd (  0.0%)    0.000 s ( 0.001 ms/b)
<ss|dg>:           84 b            0 skpd (  0.0%)    0.000 s ( 0.004 ms/b)
<ss|ff>:           63 b            0 skpd (  0.0%)    0.000 s ( 0.002 ms/b)
<ss|fg>:           42 b            0 skpd (  0.0%)    0.000 s ( 0.005 ms/b)
<ss|gg>:           21 b            0 skpd (  0.0%)    0.000 s ( 0.013 ms/b)
<sp|sp>:          465 b            0 skpd (  0.0%)    0.001 s ( 0.002 ms/b)
<sp|sd>:          720 b            0 skpd (  0.0%)    0.001 s ( 0.001 ms/b)
<sp|sf>:          360 b            0 skpd (  0.0%)    0.000 s ( 0.001 ms/b)
<sp|sg>:          180 b            0 skpd (  0.0%)    0.001 s ( 0.003 ms/b)
<sp|pp>:          450 b            0 skpd (  0.0%)    0.001 s ( 0.002 ms/b)
<sp|pd>:          600 b            0 skpd (  0.0%)    0.001 s ( 0.002 ms/b)
<sp|pf>:          300 b            0 skpd (  0.0%)    0.001 s ( 0.002 ms/b)
<sp|pg>:          150 b            0 skpd (  0.0%)    0.001 s ( 0.005 ms/b)
<sp|dd>:          300 b            0 skpd (  0.0%)    0.001 s ( 0.004 ms/b)
<sp|df>:          240 b            0 skpd (  0.0%)    0.001 s ( 0.003 ms/b)
<sp|dg>:          120 b            0 skpd (  0.0%)    0.001 s ( 0.007 ms/b)
<sp|ff>:           90 b            0 skpd (  0.0%)    0.000 s ( 0.004 ms/b)
<sp|fg>:           60 b            0 skpd (  0.0%)    0.001 s ( 0.009 ms/b)
<sp|gg>:           30 b            0 skpd (  0.0%)    0.001 s ( 0.025 ms/b)
<sd|sd>:          300 b            0 skpd (  0.0%)    0.001 s ( 0.002 ms/b)
<sd|sf>:          288 b            0 skpd (  0.0%)    0.000 s ( 0.001 ms/b)
<sd|sg>:          144 b            0 skpd (  0.0%)    0.001 s ( 0.004 ms/b)
<sd|pp>:          360 b            0 skpd (  0.0%)    0.001 s ( 0.003 ms/b)
<sd|pd>:          480 b            0 skpd (  0.0%)    0.001 s ( 0.003 ms/b)
<sd|pf>:          240 b            0 skpd (  0.0%)    0.001 s ( 0.003 ms/b)
<sd|pg>:          120 b            0 skpd (  0.0%)    0.001 s ( 0.010 ms/b)
<sd|dd>:          240 b            0 skpd (  0.0%)    0.002 s ( 0.007 ms/b)
<sd|df>:          192 b            0 skpd (  0.0%)    0.001 s ( 0.005 ms/b)
<sd|dg>:           96 b            0 skpd (  0.0%)    0.001 s ( 0.015 ms/b)
<sd|ff>:           72 b            0 skpd (  0.0%)    0.001 s ( 0.008 ms/b)
<sd|fg>:           48 b            0 skpd (  0.0%)    0.001 s ( 0.018 ms/b)
<sd|gg>:           24 b            0 skpd (  0.0%)    0.001 s ( 0.051 ms/b)
<sf|sf>:           78 b            0 skpd (  0.0%)    0.000 s ( 0.002 ms/b)
<sf|sg>:           72 b            0 skpd (  0.0%)    0.000 s ( 0.006 ms/b)
<sf|pp>:          180 b            0 skpd (  0.0%)    0.001 s ( 0.004 ms/b)
<sf|pd>:          240 b            0 skpd (  0.0%)    0.001 s ( 0.004 ms/b)
<sf|pf>:          120 b            0 skpd (  0.0%)    0.000 s ( 0.004 ms/b)
<sf|pg>:           60 b            0 skpd (  0.0%)    0.001 s ( 0.013 ms/b)
<sf|dd>:          120 b            0 skpd (  0.0%)    0.001 s ( 0.010 ms/b)
<sf|df>:           96 b            0 skpd (  0.0%)    0.001 s ( 0.007 ms/b)
<sf|dg>:           48 b            0 skpd (  0.0%)    0.001 s ( 0.021 ms/b)
<sf|ff>:           36 b            0 skpd (  0.0%)    0.001 s ( 0.015 ms/b)
<sf|fg>:           24 b            0 skpd (  0.0%)    0.001 s ( 0.028 ms/b)
<sf|gg>:           12 b            0 skpd (  0.0%)    0.001 s ( 0.076 ms/b)
<sg|sg>:           21 b            0 skpd (  0.0%)    0.000 s ( 0.009 ms/b)
<sg|pp>:           90 b            0 skpd (  0.0%)    0.001 s ( 0.008 ms/b)
<sg|pd>:          120 b            0 skpd (  0.0%)    0.001 s ( 0.008 ms/b)
<sg|pf>:           60 b            0 skpd (  0.0%)    0.000 s ( 0.007 ms/b)
<sg|pg>:           30 b            0 skpd (  0.0%)    0.001 s ( 0.027 ms/b)
<sg|dd>:           60 b            0 skpd (  0.0%)    0.001 s ( 0.019 ms/b)
<sg|df>:           48 b            0 skpd (  0.0%)    0.001 s ( 0.013 ms/b)
<sg|dg>:           24 b            0 skpd (  0.0%)    0.001 s ( 0.045 ms/b)
<sg|ff>:           18 b            0 skpd (  0.0%)    0.000 s ( 0.020 ms/b)
<sg|fg>:           12 b            0 skpd (  0.0%)    0.001 s ( 0.051 ms/b)
<sg|gg>:            6 b            0 skpd (  0.0%)    0.001 s ( 0.144 ms/b)
<pp|pp>:          120 b            0 skpd (  0.0%)    0.001 s ( 0.009 ms/b)
<pp|pd>:          300 b            0 skpd (  0.0%)    0.001 s ( 0.004 ms/b)
<pp|pf>:          150 b            0 skpd (  0.0%)    0.001 s ( 0.004 ms/b)
<pp|pg>:           75 b            0 skpd (  0.0%)    0.001 s ( 0.013 ms/b)
<pp|dd>:          150 b            0 skpd (  0.0%)    0.002 s ( 0.010 ms/b)
<pp|df>:          120 b            0 skpd (  0.0%)    0.001 s ( 0.007 ms/b)
<pp|dg>:           60 b            0 skpd (  0.0%)    0.001 s ( 0.021 ms/b)
<pp|ff>:           45 b            0 skpd (  0.0%)    0.001 s ( 0.012 ms/b)
<pp|fg>:           30 b            0 skpd (  0.0%)    0.001 s ( 0.027 ms/b)
<pp|gg>:           15 b            0 skpd (  0.0%)    0.001 s ( 0.072 ms/b)
<pd|pd>:          210 b            0 skpd (  0.0%)    0.002 s ( 0.010 ms/b)
<pd|pf>:          200 b            0 skpd (  0.0%)    0.001 s ( 0.006 ms/b)
<pd|pg>:          100 b            0 skpd (  0.0%)    0.002 s ( 0.021 ms/b)
<pd|dd>:          200 b            0 skpd (  0.0%)    0.003 s ( 0.016 ms/b)
<pd|df>:          160 b            0 skpd (  0.0%)    0.002 s ( 0.011 ms/b)
<pd|dg>:           80 b            0 skpd (  0.0%)    0.003 s ( 0.035 ms/b)
<pd|ff>:           60 b            0 skpd (  0.0%)    0.001 s ( 0.021 ms/b)
<pd|fg>:           40 b            0 skpd (  0.0%)    0.002 s ( 0.047 ms/b)
<pd|gg>:           20 b            0 skpd (  0.0%)    0.003 s ( 0.129 ms/b)
<pf|pf>:           55 b            0 skpd (  0.0%)    0.000 s ( 0.009 ms/b)
<pf|pg>:           50 b            0 skpd (  0.0%)    0.001 s ( 0.026 ms/b)
<pf|dd>:          100 b            0 skpd (  0.0%)    0.002 s ( 0.018 ms/b)
<pf|df>:           80 b            0 skpd (  0.0%)    0.001 s ( 0.015 ms/b)
<pf|dg>:           40 b            0 skpd (  0.0%)    0.002 s ( 0.044 ms/b)
<pf|ff>:           30 b            0 skpd (  0.0%)    0.001 s ( 0.036 ms/b)
<pf|fg>:           20 b            0 skpd (  0.0%)    0.001 s ( 0.070 ms/b)
<pf|gg>:           10 b            0 skpd (  0.0%)    0.002 s ( 0.174 ms/b)
<pg|pg>:           15 b            0 skpd (  0.0%)    0.001 s ( 0.049 ms/b)
<pg|dd>:           50 b            0 skpd (  0.0%)    0.002 s ( 0.036 ms/b)
<pg|df>:           40 b            0 skpd (  0.0%)    0.001 s ( 0.025 ms/b)
<pg|dg>:           20 b            0 skpd (  0.0%)    0.002 s ( 0.084 ms/b)
<pg|ff>:           15 b            0 skpd (  0.0%)    0.001 s ( 0.043 ms/b)
<pg|fg>:           10 b            0 skpd (  0.0%)    0.001 s ( 0.115 ms/b)
<pg|gg>:            5 b            0 skpd (  0.0%)    0.001 s ( 0.291 ms/b)
<dd|dd>:           55 b            0 skpd (  0.0%)    0.003 s ( 0.046 ms/b)
<dd|df>:           80 b            0 skpd (  0.0%)    0.002 s ( 0.020 ms/b)
<dd|dg>:           40 b            0 skpd (  0.0%)    0.002 s ( 0.061 ms/b)
<dd|ff>:           30 b            0 skpd (  0.0%)    0.001 s ( 0.038 ms/b)
<dd|fg>:           20 b            0 skpd (  0.0%)    0.002 s ( 0.082 ms/b)
<dd|gg>:           10 b            0 skpd (  0.0%)    0.002 s ( 0.224 ms/b)
<df|df>:           36 b            0 skpd (  0.0%)    0.001 s ( 0.041 ms/b)
<df|dg>:           32 b            0 skpd (  0.0%)    0.002 s ( 0.069 ms/b)
<df|ff>:           24 b            0 skpd (  0.0%)    0.001 s ( 0.062 ms/b)
<df|fg>:           16 b            0 skpd (  0.0%)    0.002 s ( 0.119 ms/b)
<df|gg>:            8 b            0 skpd (  0.0%)    0.002 s ( 0.305 ms/b)
<dg|dg>:           10 b            0 skpd (  0.0%)    0.002 s ( 0.153 ms/b)
<dg|ff>:           12 b            0 skpd (  0.0%)    0.001 s ( 0.074 ms/b)
<dg|fg>:            8 b            0 skpd (  0.0%)    0.001 s ( 0.183 ms/b)
<dg|gg>:            4 b            0 skpd (  0.0%)    0.002 s ( 0.474 ms/b)
<ff|ff>:            6 b            0 skpd (  0.0%)    0.001 s ( 0.090 ms/b)
<ff|fg>:            6 b            0 skpd (  0.0%)    0.001 s ( 0.170 ms/b)
<ff|gg>:            3 b            0 skpd (  0.0%)    0.001 s ( 0.489 ms/b)
<fg|fg>:            3 b            0 skpd (  0.0%)    0.001 s ( 0.318 ms/b)
<fg|gg>:            2 b            0 skpd (  0.0%)    0.002 s ( 0.969 ms/b)
<gg|gg>:            1 b            0 skpd (  0.0%)    0.001 s ( 1.176 ms/b)
Recanonicalizing the internal orbitals
Recanonicalizing the virtual orbitals
Time needed for Fock operator              ...            0.135 sec
Reference energy                           ...  -1506.797373758
Warning: for UHF the TrafoType has to be JK
Warning: for UHF the K(C)-option cannot be MO but must be AOX

-------------------------------
PARTIAL EXCHANGE TRANSFORMATION
-------------------------------

Transformation type                        ... two-operators
Generation of integrals (i,mue|j,nue)      ... ON
Generation of integrals (mue,kappa|nue,tau)... ON
Generation of integrals (i,mue|a,nue)      ... ON
Dimension of the basis                     ...   64
Number of internal alpha-MOs               ...   10 (   5-  14)
Number of internal beta-MOs                ...    8 (   5-  12)
Number of external alpha-MOs               ...   49 (  15-  63)
Number of external beta-MOs                ...   51 (  13-  63)
Pair cutoff                                ... 0.000e+00 Eh
Number of AO pairs in the trafo            ... 2080
Total Number of distinct AO pairs          ... 2080
Memory devoted for trafo                   ... 2500.0 MB 
Max. Number of MO pairs treated together   ... 80000      
Number Format for Storage                  ... Double (8 Byte)
Integral package used                      ... LIBINT

Starting integral evaluation:
    ... done with AO integral generation
Closing buffer AOK[aa] ( 0.00 GB; CompressionRatio= 0.00)
Closing buffer AOK[bb] ( 0.00 GB; CompressionRatio= 0.00)
Closing buffer AOK[ab] ( 0.00 GB; CompressionRatio= 0.00)
Closing buffer AOK[ba] ( 0.00 GB; CompressionRatio= 0.00)
Collecting buffer AOK 
Closing buffer IAAO1[aa] ( 0.00 GB; CompressionRatio= 0.00)
Closing buffer IAAO1[bb] ( 0.00 GB; CompressionRatio= 0.00)
Closing buffer IAAO1[ab] ( 0.00 GB; CompressionRatio= 0.00)
Closing buffer IAAO1[ba] ( 0.00 GB; CompressionRatio= 0.00)
Closing buffer IAAO2[aa] ( 0.00 GB; CompressionRatio= 0.00)
Closing buffer IAAO2[bb] ( 0.00 GB; CompressionRatio= 0.00)
Closing buffer IAAO2[ab] ( 0.00 GB; CompressionRatio= 0.00)
Closing buffer IAAO2[ba] ( 0.00 GB; CompressionRatio= 0.00)
Collecting buffer IAAO 
Closing buffer PRQS    ( 0.00 GB; CompressionRatio= 0.00)
Collecting buffer PRQS 
Number of alpha/alpha MO pairs in trafo    ...   55
Number of beta /beta  MO pairs in trafo    ...   36
Number of alpha/ beta MO pairs in trafo    ...   80
------------------------
SORTING OF (i,mue|j,nue)
------------------------

SORTING OF ALPHA/ALPHA PAIRS
IBATCH = 1 of  1
Closing buffer KAO[aa] ( 0.00 GB; CompressionRatio= 1.00)
Collecting buffer KAO 
SORTING OF BETA /BETA  PAIRS
IBATCH = 1 of  1
Closing buffer KAO[bb] ( 0.00 GB; CompressionRatio= 1.00)
Collecting buffer KAO 
SORTING OF ALPHA/BETA  PAIRS
IBATCH = 1 of  1
Closing buffer KAO[ab] ( 0.00 GB; CompressionRatio= 0.999633923124)
Collecting buffer KAO[ab] 
------------------------
SORTING OF (i,mue|a,nue)
------------------------

Number of alpha/alpha (i,a) pairs in trafo  ...  490
Number of beta /beta  (i,a) pairs in trafo  ...  408
Number of alpha/ beta (i,a) pairs in trafo  ...  510
Number of beta /alpha (i,a) pairs in trafo  ...  392
Setting up the alpha/alpha list             ... done
Setting up the beta /beta  list             ... done
Setting up the alpha/beta  list             ... done
Setting up the beta /alpha list             ... done
    ... Now sorting (i,mue|a,nue)integrals
    ... Integrals (i,b|a,c) will be made on the fly
SORTING OF ALPHA/ALPHA PAIRS
IBATCH = 1 of  1
Closing buffer IPAQ[aa]  0.00 GB; CompressionRatio= 1.00)
SORTING OF BETA /BETA  PAIRS
IBATCH = 1 of  1
Closing buffer IPAQ[bb]( 0.00 GB; CompressionRatio= 1.00)
SORTING OF ALPHA/BETA  PAIRS (NMatSort_ab=22)
IBATCH = 1 of  1
Closing buffer IPAQ[ab]( 0.00 GB; CompressionRatio= 1.00)
SORTING OF BETA/ALPHA  PAIRS
IBATCH = 1 of  1
Closing buffer IPAQ[ba]( 0.00 GB; CompressionRatio= 1.00)
N(AO-Batches) Done                         ...         0 
N(AO-Batches) Skipped                      ...         0 
N(IJ)-pairs Skipped                        ...         0 
TOTAL TIME for half transformation         ...     0.411 sec
AO-integral generation                     ...     0.000 sec
Half transformation                        ...     0.000 sec
K-integral sorting                         ...     0.204 sec
<ss|**>: 
------------------------------
PARTIAL COULOMB TRANSFORMATION
------------------------------

Transformation type                        ... two-operators
Dimension of the basis                     ...   64
Number of internal alpha-MOs               ...   10 (5-14)
Number of internal beta-MOs                ...    8 (5-12)
Pair cutoff                                ... 0.000e+00 Eh
Number of AO pairs included in the trafo   ... 2080
Total Number of distinct AO pairs          ... 2080
Memory devoted for trafo                   ... 2500.0 MB 
Max. Number of MO pairs treated together   ... 157538      
Max. Number of MOs treated per batch       ... 2461      
Number Format for Storage                  ... Double (8 Byte)
AO-integral source                         ... DIRECT
Integral package used                      ... LIBINT

Starting integral evaluation:
        3591 b        0 skpd     0.001 s (  0.000 ms/b)
<sp|**>: <sd|**>:         5130 b        0 skpd     0.008 s (  0.002 ms/b)
        4104 b        0 skpd     0.010 s (  0.002 ms/b)
<sf|**>:         2052 b        0 skpd     0.005 s (  0.003 ms/b)
<sg|**>:         1026 b        0 skpd     0.010 s (  0.010 ms/b)
<pp|**>:         2565 b        0 skpd     0.012 s (  0.005 ms/b)
<pd|**>:         3420 b        0 skpd     0.017 s (  0.005 ms/b)
<pf|**>:         1710 b        0 skpd     0.008 s (  0.005 ms/b)
<pg|**>:          855 b        0 skpd     0.015 s (  0.018 ms/b)
<dd|**>:         1710 b        0 skpd     0.022 s (  0.013 ms/b)
<df|**>:         1368 b        0 skpd     0.012 s (  0.009 ms/b)
<dg|**>:          684 b        0 skpd     0.019 s (  0.028 ms/b)
<ff|**>:          513 b        0 skpd     0.008 s (  0.016 ms/b)
<fg|**>:          342 b        0 skpd     0.013 s (  0.037 ms/b)
<gg|**>:          171 b        0 skpd     0.018 s (  0.106 ms/b)
Closing buffer AOJ[aa] ( 0.00 GB; CompressionRatio= 0.97)
Closing buffer AOJ[bb] ( 0.00 GB; CompressionRatio= 0.00)
Collecting buffer AOJ 
    ... done with AO integral generation
Number of Alpha-MO pairs included          ...   55
Number of Beta-MO pairs included           ...   36
    ... Now sorting integrals
SORTING ALPHA/ALPHA PAIRS
IBATCH = 1 of  1
Closing buffer JAO[aa] ( 0.00 GB; CompressionRatio= 1.00)
SORTING BETA/BETA PAIRS
IBATCH = 1 of  1
Closing buffer JAO[bb] ( 0.00 GB; CompressionRatio= 1.00)
Collecting buffer JAO 
TOTAL TIME for half transformation         ...     0.196 sec
AO-integral generation                     ...     0.183 sec
Half transformation                        ...     0.002 sec
J-integral sorting                         ...     0.007 sec

-------------------------- SECOND HALF TRANSFORMATION -------------------------
Formation of (ij|kl),(ij|ka), (ij|ab)      ... ok (     0.039 sec)
Formation of (ik|jl),(ik|ja), (ia|jb)      ... ok (     0.043 sec)


-----------------------
SPIN UNRESTRICTED GUESS
-----------------------

Entering MDCI_UHF_Guess, Tailored=0
Spin-components of the MP2 energy:
EMP2(aa)=     -0.149183520
EMP2(bb)=     -0.105201686
EMP2(ab)=     -0.497726146

Initial guess performed in     0.013 sec
E(0)                                       ...  -1506.797373758
E(MP2)                                     ...     -0.752111352
Initial E(tot)                             ...  -1507.549485110
<T|T>                                      ...      0.109797256
Number of pairs included                   ... 153

------------------------------------------------
                  UHF COUPLED CLUSTER ITERATIONS
------------------------------------------------

Number of amplitudes to be optimized       ...       290769

Iter       E(tot)           E(Corr)          Delta-E          Residual     Time      <S|S>**1/2
  0  -1507.549485110     -0.752111352     -0.000000000      0.035940516    0.36      0.000000537
                           *** Turning on DIIS ***
  1  -1507.432540937     -0.635167180      0.116944172      0.015270872    0.33      0.076720611
  2  -1507.469554888     -0.672181131     -0.037013951      0.007090764    0.35      0.057893927
  3  -1507.469078606     -0.671704848      0.000476282      0.005067037    0.32      0.071704710
  4  -1507.470290128     -0.672916370     -0.001211522      0.002703034    0.32      0.077647724
  5  -1507.471098480     -0.673724723     -0.000808352      0.000760918    0.36      0.083157583
  6  -1507.471212801     -0.673839043     -0.000114321      0.000190734    0.37      0.084912231
  7  -1507.471203953     -0.673830196      0.000008848      0.000076433    0.34      0.085289511
  8  -1507.471212846     -0.673839088     -0.000008893      0.000033586    0.37      0.085276174
  9  -1507.471211070     -0.673837312      0.000001776      0.000011491    0.36      0.085267090
 10  -1507.471210076     -0.673836318      0.000000994      0.000004219    0.34      0.085250668
 11  -1507.471211176     -0.673837418     -0.000001100      0.000004561    0.34      0.085245900
 12  -1507.471210591     -0.673836833      0.000000585      0.000003949    0.34      0.085243170
 13  -1507.471210639     -0.673836882     -0.000000048      0.000004189    0.34      0.085242352
 14  -1507.471210584     -0.673836826      0.000000056      0.000003981    0.34      0.085241882
 15  -1507.471210583     -0.673836825      0.000000001      0.000003984    0.34      0.085241860
 16  -1507.471210527     -0.673836770      0.000000055      0.000003918    0.34      0.085241238
 17  -1507.471210500     -0.673836742      0.000000028      0.000003916    0.37      0.085241224
 18  -1507.471210512     -0.673836754     -0.000000012      0.000003928    0.37      0.085241231
 19  -1507.471210510     -0.673836753      0.000000002      0.000003940    0.34      0.085241155
 20  -1507.471210529     -0.673836771     -0.000000019      0.000003992    0.36      0.085241238
 21  -1507.471210516     -0.673836759      0.000000013      0.000004061    0.35      0.085241131
 22  -1507.471210511     -0.673836754      0.000000005      0.000004145    0.36      0.085241996
 23  -1507.471210537     -0.673836779     -0.000000026      0.000003713    0.35      0.085240575
 24  -1507.471210566     -0.673836809     -0.000000030      0.000002311    0.35      0.085256347
 25  -1507.471210641     -0.673836884     -0.000000075      0.000001137    0.34      0.085302518
 26  -1507.471210762     -0.673837004     -0.000000121      0.000000164    0.34      0.085344274
               --- The Coupled-Cluster iterations have converged ---

----------------------
COUPLED CLUSTER ENERGY
----------------------

E(0)                                       ...  -1506.797373758
E(CORR)                                    ...     -0.673837004
E(TOT)                                     ...  -1507.471210762
Singles norm <S|S>**1/2                    ...      0.085344274 ( 0.052506339, 0.032837936)  
T1 diagnostic                              ...      0.020115838                              

------------------
LARGEST AMPLITUDES
------------------
  14a-> 18a  -1a-> -1a       0.063450
  10b-> 20b  -1b-> -1b       0.034457
  11b-> 21b  -1b-> -1b       0.034454
  12b-> 22b  -1b-> -1b       0.034191
   9b-> 19b  -1b-> -1b       0.033419
  13a-> 23a  -1a-> -1a       0.030261
  12a-> 22a  -1a-> -1a       0.029436
  11a-> 21a  -1a-> -1a       0.029392
  14a-> 17a  12b-> 16b       0.028098
   9a-> 19a  -1a-> -1a       0.027751
  10a-> 20a  -1a-> -1a       0.025799
  14a-> 16a  11b-> 16b       0.023909
  14a-> 15a  10b-> 16b       0.023891
  13a-> 31a  12b-> 30b       0.023059
  12a-> 30a  11b-> 29b       0.022793
  11a-> 29a  10b-> 28b       0.022785

----------------------
UHF TRIPLES CORRECTION (Algorithm 1)
----------------------

Multiplier for the singles contribution    ...      1.000000000

SPIN-CASE Alpha-Alpha-Alpha:
10% done
20% done
30% done
40% done
50% done
60% done
70% done
80% done
90% done


SPIN-CASE Beta-Beta-Beta:
10% done
20% done
30% done
40% done
50% done
60% done
70% done
80% done
90% done


SPIN-CASE Alpha-Alpha-Beta:
10% done
20% done
30% done
40% done
50% done
60% done
70% done
80% done
90% done


SPIN-CASE Beta-Beta-Alpha:
10% done
20% done
30% done
40% done
50% done
60% done
70% done
80% done
90% done


Triples Correction (T)                     ...     -0.019737221
    alpha-alpha-alpha ... -0.001299588 (  6.6%)
    alpha-alpha-beta  ... -0.010473081 ( 53.1%)
    alpha-beta -beta  ... -0.007469369 ( 37.8%)
    beta -beta -beta  ... -0.000495183 (  2.5%)
Scaling of triples based on CCSD energies (Peterson et al. Molecular Physics 113, 1551 (2015))
E(T*) = f*E(T) where f = E(F12-CCSD)/E(CCSD) 
f = CCSD (with F12)/ CCSD (without F12)    ...      1.000000000
Scaled triples correction (T)              ...     -0.019737221

Final correlation energy                   ...     -0.693574226
E(CCSD)                                    ...  -1507.471210762
E(CCSD(T))                                 ...  -1507.490947983



        !!!!!!!!!!!!!!!!!!!!!!!!!!!!!!!!!!!!!!!!!!!!!!!!!!!!!!!!!!!!!!!!!!!!!!!!!! 
        !  Warning: Densities are linearized densities                           !
        !!!!!!!!!!!!!!!!!!!!!!!!!!!!!!!!!!!!!!!!!!!!!!!!!!!!!!!!!!!!!!!!!!!!!!!!!! 

NORM  =      1.103362483 sqrt=     1.050410626
W(HF) =      0.906320466
------------------------------------------------------------------------------
                           ORCA POPULATION ANALYSIS
------------------------------------------------------------------------------
Input electron density              ... 68_Ni.mdcip
Input spin density                  ... 68_Ni.mdcir
BaseName (.gbw .S,...)              ... 68_Ni

                    ********************************
                    * MULLIKEN POPULATION ANALYSIS *
                    ********************************

------------------------------------------
MULLIKEN ATOMIC CHARGES AND SPIN DENSITIES
------------------------------------------
   0 Ni:   -0.000000    2.000000
Sum of atomic charges       :   -0.0000000
Sum of atomic spin densities:    2.0000000

---------------------------------------------------
MULLIKEN REDUCED ORBITAL CHARGES AND SPIN DENSITIES
---------------------------------------------------
CHARGE
  0 Nis       :     6.989459  s :     6.989459
      pz      :     4.003098  p :    12.013628
      px      :     4.007376
      py      :     4.003154
      dz2     :     1.244500  d :     8.962413
      dxz     :     1.989678
      dyz     :     1.990663
      dx2y2   :     1.747909
      dxy     :     1.989664
      f0      :     0.004039  f :     0.031235
      f+1     :     0.004425
      f-1     :     0.004145
      f+2     :     0.004672
      f-2     :     0.004814
      f+3     :     0.004570
      f-3     :     0.004570
      g0      :     0.000349  g :     0.003266
      g+1     :     0.000360
      g-1     :     0.000347
      g+2     :     0.000362
      g-2     :     0.000367
      g+3     :     0.000374
      g-3     :     0.000374
      g+4     :     0.000367
      g-4     :     0.000367

SPIN
  0 Nis       :     0.987728  s :     0.987728
      pz      :     0.003261  p :     0.007332
      px      :     0.000842
      py      :     0.003229
      dz2     :     0.748214  d :     1.001674
      dxz     :     0.003216
      dyz     :     0.001856
      dx2y2   :     0.245151
      dxy     :     0.003236
      f0      :     0.001028  f :     0.002898
      f+1     :     0.000510
      f-1     :     0.000792
      f+2     :     0.000083
      f-2     :    -0.000143
      f+3     :     0.000313
      f-3     :     0.000314
      g0      :     0.000082  g :     0.000368
      g+1     :     0.000056
      g-1     :     0.000078
      g+2     :     0.000040
      g-2     :     0.000026
      g+3     :     0.000007
      g-3     :     0.000007
      g+4     :     0.000037
      g-4     :     0.000037


                     *******************************
                     * LOEWDIN POPULATION ANALYSIS *
                     *******************************

-----------------------------------------
LOEWDIN ATOMIC CHARGES AND SPIN DENSITIES
-----------------------------------------
   0 Ni:   -0.000000    2.000000

--------------------------------------------------
LOEWDIN REDUCED ORBITAL CHARGES AND SPIN DENSITIES
--------------------------------------------------
CHARGE
  0 Nis       :     6.989459  s :     6.989459
      pz      :     4.003098  p :    12.013628
      px      :     4.007376
      py      :     4.003154
      dz2     :     1.244500  d :     8.962413
      dxz     :     1.989678
      dyz     :     1.990663
      dx2y2   :     1.747909
      dxy     :     1.989664
      f0      :     0.004039  f :     0.031235
      f+1     :     0.004425
      f-1     :     0.004145
      f+2     :     0.004672
      f-2     :     0.004814
      f+3     :     0.004570
      f-3     :     0.004570
      g0      :     0.000349  g :     0.003266
      g+1     :     0.000360
      g-1     :     0.000347
      g+2     :     0.000362
      g-2     :     0.000367
      g+3     :     0.000374
      g-3     :     0.000374
      g+4     :     0.000367
      g-4     :     0.000367

SPIN
  0 Nis       :     0.987728  s :     0.987728
      pz      :     0.003261  p :     0.007332
      px      :     0.000842
      py      :     0.003229
      dz2     :     0.748214  d :     1.001674
      dxz     :     0.003216
      dyz     :     0.001856
      dx2y2   :     0.245151
      dxy     :     0.003236
      f0      :     0.001028  f :     0.002898
      f+1     :     0.000510
      f-1     :     0.000792
      f+2     :     0.000083
      f-2     :    -0.000143
      f+3     :     0.000313
      f-3     :     0.000314
      g0      :     0.000082  g :     0.000368
      g+1     :     0.000056
      g-1     :     0.000078
      g+2     :     0.000040
      g-2     :     0.000026
      g+3     :     0.000007
      g-3     :     0.000007
      g+4     :     0.000037
      g-4     :     0.000037


                      *****************************
                      * MAYER POPULATION ANALYSIS *
                      *****************************

  NA   - Mulliken gross atomic population
  ZA   - Total nuclear charge
  QA   - Mulliken gross atomic charge
  VA   - Mayer's total valence
  BVA  - Mayer's bonded valence
  FA   - Mayer's free valence

  ATOM       NA         ZA         QA         VA         BVA        FA
  0 Ni    28.0000    28.0000    -0.0000     2.6467     0.0000     2.6467





------------------------------------------------------------------------------- 
                                     TIMINGS                                   
------------------------------------------------------------------------------- 


Total execution time                   ...       10.881 sec

Fock Matrix Formation                  ...        0.135 sec (  1.2%)
Initial Guess                          ...        0.013 sec (  0.1%)
DIIS Solver                            ...        1.062 sec (  9.8%)
State Vector Update                    ...        0.045 sec (  0.4%)
Sigma-vector construction              ...        8.291 sec ( 76.2%)
  <0|H|D>                              ...        0.003 sec (  0.0% of sigma)
  <D|H|D>(0-ext Fock)                  ...        0.011 sec (  0.1% of sigma)
  <D|H|D>(0-ext)                       ...        0.034 sec (  0.4% of sigma)
  <D|H|D>(2-ext Fock)                  ...        0.004 sec (  0.0% of sigma)
  <D|H|D>(2-ext)                       ...        0.150 sec (  1.8% of sigma)
  <D|H|D>(4-ext)                       ...        3.391 sec ( 40.9% of sigma)
  <S|H|0>                              ...        0.250 sec (  3.0% of sigma)
  <S|H|S>                              ...        0.002 sec (  0.0% of sigma)
  <S|H|D>(1-ext)                       ...        0.004 sec (  0.0% of sigma)
  <D|H|S>(1-ext)                       ...        0.057 sec (  0.7% of sigma)
  Fock-dressing                        ...        2.453 sec ( 29.6% of sigma)
  (ik|jl)-dressing                     ...        0.048 sec (  0.6% of sigma)
  (ij|ab),(ia|jb)-dressing             ...        1.431 sec ( 17.3% of sigma)
  Pair energies                        ...        0.005 sec (  0.1% of sigma)
Total Time for computing (T)           ...        0.292 sec (  2.7% of ALL)
  I/O of integral and amplitudes       ...        0.070 sec ( 23.9% of (T))
  External N**7 contributions          ...        0.078 sec ( 26.6% of (T))
  Internal N**7 contributions          ...        0.032 sec ( 10.9% of (T))
  N**6 triples energy contributions    ...        0.096 sec ( 32.9% of (T))

----- Orbital basis set information -----
Your calculation utilizes the basis: def2-QZVPP
   F. Weigend and R. Ahlrichs, Phys. Chem. Chem. Phys. 7, 3297 (2005).

----- AuxJ basis set information -----
Your calculation utilizes the auxiliary basis: def2/J
   F. Weigend, Phys. Chem. Chem. Phys. 8, 1057 (2006).

----- AuxC basis set information -----
Your calculation utilizes the auxiliary basis: def2-QZVPP/C
  H-La, Hf-Rn : A. Hellweg, C. Hattig, S. Hofener and W. Klopper, Theor. Chem. Acc. 117, 587 (2007).
        Ce-Lu : J. Chmela and M. E. Harding, Mol. Phys. (2018).

----- AuxJK basis set information -----
Your calculation utilizes the auxiliary basis: def2/JK
   H-Ba, Hf-Rn: F. Weigend, J. Comput. Chem. 29, 167 (2008).

All done

                     -----------------------------------------
                     Extrapolated Energy 2 Basis=  def2-QZVPP
                     -----------------------------------------

---------------------------------
CARTESIAN COORDINATES (ANGSTROEM)
---------------------------------
  Ni     0.000000    0.000000    0.000000

----------------------------
CARTESIAN COORDINATES (A.U.)
----------------------------
  NO LB      ZA    FRAG     MASS         X           Y           Z
   0 Ni   28.0000    0    58.700    0.000000    0.000000    0.000000

--------------------------------
INTERNAL COORDINATES (ANGSTROEM)
--------------------------------
 Ni     0   0   0     0.000000000000     0.00000000     0.00000000

---------------------------
INTERNAL COORDINATES (A.U.)
---------------------------
 Ni     0   0   0     0.000000000000     0.00000000     0.00000000

---------------------
BASIS SET INFORMATION
---------------------
There are 1 groups of distinct atoms

 Group   1 Type Ni  : 24s18p10d4f2g contracted to 11s6p5d4f2g pattern {114111111111/951111/61111/1111/11}

Atom   0Ni   basis set group =>   1
---------------------------------
AUXILIARY/J BASIS SET INFORMATION
---------------------------------
There are 1 groups of distinct atoms

 Group   1 Type Ni  : 19s5p5d3f3g contracted to 8s5p5d2f3g pattern {121111111/11111/11111/21/111}

Atom   0Ni   basis set group =>   1
---------------------------------
AUXILIARY/C BASIS SET INFORMATION
---------------------------------
There are 1 groups of distinct atoms

 Group   1 Type Ni  : 15s13p11d9f7g5h2i contracted to 15s13p11d9f7g5h2i pattern {111111111111111/1111111111111/11111111111/111111111/1111111/11111/11}

Atom   0Ni   basis set group =>   1
----------------------------------
AUXILIARY/JK BASIS SET INFORMATION
----------------------------------
There are 1 groups of distinct atoms

 Group   1 Type Ni  : 19s14p12d10f7g3h1i contracted to 16s13p11d9f5g3h1i pattern {4111111111111111/2111111111111/21111111111/211111111/31111/111/1}

Atom   0Ni   basis set group =>   1

Checking for AutoStart:
The File: 68_Ni.gbw exists
Trying to determine its content:
     ... Fine, the file contains calculation information
     ... Fine, the calculation information was read
     ... Fine, the file contains a basis set
     ... Fine, the basis set was read
     ... Fine, the file contains a geometry
     ... Fine, the geometry was read
     ... Fine, the file contains a set of orbitals
     ... Fine, the orbitals can be read
     => possible old guess file was deleted
     => GBW file was renamed to GES file
     => GES file is set as startup file
     => Guess is set to MORead
     ... now leaving AutoStart



           ************************************************************
           *        Program running with 24 parallel MPI-processes    *
           *              working on a common directory               *
           ************************************************************
------------------------------------------------------------------------------
                           ORCA GTO INTEGRAL CALCULATION
------------------------------------------------------------------------------

                         BASIS SET STATISTICS AND STARTUP INFO

 # of primitive gaussian shells          ...   58
 # of primitive gaussian functions       ...  174
 # of contracted shells                  ...   28
 # of contracted basis functions         ...  100
 Highest angular momentum                ...    4
 Maximum contraction depth               ...   11
 Integral package used                   ... LIBINT
 Integral threshhold            Thresh   ...  1.000e-12
 Primitive cut-off              TCut     ...  1.000e-14


------------------------------ INTEGRAL EVALUATION ----------------------------


 * One electron integrals 
 Pre-screening matrix                    ... done
 Shell pair data                         ... done (   0.000 sec)



           ************************************************************
           *        Program running with 24 parallel MPI-processes    *
           *              working on a common directory               *
           ************************************************************
-------------------------------------------------------------------------------
                                 ORCA SCF
-------------------------------------------------------------------------------

------------
SCF SETTINGS
------------
Hamiltonian:
 Ab initio Hamiltonian  Method          .... Hartree-Fock(GTOs)


General Settings:
 Integral files         IntName         .... 68_Ni
 Hartree-Fock type      HFTyp           .... UHF
 Total Charge           Charge          ....    0
 Multiplicity           Mult            ....    3
 Number of Electrons    NEL             ....   28
 Basis Dimension        Dim             ....  100
[...]
<df|**>:         8120 b        0 skpd     0.044 s (  0.005 ms/b)
<dg|**>:         4060 b        0 skpd     0.070 s (  0.017 ms/b)
<ff|**>:         4060 b        0 skpd     0.019 s (  0.005 ms/b)
<fg|**>:         3248 b        0 skpd     0.031 s (  0.010 ms/b)
<gg|**>:         1218 b        0 skpd     0.045 s (  0.037 ms/b)
Closing buffer AOJ[aa] ( 0.00 GB; CompressionRatio= 0.97)
Closing buffer AOJ[bb] ( 0.00 GB; CompressionRatio= 0.00)
Collecting buffer AOJ 
    ... done with AO integral generation
Number of Alpha-MO pairs included          ...   55
Number of Beta-MO pairs included           ...   36
    ... Now sorting integrals
SORTING ALPHA/ALPHA PAIRS
IBATCH = 1 of  1
Closing buffer JAO[aa] ( 0.00 GB; CompressionRatio= 1.00)
SORTING BETA/BETA PAIRS
IBATCH = 1 of  1
Closing buffer JAO[bb] ( 0.00 GB; CompressionRatio= 1.00)
Collecting buffer JAO 
TOTAL TIME for half transformation         ...     0.810 sec
AO-integral generation                     ...     0.772 sec
Half transformation                        ...     0.010 sec
J-integral sorting                         ...     0.021 sec

-------------------------- SECOND HALF TRANSFORMATION -------------------------
Formation of (ij|kl),(ij|ka), (ij|ab)      ... ok (     0.050 sec)
Formation of (ik|jl),(ik|ja), (ia|jb)      ... ok (     0.081 sec)


-----------------------
SPIN UNRESTRICTED GUESS
-----------------------

Entering MDCI_UHF_Guess, Tailored=0
Spin-components of the MP2 energy:
EMP2(aa)=     -0.153211497
EMP2(bb)=     -0.106379192
EMP2(ab)=     -0.514774150

Initial guess performed in     0.034 sec
E(0)                                       ...  -1506.829396169
E(MP2)                                     ...     -0.774364839
Initial E(tot)                             ...  -1507.603761008
<T|T>                                      ...      0.114689122
Number of pairs included                   ... 153

------------------------------------------------
                  UHF COUPLED CLUSTER ITERATIONS
------------------------------------------------

Number of amplitudes to be optimized       ...       860865

Iter       E(tot)           E(Corr)          Delta-E          Residual     Time      <S|S>**1/2
  0  -1507.603761008     -0.774364839     -0.000000000      0.038625616    1.68      0.000000492
                           *** Turning on DIIS ***
  1  -1507.489431944     -0.660035775      0.114329064      0.015882480    1.68      0.080778310
  2  -1507.526543965     -0.697147796     -0.037112021      0.006249064    1.75      0.062075262
  3  -1507.525972790     -0.696576621      0.000571175      0.004630804    1.78      0.077361908
  4  -1507.527305758     -0.697909589     -0.001332968      0.002765042    1.82      0.084820922
  5  -1507.528177529     -0.698781360     -0.000871771      0.001096603    1.87      0.091684056
  6  -1507.528377352     -0.698981183     -0.000199823      0.000349071    1.86      0.094427965
  7  -1507.528380053     -0.698983884     -0.000002701      0.000074113    1.91      0.095389053
  8  -1507.528394334     -0.698998165     -0.000014281      0.000031589    1.87      0.095509272
  9  -1507.528395874     -0.698999705     -0.000001540      0.000013204    1.88      0.095546356
 10  -1507.528392879     -0.698996710      0.000002995      0.000007507    1.89      0.095543062
 11  -1507.528395281     -0.698999112     -0.000002402      0.000007312    1.85      0.095540726
 12  -1507.528394731     -0.698998562      0.000000550      0.000007332    1.89      0.095535597
 13  -1507.528394419     -0.698998249      0.000000312      0.000007216    1.85      0.095531268
 14  -1507.528394369     -0.698998200      0.000000049      0.000007211    1.85      0.095530315
 15  -1507.528394289     -0.698998120      0.000000081      0.000007121    1.85      0.095529780
 16  -1507.528394330     -0.698998161     -0.000000042      0.000007000    1.92      0.095529655
 17  -1507.528394372     -0.698998203     -0.000000042      0.000006356    1.84      0.095530182
 18  -1507.528394353     -0.698998184      0.000000019      0.000005217    1.93      0.095531517
 19  -1507.528394655     -0.698998486     -0.000000302      0.000002753    1.88      0.095539038
 20  -1507.528394257     -0.698998088      0.000000398      0.000001003    1.89      0.095546122
 21  -1507.528394298     -0.698998128     -0.000000041      0.000000477    1.88      0.095550466
               --- The Coupled-Cluster iterations have converged ---

----------------------
COUPLED CLUSTER ENERGY
----------------------

E(0)                                       ...  -1506.829396169
E(CORR)                                    ...     -0.698998128
E(TOT)                                     ...  -1507.528394298
Singles norm <S|S>**1/2                    ...      0.095550466 ( 0.059662049, 0.035888417)  
T1 diagnostic                              ...      0.022521461                              

------------------
LARGEST AMPLITUDES
------------------
  14a-> 18a  -1a-> -1a       0.067310
  14a-> 27a  -1a-> -1a       0.039837
  12b-> 25b  -1b-> -1b       0.031613
  11b-> 24b  -1b-> -1b       0.031328
  10b-> 23b  -1b-> -1b       0.031309
   9b-> 22b  -1b-> -1b       0.028978
  13a-> 26a  -1a-> -1a       0.026622
   9b-> 31b  -1b-> -1b       0.026214
  12a-> 25a  -1a-> -1a       0.025688
  11a-> 24a  -1a-> -1a       0.025641
  10b-> 32b  -1b-> -1b       0.024785
  11b-> 33b  -1b-> -1b       0.024752
  12b-> 34b  -1b-> -1b       0.023888
   9a-> 22a  -1a-> -1a       0.022806
  10a-> 23a  -1a-> -1a       0.022011
   9a-> 31a  -1a-> -1a       0.021315

----------------------
UHF TRIPLES CORRECTION (Algorithm 1)
----------------------

Multiplier for the singles contribution    ...      1.000000000

SPIN-CASE Alpha-Alpha-Alpha:
10% done
20% done
30% done
40% done
50% done
60% done
70% done
80% done
90% done


SPIN-CASE Beta-Beta-Beta:
10% done
20% done
30% done
40% done
50% done
60% done
70% done
80% done
90% done


SPIN-CASE Alpha-Alpha-Beta:
10% done
20% done
30% done
40% done
50% done
60% done
70% done
80% done
90% done


SPIN-CASE Beta-Beta-Alpha:
10% done
20% done
30% done
40% done
50% done
60% done
70% done
80% done
90% done


Triples Correction (T)                     ...     -0.025052565
    alpha-alpha-alpha ... -0.001736496 (  6.9%)
    alpha-alpha-beta  ... -0.013388240 ( 53.4%)
    alpha-beta -beta  ... -0.009323409 ( 37.2%)
    beta -beta -beta  ... -0.000604419 (  2.4%)
Scaling of triples based on CCSD energies (Peterson et al. Molecular Physics 113, 1551 (2015))
E(T*) = f*E(T) where f = E(F12-CCSD)/E(CCSD) 
f = CCSD (with F12)/ CCSD (without F12)    ...      1.000000000
Scaled triples correction (T)              ...     -0.025052565

Final correlation energy                   ...     -0.724050693
E(CCSD)                                    ...  -1507.528394298
E(CCSD(T))                                 ...  -1507.553446862



        !!!!!!!!!!!!!!!!!!!!!!!!!!!!!!!!!!!!!!!!!!!!!!!!!!!!!!!!!!!!!!!!!!!!!!!!!! 
        !  Warning: Densities are linearized densities                           !
        !!!!!!!!!!!!!!!!!!!!!!!!!!!!!!!!!!!!!!!!!!!!!!!!!!!!!!!!!!!!!!!!!!!!!!!!!! 

NORM  =      1.112027315 sqrt=     1.054527058
W(HF) =      0.899258486
------------------------------------------------------------------------------
                           ORCA POPULATION ANALYSIS
------------------------------------------------------------------------------
Input electron density              ... 68_Ni.mdcip
Input spin density                  ... 68_Ni.mdcir
BaseName (.gbw .S,...)              ... 68_Ni

                    ********************************
                    * MULLIKEN POPULATION ANALYSIS *
                    ********************************

------------------------------------------
MULLIKEN ATOMIC CHARGES AND SPIN DENSITIES
------------------------------------------
   0 Ni:    0.000000    2.000000
Sum of atomic charges       :    0.0000000
Sum of atomic spin densities:    2.0000000

---------------------------------------------------
MULLIKEN REDUCED ORBITAL CHARGES AND SPIN DENSITIES
---------------------------------------------------
CHARGE
  0 Nis       :     6.987259  s :     6.987259
      pz      :     4.003415  p :    12.014303
      px      :     4.007419
      py      :     4.003470
      dz2     :     1.243458  d :     8.954846
      dxz     :     1.987902
      dyz     :     1.989001
      dx2y2   :     1.746600
      dxy     :     1.987885
      f0      :     0.004929  f :     0.038865
      f+1     :     0.005514
      f-1     :     0.005052
      f+2     :     0.005850
      f-2     :     0.006054
      f+3     :     0.005732
      f-3     :     0.005734
      g0      :     0.000495  g :     0.004727
      g+1     :     0.000520
      g-1     :     0.000489
      g+2     :     0.000523
      g-2     :     0.000532
      g+3     :     0.000548
      g-3     :     0.000548
      g+4     :     0.000536
      g-4     :     0.000536

SPIN
  0 Nis       :     0.985516  s :     0.985516
      pz      :     0.004368  p :     0.010632
      px      :     0.001930
      py      :     0.004334
      dz2     :     0.747768  d :     1.000829
      dxz     :     0.003213
      dyz     :     0.001870
      dx2y2   :     0.244745
      dxy     :     0.003233
      f0      :     0.001112  f :     0.002494
      f+1     :     0.000457
      f-1     :     0.000859
      f+2     :    -0.000040
      f-2     :    -0.000310
      f+3     :     0.000208
      f-3     :     0.000208
      g0      :     0.000116  g :     0.000529
      g+1     :     0.000081
      g-1     :     0.000108
      g+2     :     0.000056
      g-2     :     0.000036
      g+3     :     0.000010
      g-3     :     0.000010
      g+4     :     0.000056
      g-4     :     0.000056


                     *******************************
                     * LOEWDIN POPULATION ANALYSIS *
                     *******************************

-----------------------------------------
LOEWDIN ATOMIC CHARGES AND SPIN DENSITIES
-----------------------------------------
   0 Ni:    0.000000    2.000000

--------------------------------------------------
LOEWDIN REDUCED ORBITAL CHARGES AND SPIN DENSITIES
--------------------------------------------------
CHARGE
  0 Nis       :     6.987259  s :     6.987259
      pz      :     4.003415  p :    12.014303
      px      :     4.007419
      py      :     4.003470
      dz2     :     1.243458  d :     8.954846
      dxz     :     1.987902
      dyz     :     1.989001
      dx2y2   :     1.746600
      dxy     :     1.987885
      f0      :     0.004929  f :     0.038865
      f+1     :     0.005514
      f-1     :     0.005052
      f+2     :     0.005850
      f-2     :     0.006054
      f+3     :     0.005732
      f-3     :     0.005734
      g0      :     0.000495  g :     0.004727
      g+1     :     0.000520
      g-1     :     0.000489
      g+2     :     0.000523
      g-2     :     0.000532
      g+3     :     0.000548
      g-3     :     0.000548
      g+4     :     0.000536
      g-4     :     0.000536

SPIN
  0 Nis       :     0.985516  s :     0.985516
      pz      :     0.004368  p :     0.010632
      px      :     0.001930
      py      :     0.004334
      dz2     :     0.747768  d :     1.000829
      dxz     :     0.003213
      dyz     :     0.001870
      dx2y2   :     0.244745
      dxy     :     0.003233
      f0      :     0.001112  f :     0.002494
      f+1     :     0.000457
      f-1     :     0.000859
      f+2     :    -0.000040
      f-2     :    -0.000310
      f+3     :     0.000208
      f-3     :     0.000208
      g0      :     0.000116  g :     0.000529
      g+1     :     0.000081
      g-1     :     0.000108
      g+2     :     0.000056
      g-2     :     0.000036
      g+3     :     0.000010
      g-3     :     0.000010
      g+4     :     0.000056
      g-4     :     0.000056


                      *****************************
                      * MAYER POPULATION ANALYSIS *
                      *****************************

  NA   - Mulliken gross atomic population
  ZA   - Total nuclear charge
  QA   - Mulliken gross atomic charge
  VA   - Mayer's total valence
  BVA  - Mayer's bonded valence
  FA   - Mayer's free valence

  ATOM       NA         ZA         QA         VA         BVA        FA
  0 Ni    28.0000    28.0000     0.0000     2.6797     0.0000     2.6797





------------------------------------------------------------------------------- 
                                     TIMINGS                                   
------------------------------------------------------------------------------- 


Total execution time                   ...       47.866 sec

Fock Matrix Formation                  ...        0.476 sec (  1.0%)
Initial Guess                          ...        0.034 sec (  0.1%)
DIIS Solver                            ...        3.800 sec (  7.9%)
State Vector Update                    ...        0.176 sec (  0.4%)
Sigma-vector construction              ...       36.664 sec ( 76.6%)
  <0|H|D>                              ...        0.008 sec (  0.0% of sigma)
  <D|H|D>(0-ext Fock)                  ...        0.039 sec (  0.1% of sigma)
  <D|H|D>(0-ext)                       ...        0.121 sec (  0.3% of sigma)
  <D|H|D>(2-ext Fock)                  ...        0.012 sec (  0.0% of sigma)
  <D|H|D>(2-ext)                       ...        0.463 sec (  1.3% of sigma)
  <D|H|D>(4-ext)                       ...       20.330 sec ( 55.4% of sigma)
  <S|H|0>                              ...        1.257 sec (  3.4% of sigma)
  <S|H|S>                              ...        0.004 sec (  0.0% of sigma)
  <S|H|D>(1-ext)                       ...        0.009 sec (  0.0% of sigma)
  <D|H|S>(1-ext)                       ...        0.151 sec (  0.4% of sigma)
  Fock-dressing                        ...        8.063 sec ( 22.0% of sigma)
  (ik|jl)-dressing                     ...        0.160 sec (  0.4% of sigma)
  (ij|ab),(ia|jb)-dressing             ...        4.506 sec ( 12.3% of sigma)
  Pair energies                        ...        0.011 sec (  0.0% of sigma)
Total Time for computing (T)           ...        3.080 sec (  6.4% of ALL)
  I/O of integral and amplitudes       ...        0.827 sec ( 26.8% of (T))
  External N**7 contributions          ...        0.760 sec ( 24.7% of (T))
  Internal N**7 contributions          ...        0.438 sec ( 14.2% of (T))
  N**6 triples energy contributions    ...        0.966 sec ( 31.4% of (T))


-------------------
EXTRAPOLATED ENERGY
-------------------


-----------------------------------------------------------------
                      EP1 - MDCI extrapolation:
-----------------------------------------------------------------
NOTE: We use as reference SCF energy, for the extrapolation, the one from the MDCI module and not the one 
from the SCF calculation. In case the first step is a DFT calculation these two might be different.

NOTE: For the SCF part we extrapolate based on the scheme proposed in J. Chem. Phys. 2008, 129, 184116
using the exponents from J. Chem. Theory Comput., 7, 33-43 (2011)

NOTE: For the correlation part we extrapolate based on the scheme proposed in J. Chem. Phys. 1997, 106, 9639
using the exponents from J. Chem. Theory Comput., 7, 33-43 (2011)


Alpha(3/4)     :  7.880 (SCF Extrapolation)
Beta(3/4)      :  2.970 (correlation extrapolation)

SCF energy with basis def2-TZVPP:                     -1506.797373758
SCF energy with basis def2-QZVPP:                     -1506.829396169
Extrapolated CBS SCF energy (3/4) :                   -1506.833806894 (-0.004410725) 

MDCI energy with basis def2-TZVPP:                       -0.693574226
MDCI energy with basis def2-QZVPP:                       -0.724050693
Extrapolated CBS correlation energy (3/4) :              -0.746625837 (-0.022575144)

Estimated CBS total energy (3/4) :                    -1507.580432731



-------------------------   --------------------
FINAL SINGLE POINT ENERGY     -1507.580432731344
-------------------------   --------------------


                            ***************************************
                            *     ORCA property calculations      *
                            ***************************************

                                    ---------------------
                                    Active property flags
                                    ---------------------
   (+) Dipole Moment


------------------------------------------------------------------------------
                       ORCA ELECTRIC PROPERTIES CALCULATION
------------------------------------------------------------------------------

Dipole Moment Calculation                       ... on
Quadrupole Moment Calculation                   ... off
Polarizability Calculation                      ... off
GBWName                                         ... 68_Ni.gbw
Electron density file                           ... 68_Ni.scfp
The origin for moment calculation is the CENTER OF MASS  = ( 0.000000,  0.000000  0.000000)

-------------
DIPOLE MOMENT
-------------
                                X             Y             Z
Electronic contribution:      0.00000       0.00000       0.00000
Nuclear contribution   :      0.00000       0.00000       0.00000
                        -----------------------------------------
Total Dipole Moment    :      0.00000       0.00000       0.00000
                        -----------------------------------------
Magnitude (a.u.)       :      0.00000
Magnitude (Debye)      :      0.00000



--------------------
Rotational spectrum 
--------------------
 
Rotational constants in cm-1:     0.000000     0.000000     0.000000 
Rotational constants in MHz :     0.000000     0.000000     0.000000 

 Dipole components along the rotational axes: 
x,y,z [a.u.] :     0.000000     0.000000     0.000001 
x,y,z [Debye]:     0.000001     0.000000     0.000003 

 

                           *** MDCI DENSITY ***

------------------------------------------------------------------------------
                       ORCA ELECTRIC PROPERTIES CALCULATION
------------------------------------------------------------------------------

Dipole Moment Calculation                       ... on
Quadrupole Moment Calculation                   ... off
Polarizability Calculation                      ... off
GBWName                                         ... 68_Ni.gbw
Electron density file                           ... 68_Ni.mdcip
The origin for moment calculation is the CENTER OF MASS  = ( 0.000000,  0.000000  0.000000)

-------------
DIPOLE MOMENT
-------------
                                X             Y             Z
Electronic contribution:     -0.00000      -0.00000      -0.00000
Nuclear contribution   :      0.00000       0.00000       0.00000
                        -----------------------------------------
Total Dipole Moment    :     -0.00000      -0.00000      -0.00000
                        -----------------------------------------
Magnitude (a.u.)       :      0.00000
Magnitude (Debye)      :      0.00000



--------------------
Rotational spectrum 
--------------------
 
Rotational constants in cm-1:     0.000000     0.000000     0.000000 
Rotational constants in MHz :     0.000000     0.000000     0.000000 

 Dipole components along the rotational axes: 
x,y,z [a.u.] :    -0.000000    -0.000000    -0.000000 
x,y,z [Debye]:    -0.000000    -0.000000    -0.000000 

 

Timings for individual modules:

Sum of individual times         ...      130.695 sec (=   2.178 min)
GTO integral calculation        ...        2.132 sec (=   0.036 min)   1.6 %
SCF iterations                  ...       68.465 sec (=   1.141 min)  52.4 %
MDCI module                     ...       60.098 sec (=   1.002 min)  46.0 %
                             ****ORCA TERMINATED NORMALLY****
TOTAL RUN TIME: 0 days 0 hours 2 minutes 11 seconds 568 msec
