
                                 *****************
                                 * O   R   C   A *
                                 *****************

           --- An Ab Initio, DFT and Semiempirical electronic structure package ---

                  #######################################################
                  #                        -***-                        #
                  #          Department of theory and spectroscopy      #
                  #               Directorship: Frank Neese             #
                  #        Max Planck Institute fuer Kohlenforschung    #
                  #                Kaiser Wilhelm Platz 1               #
                  #                 D-45470 Muelheim/Ruhr               #
                  #                      Germany                        #
                  #                                                     #
                  #                  All rights reserved                #
                  #                        -***-                        #
                  #######################################################


                         Program Version 4.2.0 -  RELEASE  -


 With contributions from (in alphabetic order):
   Daniel Aravena         : Magnetic Suceptibility
   Michael Atanasov       : Ab Initio Ligand Field Theory (pilot matlab implementation)
   Alexander A. Auer      : GIAO ZORA, VPT2
   Ute Becker             : Parallelization
   Giovanni Bistoni       : ED, misc. LED, open-shell LED, HFLED
   Martin Brehm           : Molecular dynamics
   Dmytro Bykov           : SCF Hessian
   Vijay G. Chilkuri      : MRCI spin determinant printing, contributions to CSF-ICE
   Dipayan Datta          : RHF DLPNO-CCSD density
   Achintya Kumar Dutta   : EOM-CC, STEOM-CC
   Dmitry Ganyushin       : Spin-Orbit,Spin-Spin,Magnetic field MRCI
   Miquel Garcia          : C-PCM Hessian, Gaussian charge scheme
   Yang Guo               : DLPNO-NEVPT2, CIM, IAO-localization
   Andreas Hansen         : Spin unrestricted coupled pair/coupled cluster methods
   Benjamin Helmich-Paris : CASSCF linear response (MC-RPA)
   Lee Huntington         : MR-EOM, pCC
   Robert Izsak           : Overlap fitted RIJCOSX, COSX-SCS-MP3, EOM
   Christian Kollmar      : KDIIS, OOCD, Brueckner-CCSD(T), CCSD density
   Simone Kossmann        : Meta GGA functionals, TD-DFT gradient, OOMP2, MP2 Hessian
   Martin Krupicka        : AUTO-CI
   Lucas Lang             : DCDCAS
   Dagmar Lenk            : GEPOL surface, SMD
   Dimitrios Liakos       : Extrapolation schemes; Compound Job, initial MDCI parallelization
   Dimitrios Manganas     : Further ROCIS development; embedding schemes
   Dimitrios Pantazis     : SARC Basis sets
   Taras Petrenko         : DFT Hessian,TD-DFT gradient, ASA, ECA, R-Raman, ABS, FL, XAS/XES, NRVS
   Peter Pinski           : DLPNO-MP2, DLPNO-MP2 Gradient
   Christoph Reimann      : Effective Core Potentials
   Marius Retegan         : Local ZFS, SOC
   Christoph Riplinger    : Optimizer, TS searches, QM/MM, DLPNO-CCSD(T), (RO)-DLPNO pert. Triples
   Tobias Risthaus        : Range-separated hybrids, TD-DFT gradient, RPA, STAB
   Michael Roemelt        : Original ROCIS implementation
   Masaaki Saitow         : Open-shell DLPNO-CCSD energy and density
   Barbara Sandhoefer     : DKH picture change effects
   Avijit Sen             : IP-ROCIS
   Kantharuban Sivalingam : CASSCF convergence, NEVPT2, FIC-MRCI
   Bernardo de Souza      : ESD, SOC TD-DFT
   Georgi Stoychev        : AutoAux, RI-MP2 NMR
   Willem Van den Heuvel  : Paramagnetic NMR
   Boris Wezisla          : Elementary symmetry handling
   Frank Wennmohs         : Technical directorship


 We gratefully acknowledge several colleagues who have allowed us to
 interface, adapt or use parts of their codes:
   Stefan Grimme, W. Hujo, H. Kruse,             : VdW corrections, initial TS optimization,
                  C. Bannwarth                     DFT functionals, gCP, sTDA/sTD-DF
   Ed Valeev, F. Pavosevic, A. Kumar             : LibInt (2-el integral package), F12 methods
   Garnet Chan, S. Sharma, J. Yang, R. Olivares  : DMRG
   Ulf Ekstrom                                   : XCFun DFT Library
   Mihaly Kallay                                 : mrcc  (arbitrary order and MRCC methods)
   Andreas Klamt, Michael Diedenhofen            : otool_cosmo (COSMO solvation model)
   Jiri Pittner, Ondrej Demel                    : Mk-CCSD
   Frank Weinhold                                : gennbo (NPA and NBO analysis)
   Christopher J. Cramer and Donald G. Truhlar   : smd solvation model
   Lars Goerigk                                  : TD-DFT with DH, B97 family of functionals
   V. Asgeirsson, H. Jonsson                     : NEB implementation
   FAccTs GmbH                                   : IRC, NEB, NEB-TS, Multilevel, MM, QM/MM, CI optimization
   S Lehtola, MJT Oliveira, MAL Marques          : LibXC Library


 Your calculation uses the libint2 library for the computation of 2-el integrals
 For citations please refer to: http://libint.valeyev.net

 Your ORCA version has been built with support for libXC version: 4.2.3
 For citations please refer to: https://tddft.org/programs/libxc/

 This ORCA versions uses:
   CBLAS   interface :  Fast vector & matrix operations
   LAPACKE interface :  Fast linear algebra routines
   SCALAPACK package :  Parallel linear algebra routines


----- Orbital basis set information -----
Your calculation utilizes the basis: def2-TZVPP
   F. Weigend and R. Ahlrichs, Phys. Chem. Chem. Phys. 7, 3297 (2005).

================================================================================
                                        WARNINGS
                       Please study these warnings very carefully!
================================================================================


WARNING: your system is open-shell and RHF/RKS was chosen
  ===> : WILL SWITCH to UHF/UKS


WARNING: MDCI localization with Augmented Hessian Foster-Boys
  ===> : Switching off randomization!

WARNING: Post HF methods need fully converged wavefunctions
  ===> : Setting SCFConvForced true
         You can overwrite this default with %scf ConvForced false 


INFO   : the flag for use of LIBINT has been found!

================================================================================
                                       INPUT FILE
================================================================================
NAME = 69_Cu.in
|  1> #
|  2> # 69_Cu ccsd(t)/cbs
|  3> #
|  4> ! ccsd(t) extrapolate(3/4,def2) verytightscf
|  5> 
|  6> *xyz 0 2
|  7> Cu 0.0 0.0 0.0
|  8> *
|  9> 
| 10> %maxcore 5000
| 11> %pal
| 12> nprocs 24
| 13> end
| 14> 
| 15> 
| 16>                          ****END OF INPUT****
================================================================================

                   *****************************************
                   * Extrapolated Single Point Calculation *
                   *****************************************

----- Orbital basis set information -----
Your calculation utilizes the basis: def2-TZVPP
   F. Weigend and R. Ahlrichs, Phys. Chem. Chem. Phys. 7, 3297 (2005).

----- AuxJ basis set information -----
Your calculation utilizes the auxiliary basis: def2/J
   F. Weigend, Phys. Chem. Chem. Phys. 8, 1057 (2006).

----- AuxC basis set information -----
Your calculation utilizes the auxiliary basis: def2-TZVPP/C
  H-La, Hf-Rn : A. Hellweg, C. Hattig, S. Hofener and W. Klopper, Theor. Chem. Acc. 117, 587 (2007).
        Ce-Lu : J. Chmela and M. E. Harding, Mol. Phys. (2018).

----- AuxJK basis set information -----
Your calculation utilizes the auxiliary basis: def2/JK
   H-Ba, Hf-Rn: F. Weigend, J. Comput. Chem. 29, 167 (2008).

All done

                     -----------------------------------------
                     Extrapolated Energy 1 Basis=  def2-TZVPP
                     -----------------------------------------

---------------------------------
CARTESIAN COORDINATES (ANGSTROEM)
---------------------------------
  Cu     0.000000    0.000000    0.000000

----------------------------
CARTESIAN COORDINATES (A.U.)
----------------------------
  NO LB      ZA    FRAG     MASS         X           Y           Z
   0 Cu   29.0000    0    63.550    0.000000    0.000000    0.000000

--------------------------------
INTERNAL COORDINATES (ANGSTROEM)
--------------------------------
 Cu     0   0   0     0.000000000000     0.00000000     0.00000000

---------------------------
INTERNAL COORDINATES (A.U.)
---------------------------
 Cu     0   0   0     0.000000000000     0.00000000     0.00000000

---------------------
BASIS SET INFORMATION
---------------------
There are 1 groups of distinct atoms

 Group   1 Type Cu  : 17s12p7d2f1g contracted to 6s5p4d2f1g pattern {842111/63111/4111/11/1}

Atom   0Cu   basis set group =>   1
---------------------------------
AUXILIARY/J BASIS SET INFORMATION
---------------------------------
There are 1 groups of distinct atoms

 Group   1 Type Cu  : 19s5p5d3f3g contracted to 8s5p4d3f3g pattern {121111111/11111/2111/111/111}

Atom   0Cu   basis set group =>   1
---------------------------------
AUXILIARY/C BASIS SET INFORMATION
---------------------------------
There are 1 groups of distinct atoms

 Group   1 Type Cu  : 9s9p8d7f5g3h1i contracted to 9s9p8d7f5g3h1i pattern {111111111/111111111/11111111/1111111/11111/111/1}

Atom   0Cu   basis set group =>   1
----------------------------------
AUXILIARY/JK BASIS SET INFORMATION
----------------------------------
There are 1 groups of distinct atoms

 Group   1 Type Cu  : 19s14p12d10f7g3h1i contracted to 16s13p11d9f5g3h1i pattern {4111111111111111/2111111111111/21111111111/211111111/31111/111/1}

Atom   0Cu   basis set group =>   1


           ************************************************************
           *        Program running with 24 parallel MPI-processes    *
           *              working on a common directory               *
           ************************************************************
------------------------------------------------------------------------------
                           ORCA GTO INTEGRAL CALCULATION
------------------------------------------------------------------------------

                         BASIS SET STATISTICS AND STARTUP INFO

 # of primitive gaussian shells          ...   39
 # of primitive gaussian functions       ...  111
 # of contracted shells                  ...   18
 # of contracted basis functions         ...   64
 Highest angular momentum                ...    4
 Maximum contraction depth               ...    8
 Integral package used                   ... LIBINT
 Integral threshhold            Thresh   ...  1.000e-12
 Primitive cut-off              TCut     ...  1.000e-14


------------------------------ INTEGRAL EVALUATION ----------------------------


 * One electron integrals 
 Pre-screening matrix                    ... done
 Shell pair data                         ... done (   0.000 sec)



           ************************************************************
           *        Program running with 24 parallel MPI-processes    *
           *              working on a common directory               *
           ************************************************************
-------------------------------------------------------------------------------
                                 ORCA SCF
-------------------------------------------------------------------------------

------------
SCF SETTINGS
------------
Hamiltonian:
 Ab initio Hamiltonian  Method          .... Hartree-Fock(GTOs)


General Settings:
 Integral files         IntName         .... 69_Cu
 Hartree-Fock type      HFTyp           .... UHF
 Total Charge           Charge          ....    0
 Multiplicity           Mult            ....    2
 Number of Electrons    NEL             ....   29
 Basis Dimension        Dim             ....   64
 Nuclear Repulsion      ENuc            ....      0.0000000000 Eh

Convergence Acceleration:
 DIIS                   CNVDIIS         .... on
   Start iteration      DIISMaxIt       ....    12
   Startup error        DIISStart       ....  0.200000
   # of expansion vecs  DIISMaxEq       ....     5
   Bias factor          DIISBfac        ....   1.050
   Max. coefficient     DIISMaxC        ....  10.000
 Newton-Raphson         CNVNR           .... off
 SOSCF                  CNVSOSCF        .... off
 Level Shifting         CNVShift        .... on
   Level shift para.    LevelShift      ....    0.2500
   Turn off err/grad.   ShiftErr        ....    0.0010
 Zerner damping         CNVZerner       .... off
 Static damping         CNVDamp         .... on
   Fraction old density DampFac         ....    0.7000
   Max. Damping (<1)    DampMax         ....    0.9800
   Min. Damping (>=0)   DampMin         ....    0.0000
   Turn off err/grad.   DampErr         ....    0.1000
 Fernandez-Rico         CNVRico         .... off

SCF Procedure:
 Maximum # iterations   MaxIter         ....   125
 SCF integral mode      SCFMode         .... Direct
   Integral package                     .... LIBINT
 Reset frequency        DirectResetFreq ....    20
 Integral Threshold     Thresh          ....  1.000e-12 Eh
 Primitive CutOff       TCut            ....  1.000e-14 Eh

Convergence Tolerance:
 Convergence Check Mode ConvCheckMode   .... Total+1el-Energy
 Convergence forced     ConvForced      .... 1
 Energy Change          TolE            ....  1.000e-09 Eh
 1-El. energy change                    ....  1.000e-06 Eh
 DIIS Error             TolErr          ....  1.000e-08


Diagonalization of the overlap matrix:
Smallest eigenvalue                        ... 7.073e-02
Time for diagonalization                   ...    0.002 sec
Threshold for overlap eigenvalues          ... 1.000e-08
Number of eigenvalues below threshold      ... 0
Time for construction of square roots      ...    0.001 sec
Total time needed                          ...    0.003 sec

-------------------
DFT GRID GENERATION
-------------------

General Integration Accuracy     IntAcc      ...  4.340
Radial Grid Type                 RadialGrid  ... Gauss-Chebyshev
Angular Grid (max. acc.)         AngularGrid ... Lebedev-110
Angular grid pruning method      GridPruning ... 3 (G Style)
Weight generation scheme         WeightScheme... Becke
Basis function cutoff            BFCut       ...    1.0000e-12
Integration weight cutoff        WCut        ...    1.0000e-14
Grids for H and He will be reduced by one unit

# of grid points (after initial pruning)     ...   2912 (   0.0 sec)
# of grid points (after weights+screening)   ...   2912 (   0.0 sec)
Grid point division into batches done        ...    0.0 sec
Reduced shell lists constructed in    0.0 sec

Total number of grid points                  ...     2912
Total number of batches                      ...       46
Average number of points per batch           ...       63
Average number of grid points per atom       ...     2912
Average number of shells per batch           ...     4.00 (22.22%)
Average number of basis functions per batch  ...    12.00 (18.75%)
Average number of large shells per batch     ...     4.00 (100.00%)
Average number of large basis fcns per batch ...    12.00 (100.00%)
Maximum spatial batch extension              ...  17.39, 26.34, 26.34 au
Average spatial batch extension              ...   0.76,  1.15,  1.15 au

Time for grid setup =    0.022 sec

------------------------------
INITIAL GUESS: MODEL POTENTIAL
------------------------------
Loading Hartree-Fock densities                     ... done
Calculating cut-offs                               ... done
Setting up the integral package                    ... done
Initializing the effective Hamiltonian             ... done
Starting the Coulomb interaction                   ... done (   0.0 sec)
Reading the grid                                   ... done
Mapping shells                                     ... done
Starting the XC term evaluation                    ... done (   0.0 sec)
Transforming the Hamiltonian                       ... done (   0.0 sec)
Diagonalizing the Hamiltonian                      ... done (   0.0 sec)
Back transforming the eigenvectors                 ... done (   0.0 sec)
Now organizing SCF variables                       ... done
                      ------------------
                      INITIAL GUESS DONE (   0.2 sec)
                      ------------------
--------------
SCF ITERATIONS
--------------
ITER       Energy         Delta-E        Max-DP      RMS-DP      [F,P]     Damp
               ***  Starting incremental Fock matrix formation  ***
  0  -1638.8850189850   0.000000000000 0.05858811  0.00095732  0.1958202 0.7000
  1  -1638.8974247606  -0.012405775541 0.06701212  0.00090597  0.0851889 0.7000
                               ***Turning on DIIS***
  2  -1638.9039817914  -0.006557030825 0.20177924  0.00263832  0.0542334 0.0000
  3  -1638.7971341076   0.106847683761 0.05853827  0.00080887  0.0248018 0.0000
  4  -1639.1470236236  -0.349889515953 0.04965639  0.00068755  0.0188252 0.0000
  5  -1638.9233163526   0.223707270990 0.04127504  0.00058198  0.0048815 0.0000
  6  -1638.9372252541  -0.013908901483 0.03100892  0.00045028  0.0029644 0.0000
  7  -1638.9342421356   0.002983118509 0.01518369  0.00022520  0.0014889 0.0000
  8  -1638.9302555641   0.003986571421 0.01195839  0.00017984  0.0007357 0.0000
  9  -1638.9247797552   0.005475808923 0.00244068  0.00003712  0.0001230 0.0000
 10  -1638.9234188591   0.001360896124 0.00011287  0.00000232  0.0000277 0.0000
 11  -1638.9233097193   0.000109139750 0.00013136  0.00000248  0.0000102 0.0000
 12  -1638.9232348287   0.000074890658 0.00003267  0.00000138  0.0000055 0.0000
 13  -1638.9231804003   0.000054428372 0.00000864  0.00000030  0.0000009 0.0000
 14  -1638.9231748678   0.000005532537 0.00000030  0.00000001  0.0000001 0.0000
                            ***DIIS convergence achieved***

               *****************************************************
               *                     SUCCESS                       *
               *           SCF CONVERGED AFTER  15 CYCLES          *
               *****************************************************


----------------
TOTAL SCF ENERGY
----------------

Total Energy       :        -1638.92317476 Eh          -44597.36687 eV

Components:
Nuclear Repulsion  :            0.00000000 Eh               0.00000 eV
Electronic Energy  :        -1638.92317476 Eh          -44597.36687 eV
One Electron Energy:        -2289.72296902 Eh          -62306.52959 eV
Two Electron Energy:          650.79979426 Eh           17709.16272 eV

Virial components:
Potential Energy   :        -3277.72506826 Eh          -89191.43351 eV
Kinetic Energy     :         1638.80189350 Eh           44594.06664 eV
Virial Ratio       :            2.00007401


---------------
SCF CONVERGENCE
---------------

  Last Energy change         ...    1.0552e-07  Tolerance :   1.0000e-09
  Last MAX-Density change    ...    1.0717e-07  Tolerance :   1.0000e-08
  Last RMS-Density change    ...    2.1082e-09  Tolerance :   1.0000e-09
  Last DIIS Error            ...    6.5401e-09  Tolerance :   1.0000e-08

             **** THE GBW FILE WAS UPDATED (69_Cu.gbw) ****
             **** DENSITY FILE WAS UPDATED (69_Cu.scfp) ****
             **** ENERGY FILE WAS UPDATED (69_Cu.en.tmp) ****
----------------------
UHF SPIN CONTAMINATION
----------------------

Expectation value of <S**2>     :     0.751937
Ideal value S*(S+1) for S=0.5   :     0.750000
Deviation                       :     0.001937

             **** THE GBW FILE WAS UPDATED (69_Cu.gbw) ****
             **** DENSITY FILE WAS UPDATED (69_Cu.scfp) ****
----------------
ORBITAL ENERGIES
----------------
                 SPIN UP ORBITALS
  NO   OCC          E(Eh)            E(eV) 
   0   1.0000    -328.798737     -8947.0685 
   1   1.0000     -40.822830     -1110.8457 
   2   1.0000     -35.620956      -969.2955 
   3   1.0000     -35.620956      -969.2955 
   4   1.0000     -35.620956      -969.2955 
   5   1.0000      -5.014576      -136.4535 
   6   1.0000      -3.324452       -90.4629 
   7   1.0000      -3.324452       -90.4629 
   8   1.0000      -3.324452       -90.4629 
   9   1.0000      -0.489490       -13.3197 
  10   1.0000      -0.489490       -13.3197 
  11   1.0000      -0.489490       -13.3197 
  12   1.0000      -0.489490       -13.3197 
  13   1.0000      -0.489490       -13.3197 
  14   1.0000      -0.240230        -6.5370 
  15   0.0000       0.114620         3.1190 
  16   0.0000       0.114620         3.1190 
  17   0.0000       0.114620         3.1190 
  18   0.0000       0.180915         4.9229 
  19   0.0000       0.258851         7.0437 
  20   0.0000       0.258851         7.0437 
  21   0.0000       0.258851         7.0437 
  22   0.0000       0.258851         7.0437 
  23   0.0000       0.258851         7.0437 
  24   0.0000       0.751755        20.4563 
  25   0.0000       0.751755        20.4563 
  26   0.0000       0.751755        20.4563 
  27   0.0000       1.094076        29.7713 
  28   0.0000       1.094076        29.7713 
  29   0.0000       1.094076        29.7713 
  30   0.0000       1.094076        29.7713 
  31   0.0000       1.094076        29.7713 
  32   0.0000       3.376908        91.8903 
  33   0.0000       3.376908        91.8903 
  34   0.0000       3.376908        91.8903 
  35   0.0000       3.405272        92.6622 
  36   0.0000       3.832655       104.2918 
  37   0.0000       3.832655       104.2918 
  38   0.0000       3.832655       104.2918 
  39   0.0000       3.832655       104.2918 
  40   0.0000       3.832655       104.2918 
  41   0.0000       3.832655       104.2918 
  42   0.0000       3.832655       104.2918 
  43   0.0000       4.220881       114.8560 
  44   0.0000       4.220881       114.8560 
  45   0.0000       4.220881       114.8560 
  46   0.0000       4.220881       114.8560 
  47   0.0000       4.220881       114.8560 
  48   0.0000      13.774849       374.8327 
  49   0.0000      13.774849       374.8327 
  50   0.0000      13.774849       374.8327 
  51   0.0000      13.774849       374.8327 
  52   0.0000      13.774849       374.8327 
  53   0.0000      13.774849       374.8327 
  54   0.0000      13.774849       374.8327 
  55   0.0000      13.774849       374.8327 
  56   0.0000      13.774849       374.8327 
  57   0.0000      14.026931       381.6922 
  58   0.0000      14.026931       381.6922 
  59   0.0000      14.026931       381.6922 
  60   0.0000      14.026931       381.6922 
  61   0.0000      14.026931       381.6922 
  62   0.0000      14.026931       381.6922 
  63   0.0000      14.026931       381.6922 

                 SPIN DOWN ORBITALS
  NO   OCC          E(Eh)            E(eV) 
   0   1.0000    -328.797026     -8947.0219 
   1   1.0000     -40.823705     -1110.8695 
   2   1.0000     -35.623657      -969.3690 
   3   1.0000     -35.623657      -969.3690 
   4   1.0000     -35.623657      -969.3690 
   5   1.0000      -5.013861      -136.4341 
   6   1.0000      -3.329692       -90.6055 
   7   1.0000      -3.329692       -90.6055 
   8   1.0000      -3.329692       -90.6055 
   9   1.0000      -0.493739       -13.4353 
  10   1.0000      -0.493739       -13.4353 
  11   1.0000      -0.493739       -13.4353 
  12   1.0000      -0.493739       -13.4353 
  13   1.0000      -0.493739       -13.4353 
  14   0.0000       0.018817         0.5120 
  15   0.0000       0.173406         4.7186 
  16   0.0000       0.173406         4.7186 
  17   0.0000       0.173406         4.7186 
  18   0.0000       0.231417         6.2972 
  19   0.0000       0.274820         7.4782 
  20   0.0000       0.274820         7.4782 
  21   0.0000       0.274820         7.4782 
  22   0.0000       0.274820         7.4782 
  23   0.0000       0.274820         7.4782 
  24   0.0000       0.780132        21.2285 
  25   0.0000       0.780132        21.2285 
  26   0.0000       0.780132        21.2285 
  27   0.0000       1.112451        30.2713 
  28   0.0000       1.112451        30.2713 
  29   0.0000       1.112451        30.2713 
  30   0.0000       1.112451        30.2713 
  31   0.0000       1.112451        30.2713 
  32   0.0000       3.383751        92.0765 
  33   0.0000       3.383751        92.0765 
  34   0.0000       3.383751        92.0765 
  35   0.0000       3.422748        93.1377 
  36   0.0000       3.838026       104.4380 
  37   0.0000       3.838026       104.4380 
  38   0.0000       3.838026       104.4380 
  39   0.0000       3.838026       104.4380 
  40   0.0000       3.838026       104.4380 
  41   0.0000       3.838026       104.4380 
  42   0.0000       3.838026       104.4380 
  43   0.0000       4.222510       114.9004 
  44   0.0000       4.222510       114.9004 
  45   0.0000       4.222510       114.9004 
  46   0.0000       4.222510       114.9004 
  47   0.0000       4.222510       114.9004 
  48   0.0000      13.772753       374.7757 
  49   0.0000      13.772753       374.7757 
  50   0.0000      13.772753       374.7757 
  51   0.0000      13.772753       374.7757 
  52   0.0000      13.772753       374.7757 
  53   0.0000      13.772753       374.7757 
  54   0.0000      13.772753       374.7757 
  55   0.0000      13.772753       374.7757 
  56   0.0000      13.772753       374.7757 
  57   0.0000      14.022541       381.5727 
  58   0.0000      14.022541       381.5727 
  59   0.0000      14.022541       381.5727 
  60   0.0000      14.022541       381.5727 
  61   0.0000      14.022541       381.5727 
  62   0.0000      14.022541       381.5727 
  63   0.0000      14.022541       381.5727 

                    ********************************
                    * MULLIKEN POPULATION ANALYSIS *
                    ********************************

--------------------------------------------
MULLIKEN ATOMIC CHARGES AND SPIN POPULATIONS
--------------------------------------------
   0 Cu:   -0.000000    1.000000
Sum of atomic charges         :   -0.0000000
Sum of atomic spin populations:    1.0000000

-----------------------------------------------------
MULLIKEN REDUCED ORBITAL CHARGES AND SPIN POPULATIONS
-----------------------------------------------------
CHARGE
  0 Cus       :     7.000000  s :     7.000000
      pz      :     4.000000  p :    12.000000
      px      :     4.000000
      py      :     4.000000
      dz2     :     2.000000  d :    10.000000
      dxz     :     2.000000
      dyz     :     2.000000
      dx2y2   :     2.000000
      dxy     :     2.000000
      f0      :     0.000000  f :     0.000000
      f+1     :     0.000000
      f-1     :     0.000000
      f+2     :     0.000000
      f-2     :     0.000000
      f+3     :     0.000000
      f-3     :     0.000000
      g0      :     0.000000  g :     0.000000
      g+1     :     0.000000
      g-1     :     0.000000
      g+2     :     0.000000
      g-2     :     0.000000
      g+3     :     0.000000
      g-3     :     0.000000
      g+4     :     0.000000
      g-4     :     0.000000

SPIN
  0 Cus       :     1.000000  s :     1.000000
      pz      :    -0.000000  p :    -0.000000
      px      :    -0.000000
      py      :    -0.000000
      dz2     :    -0.000000  d :    -0.000000
      dxz     :    -0.000000
      dyz     :     0.000000
      dx2y2   :    -0.000000
      dxy     :    -0.000000
      f0      :     0.000000  f :     0.000000
      f+1     :     0.000000
      f-1     :     0.000000
      f+2     :    -0.000000
      f-2     :    -0.000000
      f+3     :     0.000000
      f-3     :     0.000000
      g0      :     0.000000  g :     0.000000
      g+1     :     0.000000
      g-1     :     0.000000
      g+2     :     0.000000
      g-2     :     0.000000
      g+3     :     0.000000
      g-3     :     0.000000
      g+4     :     0.000000
      g-4     :    -0.000000


                     *******************************
                     * LOEWDIN POPULATION ANALYSIS *
                     *******************************

-------------------------------------------
LOEWDIN ATOMIC CHARGES AND SPIN POPULATIONS
-------------------------------------------
   0 Cu:   -0.000000    1.000000

----------------------------------------------------
LOEWDIN REDUCED ORBITAL CHARGES AND SPIN POPULATIONS
----------------------------------------------------
CHARGE
  0 Cus       :     7.000000  s :     7.000000
      pz      :     4.000000  p :    12.000000
      px      :     4.000000
      py      :     4.000000
      dz2     :     2.000000  d :    10.000000
      dxz     :     2.000000
      dyz     :     2.000000
      dx2y2   :     2.000000
      dxy     :     2.000000
      f0      :     0.000000  f :     0.000000
      f+1     :     0.000000
      f-1     :     0.000000
      f+2     :     0.000000
      f-2     :     0.000000
      f+3     :     0.000000
      f-3     :     0.000000
      g0      :     0.000000  g :     0.000000
      g+1     :     0.000000
      g-1     :     0.000000
      g+2     :     0.000000
      g-2     :     0.000000
      g+3     :     0.000000
      g-3     :     0.000000
      g+4     :     0.000000
      g-4     :     0.000000

SPIN
  0 Cus       :     1.000000  s :     1.000000
      pz      :    -0.000000  p :    -0.000000
      px      :    -0.000000
      py      :    -0.000000
      dz2     :    -0.000000  d :    -0.000000
      dxz     :    -0.000000
      dyz     :     0.000000
      dx2y2   :    -0.000000
      dxy     :    -0.000000
      f0      :     0.000000  f :     0.000000
      f+1     :     0.000000
      f-1     :     0.000000
      f+2     :    -0.000000
      f-2     :    -0.000000
      f+3     :     0.000000
      f-3     :     0.000000
      g0      :     0.000000  g :     0.000000
      g+1     :     0.000000
      g-1     :     0.000000
      g+2     :     0.000000
      g-2     :     0.000000
      g+3     :     0.000000
      g-3     :     0.000000
      g+4     :     0.000000
      g-4     :    -0.000000


                      *****************************
                      * MAYER POPULATION ANALYSIS *
                      *****************************

  NA   - Mulliken gross atomic population
  ZA   - Total nuclear charge
  QA   - Mulliken gross atomic charge
  VA   - Mayer's total valence
  BVA  - Mayer's bonded valence
  FA   - Mayer's free valence

  ATOM       NA         ZA         QA         VA         BVA        FA
  0 Cu    29.0000    29.0000    -0.0000     1.0039     0.0000     1.0039

  Mayer bond orders larger than 0.100000


-------
TIMINGS
-------

Total SCF time: 0 days 0 hours 0 min 1 sec 

Total time                  ....       1.995 sec
Sum of individual times     ....       1.780 sec  ( 89.2%)

Fock matrix formation       ....       1.583 sec  ( 79.4%)
Diagonalization             ....       0.016 sec  (  0.8%)
Density matrix formation    ....       0.005 sec  (  0.2%)
Population analysis         ....       0.004 sec  (  0.2%)
Initial guess               ....       0.137 sec  (  6.9%)
Orbital Transformation      ....       0.000 sec  (  0.0%)
Orbital Orthonormalization  ....       0.000 sec  (  0.0%)
DIIS solution               ....       0.014 sec  (  0.7%)


           ************************************************************
           *        Program running with 24 parallel MPI-processes    *
           *              working on a common directory               *
           ************************************************************


------------------------------------------------------------------------------- 
                              ORCA-MATRIX DRIVEN CI                            
------------------------------------------------------------------------------- 

--------------------------------
AUTOMATIC CHOICE OF INCORE LEVEL
--------------------------------

Memory available                           ...   2500.00 MB
Memory needed for S+T                      ...      3.02 MB
Memory needed for J+K                      ...      6.09 MB
Memory needed for DIIS                     ...     42.31 MB
Memory needed for 3-ext                    ...      8.98 MB
Memory needed for 4-ext                    ...     22.44 MB
Memory needed for triples                  ...      4.49 MB
 -> Final InCoreLevel    ... 5
 -> check shows that triples correction can be computed


Wavefunction type
-----------------
Correlation treatment                      ...      CCSD     
Single excitations                         ... ON
Orbital optimization                       ... OFF
Calculation of Z vector                    ... OFF
Calculation of Brueckner orbitals          ... OFF
Perturbative triple excitations            ... ON
Calculation of F12 correction              ... OFF
Frozen core treatment                      ... chemical core (10 el)
Reference Wavefunction                     ... UHF
  Alpha-MOs occ    :     5 ...   14 ( 10 MO's/ 10 electrons)
  Beta-MOs occ     :     5 ...   13 (  9 MO's/  9 electrons)
  Alpha-MOs virt   :    15 ...   63 ( 49 MO's              )
  Beta-MOs virt    :    14 ...   63 ( 50 MO's              )
Number of AO's                             ...     64
Number of electrons                        ...     29
Number of correlated electrons             ...     19

Algorithmic settings
--------------------
Integral transformation                    ... AO direct full transformation
K(C) Formation                             ... FULL-MO TRAFO
Maximum number of iterations               ...        50
Convergence tolerance (max. residuum)      ... 1.000e-06
Level shift for amplitude update           ... 2.000e-01
Maximum number of DIIS vectors             ...         7
DIIS turned on at iteration                ...         0
Damping before turning on DIIS             ...     0.500
Damping after turning on DIIS              ...     0.000
Pair specific amplitude update             ... OFF
Natural orbital iterations                 ... OFF
Perturbative natural orbital generation    ... OFF
Printlevel                                 ... 2

Memory handling:
----------------
Maximum memory for working arrays          ...   2500 MB
Data storage in matrix containers          ... UNCOMPRESSED
Data type for integral storage             ... DOUBLE
In-Core Storage of quantities:
   Amplitudes+Sigma Vector      ... YES
   J+K operators                ... YES
   DIIS vectors                 ... YES
   3-external integrals         ... YES
   4-external integrals         ... YES


Initializing the integral package          ... done
Warning: reference  - re-canonicalizations have been set to INT 1 VIRT 1

--------------------------
UNRESTRICTED FOCK OPERATOR
--------------------------

<ss|ss>:          231 b            0 skpd (  0.0%)    0.000 s ( 0.002 ms/b)
<ss|sp>:          630 b            0 skpd (  0.0%)    0.001 s ( 0.001 ms/b)
<ss|sd>:          504 b            0 skpd (  0.0%)    0.001 s ( 0.001 ms/b)
<ss|sf>:          252 b            0 skpd (  0.0%)    0.000 s ( 0.002 ms/b)
<ss|sg>:          126 b            0 skpd (  0.0%)    0.000 s ( 0.002 ms/b)
<ss|pp>:          315 b            0 skpd (  0.0%)    0.001 s ( 0.002 ms/b)
<ss|pd>:          420 b            0 skpd (  0.0%)    0.001 s ( 0.003 ms/b)
<ss|pf>:          210 b            0 skpd (  0.0%)    0.000 s ( 0.001 ms/b)
<ss|pg>:          105 b            0 skpd (  0.0%)    0.000 s ( 0.004 ms/b)
<ss|dd>:          210 b            0 skpd (  0.0%)    0.001 s ( 0.003 ms/b)
<ss|df>:          168 b            0 skpd (  0.0%)    0.000 s ( 0.002 ms/b)
<ss|dg>:           84 b            0 skpd (  0.0%)    0.000 s ( 0.005 ms/b)
<ss|ff>:           63 b            0 skpd (  0.0%)    0.000 s ( 0.005 ms/b)
<ss|fg>:           42 b            0 skpd (  0.0%)    0.000 s ( 0.006 ms/b)
<ss|gg>:           21 b            0 skpd (  0.0%)    0.000 s ( 0.015 ms/b)
<sp|sp>:          465 b            0 skpd (  0.0%)    0.001 s ( 0.001 ms/b)
<sp|sd>:          720 b            0 skpd (  0.0%)    0.001 s ( 0.001 ms/b)
<sp|sf>:          360 b            0 skpd (  0.0%)    0.001 s ( 0.002 ms/b)
<sp|sg>:          180 b            0 skpd (  0.0%)    0.001 s ( 0.003 ms/b)
<sp|pp>:          450 b            0 skpd (  0.0%)    0.001 s ( 0.003 ms/b)
<sp|pd>:          600 b            0 skpd (  0.0%)    0.002 s ( 0.004 ms/b)
<sp|pf>:          300 b            0 skpd (  0.0%)    0.001 s ( 0.002 ms/b)
<sp|pg>:          150 b            0 skpd (  0.0%)    0.001 s ( 0.006 ms/b)
<sp|dd>:          300 b            0 skpd (  0.0%)    0.002 s ( 0.005 ms/b)
<sp|df>:          240 b          227 skpd ( 94.6%)    0.000 s ( 0.024 ms/b)
<sp|dg>: done
<sp|ff>:           90 b           69 skpd ( 76.7%)    0.000 s ( 0.011 ms/b)
<sp|fg>:           60 b           54 skpd ( 90.0%)    0.000 s ( 0.023 ms/b)
<sp|gg>:           30 b           27 skpd ( 90.0%)    0.000 s ( 0.047 ms/b)
<sd|sd>:          300 b            0 skpd (  0.0%)    0.001 s ( 0.003 ms/b)
<sd|sf>:          288 b            0 skpd (  0.0%)    0.001 s ( 0.003 ms/b)
<sd|sg>:          144 b            0 skpd (  0.0%)    0.001 s ( 0.005 ms/b)
<sd|pp>:          360 b            0 skpd (  0.0%)    0.001 s ( 0.004 ms/b)
<sd|pd>:          480 b            0 skpd (  0.0%)    0.003 s ( 0.006 ms/b)
<sd|pf>:          240 b          233 skpd ( 97.1%)    0.000 s ( 0.019 ms/b)
<sd|pg>: done
<sd|dd>:          240 b            0 skpd (  0.0%)    0.002 s ( 0.009 ms/b)
<sd|df>:          192 b            0 skpd (  0.0%)    0.001 s ( 0.006 ms/b)
<sd|dg>:           96 b            0 skpd (  0.0%)    0.002 s ( 0.018 ms/b)
<sd|ff>: done
<sd|fg>: done
<sd|gg>:           24 b           23 skpd ( 95.8%)    0.000 s ( 0.108 ms/b)
<sf|sf>:           78 b            0 skpd (  0.0%)    0.000 s ( 0.002 ms/b)
<sf|sg>:           72 b            0 skpd (  0.0%)    0.000 s ( 0.007 ms/b)
<sf|pp>:          180 b            0 skpd (  0.0%)    0.001 s ( 0.005 ms/b)
<sf|pd>:          240 b          236 skpd ( 98.3%)    0.000 s ( 0.015 ms/b)
<sf|pf>:          120 b          117 skpd ( 97.5%)    0.000 s ( 0.020 ms/b)
<sf|pg>:           60 b           59 skpd ( 98.3%)    0.000 s ( 0.039 ms/b)
<sf|dd>:          120 b            0 skpd (  0.0%)    0.001 s ( 0.012 ms/b)
<sf|df>: done
<sf|dg>: done
<sf|ff>: done
<sf|fg>: done
<sf|gg>: done
<sg|sg>:           21 b            0 skpd (  0.0%)    0.000 s ( 0.011 ms/b)
<sg|pp>:           90 b            0 skpd (  0.0%)    0.001 s ( 0.010 ms/b)
<sg|pd>: done
<sg|pf>:           60 b           58 skpd ( 96.7%)    0.000 s ( 0.036 ms/b)
<sg|pg>: done
<sg|dd>:           60 b            0 skpd (  0.0%)    0.001 s ( 0.023 ms/b)
<sg|df>: done
<sg|dg>: done
<sg|ff>: done
<sg|fg>: done
<sg|gg>: done
<pp|pp>:          120 b            0 skpd (  0.0%)    0.001 s ( 0.010 ms/b)
<pp|pd>:          300 b            0 skpd (  0.0%)    0.002 s ( 0.008 ms/b)
<pp|pf>:          150 b            0 skpd (  0.0%)    0.001 s ( 0.005 ms/b)
<pp|pg>:           75 b            0 skpd (  0.0%)    0.001 s ( 0.016 ms/b)
<pp|dd>:          150 b            0 skpd (  0.0%)    0.002 s ( 0.012 ms/b)
<pp|df>:          120 b            0 skpd (  0.0%)    0.001 s ( 0.008 ms/b)
<pp|dg>:           60 b            0 skpd (  0.0%)    0.002 s ( 0.025 ms/b)
<pp|ff>:           45 b            0 skpd (  0.0%)    0.001 s ( 0.023 ms/b)
<pp|fg>:           30 b            0 skpd (  0.0%)    0.001 s ( 0.032 ms/b)
<pp|gg>:           15 b            0 skpd (  0.0%)    0.001 s ( 0.089 ms/b)
<pd|pd>:          210 b            0 skpd (  0.0%)    0.004 s ( 0.019 ms/b)
<pd|pf>:          200 b            0 skpd (  0.0%)    0.001 s ( 0.007 ms/b)
<pd|pg>:          100 b            0 skpd (  0.0%)    0.003 s ( 0.025 ms/b)
<pd|dd>:          200 b            0 skpd (  0.0%)    0.004 s ( 0.019 ms/b)
<pd|df>:          160 b            0 skpd (  0.0%)    0.002 s ( 0.014 ms/b)
<pd|dg>:           80 b            0 skpd (  0.0%)    0.003 s ( 0.042 ms/b)
<pd|ff>:           60 b           49 skpd ( 81.7%)    0.001 s ( 0.063 ms/b)
<pd|fg>:           40 b           37 skpd ( 92.5%)    0.000 s ( 0.108 ms/b)
<pd|gg>: done
<pf|pf>:           55 b            0 skpd (  0.0%)    0.001 s ( 0.011 ms/b)
<pf|pg>:           50 b            0 skpd (  0.0%)    0.002 s ( 0.031 ms/b)
<pf|dd>:          100 b            0 skpd (  0.0%)    0.002 s ( 0.022 ms/b)
<pf|df>:           80 b           74 skpd ( 92.5%)    0.000 s ( 0.057 ms/b)
<pf|dg>:           40 b           38 skpd ( 95.0%)    0.000 s ( 0.129 ms/b)
<pf|ff>:           30 b           24 skpd ( 80.0%)    0.000 s ( 0.063 ms/b)
<pf|fg>:           20 b           17 skpd ( 85.0%)    0.000 s ( 0.132 ms/b)
<pf|gg>:           10 b            7 skpd ( 70.0%)    0.001 s ( 0.216 ms/b)
<pg|pg>:           15 b            0 skpd (  0.0%)    0.001 s ( 0.059 ms/b)
<pg|dd>:           50 b            0 skpd (  0.0%)    0.002 s ( 0.044 ms/b)
<pg|df>:           40 b           39 skpd ( 97.5%)    0.000 s ( 0.296 ms/b)
<pg|dg>: done
<pg|ff>:           15 b           11 skpd ( 73.3%)    0.000 s ( 0.071 ms/b)
<pg|fg>:           10 b            9 skpd ( 90.0%)    0.000 s ( 0.313 ms/b)
<pg|gg>: done
<dd|dd>:           55 b            0 skpd (  0.0%)    0.003 s ( 0.056 ms/b)
<dd|df>:           80 b            0 skpd (  0.0%)    0.002 s ( 0.024 ms/b)
<dd|dg>:           40 b            0 skpd (  0.0%)    0.003 s ( 0.074 ms/b)
<dd|ff>:           30 b            0 skpd (  0.0%)    0.002 s ( 0.058 ms/b)
<dd|fg>:           20 b            0 skpd (  0.0%)    0.002 s ( 0.099 ms/b)
<dd|gg>:           10 b            0 skpd (  0.0%)    0.003 s ( 0.274 ms/b)
<df|df>:           36 b            0 skpd (  0.0%)    0.002 s ( 0.050 ms/b)
<df|dg>:           32 b            0 skpd (  0.0%)    0.003 s ( 0.083 ms/b)
<df|ff>: done
<df|fg>: done
<df|gg>: done
<dg|dg>:           10 b            0 skpd (  0.0%)    0.002 s ( 0.228 ms/b)
<dg|ff>: done
<dg|fg>: done
<dg|gg>: done
<ff|ff>: done
<ff|fg>: done
<ff|gg>: done
<fg|fg>: done
<fg|gg>: done
<gg|gg>: done
Recanonicalizing the internal orbitals
Recanonicalizing the virtual orbitals
Time needed for Fock operator              ...            0.108 sec
Reference energy                           ...  -1638.923174854
Warning: for UHF the TrafoType has to be JK
Warning: for UHF the K(C)-option cannot be MO but must be AOX

-------------------------------
PARTIAL EXCHANGE TRANSFORMATION
-------------------------------

Transformation type                        ... two-operators
Generation of integrals (i,mue|j,nue)      ... ON
Generation of integrals (mue,kappa|nue,tau)... ON
Generation of integrals (i,mue|a,nue)      ... ON
Dimension of the basis                     ...   64
Number of internal alpha-MOs               ...   10 (   5-  14)
Number of internal beta-MOs                ...    9 (   5-  13)
Number of external alpha-MOs               ...   49 (  15-  63)
Number of external beta-MOs                ...   50 (  14-  63)
Pair cutoff                                ... 0.000e+00 Eh
Number of AO pairs in the trafo            ... 2080
Total Number of distinct AO pairs          ... 2080
Memory devoted for trafo                   ... 2500.0 MB 
Max. Number of MO pairs treated together   ... 80000      
Number Format for Storage                  ... Double (8 Byte)
Integral package used                      ... LIBINT

Starting integral evaluation:
    ... done with AO integral generation
Closing buffer AOK[aa] ( 0.00 GB; CompressionRatio= 0.00)
Closing buffer AOK[bb] ( 0.00 GB; CompressionRatio= 0.00)
Closing buffer AOK[ab] ( 0.00 GB; CompressionRatio= 0.00)
Closing buffer AOK[ba] ( 0.00 GB; CompressionRatio= 0.00)
Collecting buffer AOK 
Closing buffer IAAO1[aa] ( 0.00 GB; CompressionRatio= 0.00)
Closing buffer IAAO1[bb] ( 0.00 GB; CompressionRatio= 0.00)
Closing buffer IAAO1[ab] ( 0.00 GB; CompressionRatio= 0.00)
Closing buffer IAAO1[ba] ( 0.00 GB; CompressionRatio= 0.00)
Closing buffer IAAO2[aa] ( 0.00 GB; CompressionRatio= 0.00)
Closing buffer IAAO2[bb] ( 0.00 GB; CompressionRatio= 0.00)
Closing buffer IAAO2[ab] ( 0.00 GB; CompressionRatio= 0.00)
Closing buffer IAAO2[ba] ( 0.00 GB; CompressionRatio= 0.00)
Collecting buffer IAAO 
Closing buffer PRQS    ( 0.00 GB; CompressionRatio= 0.00)
Collecting buffer PRQS 
Number of alpha/alpha MO pairs in trafo    ...   55
Number of beta /beta  MO pairs in trafo    ...   45
Number of alpha/ beta MO pairs in trafo    ...   90
------------------------
SORTING OF (i,mue|j,nue)
------------------------

SORTING OF ALPHA/ALPHA PAIRS
IBATCH = 1 of  1
Closing buffer KAO[aa] ( 0.00 GB; CompressionRatio= 1.00)
Collecting buffer KAO 
SORTING OF BETA /BETA  PAIRS
IBATCH = 1 of  1
Closing buffer KAO[bb] ( 0.00 GB; CompressionRatio= 1.00)
Collecting buffer KAO 
SORTING OF ALPHA/BETA  PAIRS
IBATCH = 1 of  1
Closing buffer KAO[ab] ( 0.00 GB; CompressionRatio= 0.999633923124)
Collecting buffer KAO[ab] 
------------------------
SORTING OF (i,mue|a,nue)
------------------------

Number of alpha/alpha (i,a) pairs in trafo  ...  490
Number of beta /beta  (i,a) pairs in trafo  ...  450
Number of alpha/ beta (i,a) pairs in trafo  ...  500
Number of beta /alpha (i,a) pairs in trafo  ...  441
Setting up the alpha/alpha list             ... done
Setting up the beta /beta  list             ... done
Setting up the alpha/beta  list             ... done
Setting up the beta /alpha list             ... done
    ... Now sorting (i,mue|a,nue)integrals
    ... Integrals (i,b|a,c) will be made on the fly
SORTING OF ALPHA/ALPHA PAIRS
IBATCH = 1 of  1
Closing buffer IPAQ[aa]  0.00 GB; CompressionRatio= 1.00)
SORTING OF BETA /BETA  PAIRS
IBATCH = 1 of  1
Closing buffer IPAQ[bb]( 0.00 GB; CompressionRatio= 1.00)
SORTING OF ALPHA/BETA  PAIRS (NMatSort_ab=21)
IBATCH = 1 of  1
Closing buffer IPAQ[ab]( 0.00 GB; CompressionRatio= 1.00)
SORTING OF BETA/ALPHA  PAIRS
IBATCH = 1 of  1
Closing buffer IPAQ[ba]( 0.00 GB; CompressionRatio= 1.00)
N(AO-Batches) Done                         ...         0 
N(AO-Batches) Skipped                      ...         0 
N(IJ)-pairs Skipped                        ...         0 
TOTAL TIME for half transformation         ...     0.428 sec
AO-integral generation                     ...     0.000 sec
Half transformation                        ...     0.000 sec
K-integral sorting                         ...     0.191 sec
<ss|**>: 
------------------------------
PARTIAL COULOMB TRANSFORMATION
------------------------------

Transformation type                        ... two-operators
Dimension of the basis                     ...   64
Number of internal alpha-MOs               ...   10 (5-14)
Number of internal beta-MOs                ...    9 (5-13)
Pair cutoff                                ... 0.000e+00 Eh
Number of AO pairs included in the trafo   ... 2080
Total Number of distinct AO pairs          ... 2080
Memory devoted for trafo                   ... 2500.0 MB 
Max. Number of MO pairs treated together   ... 157538      
Max. Number of MOs treated per batch       ... 2461      
Number Format for Storage                  ... Double (8 Byte)
AO-integral source                         ... DIRECT
Integral package used                      ... LIBINT

Starting integral evaluation:
        3591 b        0 skpd     0.001 s (  0.000 ms/b)
<sp|**>: <sd|**>:         5130 b        0 skpd     0.008 s (  0.002 ms/b)
<sf|**>:         4104 b        0 skpd     0.010 s (  0.003 ms/b)
<sg|**>:         2052 b        0 skpd     0.005 s (  0.003 ms/b)
<pp|**>:         1026 b        0 skpd     0.010 s (  0.009 ms/b)
<pd|**>:         2565 b        0 skpd     0.012 s (  0.005 ms/b)
        3420 b        0 skpd     0.016 s (  0.005 ms/b)
<pf|**>:         1710 b        0 skpd     0.009 s (  0.005 ms/b)
<pg|**>:          855 b        0 skpd     0.015 s (  0.017 ms/b)
<dd|**>:         1710 b        0 skpd     0.022 s (  0.013 ms/b)
<df|**>:         1368 b        0 skpd     0.012 s (  0.009 ms/b)
<dg|**>:          684 b        0 skpd     0.019 s (  0.027 ms/b)
<ff|**>:          513 b        0 skpd     0.009 s (  0.018 ms/b)
<fg|**>:          342 b        0 skpd     0.014 s (  0.041 ms/b)
<gg|**>:          171 b        0 skpd     0.021 s (  0.125 ms/b)
Closing buffer AOJ[aa] ( 0.00 GB; CompressionRatio= 0.97)
Closing buffer AOJ[bb] ( 0.00 GB; CompressionRatio= 0.00)
Collecting buffer AOJ 
    ... done with AO integral generation
Number of Alpha-MO pairs included          ...   55
Number of Beta-MO pairs included           ...   45
    ... Now sorting integrals
SORTING ALPHA/ALPHA PAIRS
IBATCH = 1 of  1
Closing buffer JAO[aa] ( 0.00 GB; CompressionRatio= 1.00)
SORTING BETA/BETA PAIRS
IBATCH = 1 of  1
Closing buffer JAO[bb] ( 0.00 GB; CompressionRatio= 1.00)
Collecting buffer JAO 
TOTAL TIME for half transformation         ...     0.196 sec
AO-integral generation                     ...     0.184 sec
Half transformation                        ...     0.002 sec
J-integral sorting                         ...     0.006 sec

-------------------------- SECOND HALF TRANSFORMATION -------------------------
Formation of (ij|kl),(ij|ka), (ij|ab)      ... ok (     0.022 sec)
Formation of (ik|jl),(ik|ja), (ia|jb)      ... ok (     0.041 sec)


-----------------------
SPIN UNRESTRICTED GUESS
-----------------------

Entering MDCI_UHF_Guess, Tailored=0
Spin-components of the MP2 energy:
EMP2(aa)=     -0.149546914
EMP2(bb)=     -0.136057747
EMP2(ab)=     -0.544382090

Initial guess performed in     0.013 sec
E(0)                                       ...  -1638.923174854
E(MP2)                                     ...     -0.829986751
Initial E(tot)                             ...  -1639.753161605
<T|T>                                      ...      0.115364888
Number of pairs included                   ... 171

------------------------------------------------
                  UHF COUPLED CLUSTER ITERATIONS
------------------------------------------------

Number of amplitudes to be optimized       ...       319970

Iter       E(tot)           E(Corr)          Delta-E          Residual     Time      <S|S>**1/2
  0  -1639.753161605     -0.829986751      0.000000000      0.040667606    0.23      0.000000008
                           *** Turning on DIIS ***
  1  -1639.597698320     -0.674523466      0.155463285      0.021943563    0.24      0.085427798
  2  -1639.646424845     -0.723249991     -0.048726525      0.006422185    0.25      0.058939984
  3  -1639.644951668     -0.721776814      0.001473177      0.004991151    0.26      0.073255095
  4  -1639.645839779     -0.722664925     -0.000888111      0.002978930    0.26      0.078658719
  5  -1639.646536855     -0.723362001     -0.000697076      0.001372863    0.25      0.083403628
  6  -1639.646785031     -0.723610177     -0.000248177      0.000341710    0.26      0.086301661
  7  -1639.646764718     -0.723589864      0.000020314      0.000062737    0.26      0.087079144
  8  -1639.646777861     -0.723603008     -0.000013144      0.000024102    0.27      0.087127959
  9  -1639.646778549     -0.723603695     -0.000000688      0.000006176    0.25      0.087161715
 10  -1639.646777504     -0.723602650      0.000001046      0.000003142    0.25      0.087166877
 11  -1639.646778717     -0.723603863     -0.000001213      0.000000783    0.26      0.087170275
               --- The Coupled-Cluster iterations have converged ---

----------------------
COUPLED CLUSTER ENERGY
----------------------

E(0)                                       ...  -1638.923174854
E(CORR)                                    ...     -0.723603863
E(TOT)                                     ...  -1639.646778717
Singles norm <S|S>**1/2                    ...      0.087170275 ( 0.050064078, 0.037106197)  
T1 diagnostic                              ...      0.019998233                              

------------------
LARGEST AMPLITUDES
------------------
  14a-> 18a  -1a-> -1a       0.064696
  13a-> 23a  -1a-> -1a       0.026097
  12a-> 22a  -1a-> -1a       0.026097
  11b-> 19b  -1b-> -1b       0.025501
  10b-> 20b  -1b-> -1b       0.024734
  13b-> 23b  -1b-> -1b       0.024541
  12b-> 22b  -1b-> -1b       0.024541
  11a-> 20a  -1a-> -1a       0.023913
  10a-> 21a  -1a-> -1a       0.022104
   9b-> 21b  -1b-> -1b       0.022074
   9a-> 19a  -1a-> -1a       0.021700
  14a-> 15a  12b-> 16b       0.018366
  14a-> 15a  11b-> 15b       0.017890
  14a-> 15a   9b-> 17b       0.016790
  10b-> 27b  -1b-> -1b       0.016436
  13b-> 22b  -1b-> -1b       0.015808

----------------------
UHF TRIPLES CORRECTION (Algorithm 1)
----------------------

Multiplier for the singles contribution    ...      1.000000000

SPIN-CASE Alpha-Alpha-Alpha:
10% done
20% done
30% done
40% done
50% done
60% done
70% done
80% done
90% done


SPIN-CASE Beta-Beta-Beta:
10% done
20% done
30% done
40% done
50% done
60% done
70% done
80% done
90% done


SPIN-CASE Alpha-Alpha-Beta:
10% done
20% done
30% done
40% done
50% done
60% done
70% done
80% done
90% done


SPIN-CASE Beta-Beta-Alpha:
10% done
20% done
30% done
40% done
50% done
60% done
70% done
80% done
90% done


Triples Correction (T)                     ...     -0.020166144
    alpha-alpha-alpha ... -0.001180156 (  5.9%)
    alpha-alpha-beta  ... -0.010140093 ( 50.3%)
    alpha-beta -beta  ... -0.008207371 ( 40.7%)
    beta -beta -beta  ... -0.000638524 (  3.2%)
Scaling of triples based on CCSD energies (Peterson et al. Molecular Physics 113, 1551 (2015))
E(T*) = f*E(T) where f = E(F12-CCSD)/E(CCSD) 
f = CCSD (with F12)/ CCSD (without F12)    ...      1.000000000
Scaled triples correction (T)              ...     -0.020166144

Final correlation energy                   ...     -0.743770007
E(CCSD)                                    ...  -1639.646778717
E(CCSD(T))                                 ...  -1639.666944861



        !!!!!!!!!!!!!!!!!!!!!!!!!!!!!!!!!!!!!!!!!!!!!!!!!!!!!!!!!!!!!!!!!!!!!!!!!! 
        !  Warning: Densities are linearized densities                           !
        !!!!!!!!!!!!!!!!!!!!!!!!!!!!!!!!!!!!!!!!!!!!!!!!!!!!!!!!!!!!!!!!!!!!!!!!!! 

NORM  =      1.100941698 sqrt=     1.049257689
W(HF) =      0.908313312
------------------------------------------------------------------------------
                           ORCA POPULATION ANALYSIS
------------------------------------------------------------------------------
Input electron density              ... 69_Cu.mdcip
Input spin density                  ... 69_Cu.mdcir
BaseName (.gbw .S,...)              ... 69_Cu

                    ********************************
                    * MULLIKEN POPULATION ANALYSIS *
                    ********************************

------------------------------------------
MULLIKEN ATOMIC CHARGES AND SPIN DENSITIES
------------------------------------------
   0 Cu:   -0.000000    1.000000
Sum of atomic charges       :   -0.0000000
Sum of atomic spin densities:    1.0000000

---------------------------------------------------
MULLIKEN REDUCED ORBITAL CHARGES AND SPIN DENSITIES
---------------------------------------------------
CHARGE
  0 Cus       :     6.991217  s :     6.991217
      pz      :     4.005963  p :    12.017888
      px      :     4.005963
      py      :     4.005963
      dz2     :     1.991439  d :     9.957193
      dxz     :     1.991439
      dyz     :     1.991439
      dx2y2   :     1.991439
      dxy     :     1.991439
      f0      :     0.004377  f :     0.030637
      f+1     :     0.004377
      f-1     :     0.004377
      f+2     :     0.004377
      f-2     :     0.004377
      f+3     :     0.004377
      f-3     :     0.004377
      g0      :     0.000341  g :     0.003065
      g+1     :     0.000341
      g-1     :     0.000341
      g+2     :     0.000341
      g-2     :     0.000341
      g+3     :     0.000341
      g-3     :     0.000341
      g+4     :     0.000341
      g-4     :     0.000341

SPIN
  0 Cus       :     0.988769  s :     0.988769
      pz      :     0.001054  p :     0.003162
      px      :     0.001054
      py      :     0.001054
      dz2     :     0.001680  d :     0.008401
      dxz     :     0.001680
      dyz     :     0.001680
      dx2y2   :     0.001680
      dxy     :     0.001680
      f0      :    -0.000044  f :    -0.000310
      f+1     :    -0.000044
      f-1     :    -0.000044
      f+2     :    -0.000044
      f-2     :    -0.000044
      f+3     :    -0.000044
      f-3     :    -0.000044
      g0      :    -0.000002  g :    -0.000022
      g+1     :    -0.000002
      g-1     :    -0.000002
      g+2     :    -0.000002
      g-2     :    -0.000002
      g+3     :    -0.000002
      g-3     :    -0.000002
      g+4     :    -0.000002
      g-4     :    -0.000002


                     *******************************
                     * LOEWDIN POPULATION ANALYSIS *
                     *******************************

-----------------------------------------
LOEWDIN ATOMIC CHARGES AND SPIN DENSITIES
-----------------------------------------
   0 Cu:   -0.000000    1.000000

--------------------------------------------------
LOEWDIN REDUCED ORBITAL CHARGES AND SPIN DENSITIES
--------------------------------------------------
CHARGE
  0 Cus       :     6.991217  s :     6.991217
      pz      :     4.005963  p :    12.017888
      px      :     4.005963
      py      :     4.005963
      dz2     :     1.991439  d :     9.957193
      dxz     :     1.991439
      dyz     :     1.991439
      dx2y2   :     1.991439
      dxy     :     1.991439
      f0      :     0.004377  f :     0.030637
      f+1     :     0.004377
      f-1     :     0.004377
      f+2     :     0.004377
      f-2     :     0.004377
      f+3     :     0.004377
      f-3     :     0.004377
      g0      :     0.000341  g :     0.003065
      g+1     :     0.000341
      g-1     :     0.000341
      g+2     :     0.000341
      g-2     :     0.000341
      g+3     :     0.000341
      g-3     :     0.000341
      g+4     :     0.000341
      g-4     :     0.000341

SPIN
  0 Cus       :     0.988769  s :     0.988769
      pz      :     0.001054  p :     0.003162
      px      :     0.001054
      py      :     0.001054
      dz2     :     0.001680  d :     0.008401
      dxz     :     0.001680
      dyz     :     0.001680
      dx2y2   :     0.001680
      dxy     :     0.001680
      f0      :    -0.000044  f :    -0.000310
      f+1     :    -0.000044
      f-1     :    -0.000044
      f+2     :    -0.000044
      f-2     :    -0.000044
      f+3     :    -0.000044
      f-3     :    -0.000044
      g0      :    -0.000002  g :    -0.000022
      g+1     :    -0.000002
      g-1     :    -0.000002
      g+2     :    -0.000002
      g-2     :    -0.000002
      g+3     :    -0.000002
      g-3     :    -0.000002
      g+4     :    -0.000002
      g-4     :    -0.000002


                      *****************************
                      * MAYER POPULATION ANALYSIS *
                      *****************************

  NA   - Mulliken gross atomic population
  ZA   - Total nuclear charge
  QA   - Mulliken gross atomic charge
  VA   - Mayer's total valence
  BVA  - Mayer's bonded valence
  FA   - Mayer's free valence

  ATOM       NA         ZA         QA         VA         BVA        FA
  0 Cu    29.0000    29.0000    -0.0000     1.6630     0.0000     1.6630





------------------------------------------------------------------------------- 
                                     TIMINGS                                   
------------------------------------------------------------------------------- 


Total execution time                   ...        4.373 sec

Fock Matrix Formation                  ...        0.108 sec (  2.5%)
Initial Guess                          ...        0.013 sec (  0.3%)
DIIS Solver                            ...        0.301 sec (  6.9%)
State Vector Update                    ...        0.016 sec (  0.4%)
Sigma-vector construction              ...        2.714 sec ( 62.1%)
  <0|H|D>                              ...        0.001 sec (  0.0% of sigma)
  <D|H|D>(0-ext Fock)                  ...        0.005 sec (  0.2% of sigma)
  <D|H|D>(0-ext)                       ...        0.015 sec (  0.6% of sigma)
  <D|H|D>(2-ext Fock)                  ...        0.002 sec (  0.1% of sigma)
  <D|H|D>(2-ext)                       ...        0.076 sec (  2.8% of sigma)
  <D|H|D>(4-ext)                       ...        0.840 sec ( 30.9% of sigma)
  <S|H|0>                              ...        0.137 sec (  5.1% of sigma)
  <S|H|D>(1-ext)                       ...        0.002 sec (  0.1% of sigma)
  <D|H|S>(1-ext)                       ...        0.031 sec (  1.1% of sigma)
  Fock-dressing                        ...        0.714 sec ( 26.3% of sigma)
  (ik|jl)-dressing                     ...        0.023 sec (  0.9% of sigma)
  (ij|ab),(ia|jb)-dressing             ...        0.657 sec ( 24.2% of sigma)
  Pair energies                        ...        0.002 sec (  0.1% of sigma)
Total Time for computing (T)           ...        0.262 sec (  6.0% of ALL)
  I/O of integral and amplitudes       ...        0.060 sec ( 22.8% of (T))
  External N**7 contributions          ...        0.072 sec ( 27.5% of (T))
  Internal N**7 contributions          ...        0.033 sec ( 12.6% of (T))
  N**6 triples energy contributions    ...        0.092 sec ( 35.1% of (T))

----- Orbital basis set information -----
Your calculation utilizes the basis: def2-QZVPP
   F. Weigend and R. Ahlrichs, Phys. Chem. Chem. Phys. 7, 3297 (2005).

----- AuxJ basis set information -----
Your calculation utilizes the auxiliary basis: def2/J
   F. Weigend, Phys. Chem. Chem. Phys. 8, 1057 (2006).

----- AuxC basis set information -----
Your calculation utilizes the auxiliary basis: def2-QZVPP/C
  H-La, Hf-Rn : A. Hellweg, C. Hattig, S. Hofener and W. Klopper, Theor. Chem. Acc. 117, 587 (2007).
        Ce-Lu : J. Chmela and M. E. Harding, Mol. Phys. (2018).

----- AuxJK basis set information -----
Your calculation utilizes the auxiliary basis: def2/JK
   H-Ba, Hf-Rn: F. Weigend, J. Comput. Chem. 29, 167 (2008).

All done

                     -----------------------------------------
                     Extrapolated Energy 2 Basis=  def2-QZVPP
                     -----------------------------------------

---------------------------------
CARTESIAN COORDINATES (ANGSTROEM)
---------------------------------
  Cu     0.000000    0.000000    0.000000

----------------------------
CARTESIAN COORDINATES (A.U.)
----------------------------
  NO LB      ZA    FRAG     MASS         X           Y           Z
   0 Cu   29.0000    0    63.550    0.000000    0.000000    0.000000

--------------------------------
INTERNAL COORDINATES (ANGSTROEM)
--------------------------------
 Cu     0   0   0     0.000000000000     0.00000000     0.00000000

---------------------------
INTERNAL COORDINATES (A.U.)
---------------------------
 Cu     0   0   0     0.000000000000     0.00000000     0.00000000

---------------------
BASIS SET INFORMATION
---------------------
There are 1 groups of distinct atoms

 Group   1 Type Cu  : 24s18p10d4f2g contracted to 11s6p5d4f2g pattern {114111111111/951111/61111/1111/11}

Atom   0Cu   basis set group =>   1
---------------------------------
AUXILIARY/J BASIS SET INFORMATION
---------------------------------
There are 1 groups of distinct atoms

 Group   1 Type Cu  : 19s5p5d3f3g contracted to 8s5p4d3f3g pattern {121111111/11111/2111/111/111}

Atom   0Cu   basis set group =>   1
---------------------------------
AUXILIARY/C BASIS SET INFORMATION
---------------------------------
There are 1 groups of distinct atoms

 Group   1 Type Cu  : 15s13p11d9f7g5h2i contracted to 15s13p11d9f7g5h2i pattern {111111111111111/1111111111111/11111111111/111111111/1111111/11111/11}

Atom   0Cu   basis set group =>   1
----------------------------------
AUXILIARY/JK BASIS SET INFORMATION
----------------------------------
There are 1 groups of distinct atoms

 Group   1 Type Cu  : 19s14p12d10f7g3h1i contracted to 16s13p11d9f5g3h1i pattern {4111111111111111/2111111111111/21111111111/211111111/31111/111/1}

Atom   0Cu   basis set group =>   1

Checking for AutoStart:
The File: 69_Cu.gbw exists
Trying to determine its content:
     ... Fine, the file contains calculation information
     ... Fine, the calculation information was read
     ... Fine, the file contains a basis set
     ... Fine, the basis set was read
     ... Fine, the file contains a geometry
     ... Fine, the geometry was read
     ... Fine, the file contains a set of orbitals
     ... Fine, the orbitals can be read
     => possible old guess file was deleted
     => GBW file was renamed to GES file
     => GES file is set as startup file
     => Guess is set to MORead
     ... now leaving AutoStart



           ************************************************************
           *        Program running with 24 parallel MPI-processes    *
           *              working on a common directory               *
           ************************************************************
------------------------------------------------------------------------------
                           ORCA GTO INTEGRAL CALCULATION
------------------------------------------------------------------------------

                         BASIS SET STATISTICS AND STARTUP INFO

 # of primitive gaussian shells          ...   58
 # of primitive gaussian functions       ...  174
 # of contracted shells                  ...   28
 # of contracted basis functions         ...  100
 Highest angular momentum                ...    4
 Maximum contraction depth               ...   11
 Integral package used                   ... LIBINT
 Integral threshhold            Thresh   ...  1.000e-12
 Primitive cut-off              TCut     ...  1.000e-14


------------------------------ INTEGRAL EVALUATION ----------------------------


 * One electron integrals 
 Pre-screening matrix                    ... done
 Shell pair data                         ... done (   0.000 sec)



           ************************************************************
           *        Program running with 24 parallel MPI-processes    *
           *              working on a common directory               *
           ************************************************************
-------------------------------------------------------------------------------
                                 ORCA SCF
-------------------------------------------------------------------------------

------------
SCF SETTINGS
------------
Hamiltonian:
 Ab initio Hamiltonian  Method          .... Hartree-Fock(GTOs)


General Settings:
 Integral files         IntName         .... 69_Cu
 Hartree-Fock type      HFTyp           .... UHF
 Total Charge           Charge          ....    0
 Multiplicity           Mult            ....    2
 Number of Electrons    NEL             ....   29
 Basis Dimension        Dim             ....  100
 Nuclear Repulsion      ENuc            ....      0.0000000000 Eh

Convergence Acceleration:
 DIIS                   CNVDIIS         .... on
   Start iteration      DIISMaxIt       ....    12
   Startup error        DIISStart       ....  0.200000
   # of expansion vecs  DIISMaxEq       ....     5
   Bias factor          DIISBfac        ....   1.050
   Max. coefficient     DIISMaxC        ....  10.000
 Newton-Raphson         CNVNR           .... off
 SOSCF                  CNVSOSCF        .... off
 Level Shifting         CNVShift        .... on
   Level shift para.    LevelShift      ....    0.2500
   Turn off err/grad.   ShiftErr        ....    0.0010
 Zerner damping         CNVZerner       .... off
 Static damping         CNVDamp         .... on
   Fraction old density DampFac         ....    0.7000
   Max. Damping (<1)    DampMax         ....    0.9800
   Min. Damping (>=0)   DampMin         ....    0.0000
   Turn off err/grad.   DampErr         ....    0.1000
 Fernandez-Rico         CNVRico         .... off

SCF Procedure:
 Maximum # iterations   MaxIter         ....   125
 SCF integral mode      SCFMode         .... Direct
   Integral package                     .... LIBINT
 Reset frequency        DirectResetFreq ....    20
 Integral Threshold     Thresh          ....  1.000e-12 Eh
 Primitive CutOff       TCut            ....  1.000e-14 Eh

Convergence Tolerance:
 Convergence Check Mode ConvCheckMode   .... Total+1el-Energy
 Convergence forced     ConvForced      .... 1
 Energy Change          TolE            ....  1.000e-09 Eh
 1-El. energy change                    ....  1.000e-06 Eh
 DIIS Error             TolErr          ....  1.000e-08


Diagonalization of the overlap matrix:
Smallest eigenvalue                        ... 1.296e-03
Time for diagonalization                   ...    0.002 sec
Threshold for overlap eigenvalues          ... 1.000e-08
Number of eigenvalues below threshold      ... 0
Time for construction of square roots      ...    0.001 sec
Total time needed                          ...    0.004 sec

---------------------
INITIAL GUESS: MOREAD
---------------------
Guess MOs are being read from file: 69_Cu.ges
Input Geometry matches current geometry (good)
Atom 0: N(Shells)= 28 and 18 - projection required
Input basis set needs projection
NBasis(read)= 64
NBasis(calc)= 100
Basis set overlap was calculated
Using GuessMode=FMatrix for the initial guess
C*T matrix was formed
Effective Fockian was calculated
Effective Fockian was diagonalized
Initial density was built
C*T matrix was formed
Effective Fockian was calculated
Effective Fockian was diagonalized
Initial density was built
                      ------------------
                      INITIAL GUESS DONE (   0.0 sec)
                      ------------------
--------------
SCF ITERATIONS
--------------
ITER       Energy         Delta-E        Max-DP      RMS-DP      [F,P]     Damp
               ***  Starting incremental Fock matrix formation  ***
  0  -1638.9609912094   0.000000000000 0.00537546  0.00013755  0.0874203 0.7000
  1  -1638.9616478250  -0.000656615625 0.00377079  0.00010004  0.0611402 0.7000
                               ***Turning on DIIS***
  2  -1638.9621132564  -0.000465431417 0.00883780  0.00024044  0.0427673 0.0000
  3  -1638.9631082468  -0.000994990410 0.00061569  0.00002264  0.0010380 0.0000
  4  -1638.9522866863   0.010821560596 0.00111494  0.00001326  0.0008145 0.0000
  5  -1638.9651769518  -0.012890265570 0.00065801  0.00000812  0.0001681 0.0000
  6  -1638.9630080789   0.002168872891 0.00036645  0.00000385  0.0000480 0.0000
  7  -1638.9633443512  -0.000336272312 0.00019967  0.00000207  0.0000182 0.0000
  8  -1638.9632629745   0.000081376745 0.00003332  0.00000035  0.0000025 0.0000
  9  -1638.9632317875   0.000031187023 0.00000200  0.00000003  0.0000004 0.0000
 10  -1638.9632287013   0.000003086130 0.00000073  0.00000001  0.0000001 0.0000
 11  -1638.9632287106  -0.000000009297 0.00000026  0.00000001  0.0000001 0.0000
                            ***DIIS convergence achieved***

               *****************************************************
               *                     SUCCESS                       *
               *           SCF CONVERGED AFTER  12 CYCLES          *
               *****************************************************


----------------
TOTAL SCF ENERGY
----------------

Total Energy       :        -1638.96322850 Eh          -44598.45679 eV

Components:
Nuclear Repulsion  :            0.00000000 Eh               0.00000 eV
Electronic Energy  :        -1638.96322850 Eh          -44598.45679 eV
One Electron Energy:        -2289.86546325 Eh          -62310.40705 eV
Two Electron Energy:          650.90223475 Eh           17711.95027 eV

Virial components:
Potential Energy   :        -3277.92110696 Eh          -89196.76800 eV
Kinetic Energy     :         1638.95787846 Eh           44598.31121 eV
Virial Ratio       :            2.00000326


---------------
SCF CONVERGENCE
---------------

  Last Energy change         ...    2.0622e-07  Tolerance :   1.0000e-09
  Last MAX-Density change    ...    6.9364e-08  Tolerance :   1.0000e-08
  Last RMS-Density change    ...    2.0216e-09  Tolerance :   1.0000e-09
  Last DIIS Error            ...    1.0525e-08  Tolerance :   1.0000e-08

             **** THE GBW FILE WAS UPDATED (69_Cu.gbw) ****
             **** DENSITY FILE WAS UPDATED (69_Cu.scfp) ****
             **** ENERGY FILE WAS UPDATED (69_Cu.en.tmp) ****
----------------------
UHF SPIN CONTAMINATION
----------------------

Expectation value of <S**2>     :     0.751920
Ideal value S*(S+1) for S=0.5   :     0.750000
Deviation                       :     0.001920

             **** THE GBW FILE WAS UPDATED (69_Cu.gbw) ****
             **** DENSITY FILE WAS UPDATED (69_Cu.scfp) ****
----------------
ORBITAL ENERGIES
----------------
                 SPIN UP ORBITALS
  NO   OCC          E(Eh)            E(eV) 
   0   1.0000    -328.794678     -8946.9581 
   1   1.0000     -40.819190     -1110.7466 
   2   1.0000     -35.617253      -969.1947 
   3   1.0000     -35.617253      -969.1947 
   4   1.0000     -35.617253      -969.1947 
   5   1.0000      -5.012292      -136.3914 
   6   1.0000      -3.322091       -90.3987 
   7   1.0000      -3.322091       -90.3987 
   8   1.0000      -3.322091       -90.3987 
   9   1.0000      -0.488988       -13.3060 
  10   1.0000      -0.488988       -13.3060 
  11   1.0000      -0.488988       -13.3060 
  12   1.0000      -0.488988       -13.3060 
  13   1.0000      -0.488988       -13.3060 
  14   1.0000      -0.239622        -6.5204 
  15   0.0000       0.038601         1.0504 
  16   0.0000       0.038601         1.0504 
  17   0.0000       0.038601         1.0504 
  18   0.0000       0.097031         2.6403 
  19   0.0000       0.172861         4.7038 
  20   0.0000       0.172861         4.7038 
  21   0.0000       0.172861         4.7038 
  22   0.0000       0.199484         5.4282 
  23   0.0000       0.199484         5.4282 
  24   0.0000       0.199484         5.4282 
  25   0.0000       0.199484         5.4282 
  26   0.0000       0.199484         5.4282 
  27   0.0000       0.503890        13.7116 
  28   0.0000       0.598514        16.2864 
  29   0.0000       0.598514        16.2864 
  30   0.0000       0.598514        16.2864 
  31   0.0000       0.626678        17.0528 
  32   0.0000       0.626678        17.0528 
  33   0.0000       0.626678        17.0528 
  34   0.0000       0.626678        17.0528 
  35   0.0000       0.626678        17.0528 
  36   0.0000       0.925171        25.1752 
  37   0.0000       0.925171        25.1752 
  38   0.0000       0.925171        25.1752 
  39   0.0000       0.925171        25.1752 
  40   0.0000       0.925171        25.1752 
  41   0.0000       0.925171        25.1752 
  42   0.0000       0.925171        25.1752 
  43   0.0000       1.808157        49.2025 
  44   0.0000       1.808157        49.2025 
  45   0.0000       1.808157        49.2025 
  46   0.0000       1.808157        49.2025 
  47   0.0000       1.808157        49.2025 
  48   0.0000       2.129529        57.9474 
  49   0.0000       2.129529        57.9474 
  50   0.0000       2.129529        57.9474 
  51   0.0000       2.779137        75.6242 
  52   0.0000       2.844130        77.3927 
  53   0.0000       2.844130        77.3927 
  54   0.0000       2.844130        77.3927 
  55   0.0000       2.844130        77.3927 
  56   0.0000       2.844130        77.3927 
  57   0.0000       2.844130        77.3927 
  58   0.0000       2.844130        77.3927 
  59   0.0000       5.126706       139.5048 
  60   0.0000       5.126706       139.5048 
  61   0.0000       5.126706       139.5048 
  62   0.0000       5.126706       139.5048 
  63   0.0000       5.126706       139.5048 
  64   0.0000       7.705139       209.6675 
  65   0.0000       7.705139       209.6675 
  66   0.0000       7.705139       209.6675 
  67   0.0000       7.705139       209.6675 
  68   0.0000       7.705139       209.6675 
  69   0.0000       7.705139       209.6675 
  70   0.0000       7.705139       209.6675 
  71   0.0000       7.960398       216.6134 
  72   0.0000       7.960398       216.6134 
  73   0.0000       7.960398       216.6134 
  74   0.0000       7.960398       216.6134 
  75   0.0000       7.960398       216.6134 
  76   0.0000       7.960398       216.6134 
  77   0.0000       7.960398       216.6134 
  78   0.0000       7.960398       216.6134 
  79   0.0000       7.960398       216.6134 
  80   0.0000      11.783095       320.6343 
  81   0.0000      21.985224       598.2484 
  82   0.0000      21.985224       598.2484 
  83   0.0000      21.985224       598.2484 
  84   0.0000      21.985224       598.2484 
  85   0.0000      21.985224       598.2484 
  86   0.0000      21.985224       598.2484 
  87   0.0000      21.985224       598.2484 
  88   0.0000      26.168354       712.0771 
  89   0.0000      26.168354       712.0771 
  90   0.0000      26.168354       712.0771 
  91   0.0000      26.168354       712.0771 
  92   0.0000      26.168354       712.0771 
  93   0.0000      26.168354       712.0771 
  94   0.0000      26.168354       712.0771 
  95   0.0000      26.168354       712.0771 
  96   0.0000      26.168354       712.0771 
  97   0.0000      41.415442      1126.9715 
  98   0.0000     139.556689      3797.5306 
  99   0.0000     906.690948     24672.3150 

                 SPIN DOWN ORBITALS
  NO   OCC          E(Eh)            E(eV) 
   0   1.0000    -328.792867     -8946.9088 
   1   1.0000     -40.819908     -1110.7662 
   2   1.0000     -35.619898      -969.2667 
   3   1.0000     -35.619898      -969.2667 
   4   1.0000     -35.619898      -969.2667 
   5   1.0000      -5.011573      -136.3718 
   6   1.0000      -3.327357       -90.5420 
   7   1.0000      -3.327357       -90.5420 
   8   1.0000      -3.327357       -90.5420 
   9   1.0000      -0.493225       -13.4213 
  10   1.0000      -0.493225       -13.4213 
  11   1.0000      -0.493225       -13.4213 
  12   1.0000      -0.493225       -13.4213 
  13   1.0000      -0.493225       -13.4213 
  14   0.0000       0.012658         0.3444 
  15   0.0000       0.060231         1.6390 
  16   0.0000       0.060231         1.6390 
  17   0.0000       0.060231         1.6390 
  18   0.0000       0.134174         3.6511 
  19   0.0000       0.209719         5.7067 
  20   0.0000       0.209719         5.7067 
  21   0.0000       0.209719         5.7067 
  22   0.0000       0.209764         5.7080 
  23   0.0000       0.209764         5.7080 
  24   0.0000       0.209764         5.7080 
  25   0.0000       0.209764         5.7080 
  26   0.0000       0.209764         5.7080 
  27   0.0000       0.536742        14.6055 
  28   0.0000       0.624612        16.9966 
  29   0.0000       0.624612        16.9966 
  30   0.0000       0.624612        16.9966 
  31   0.0000       0.644634        17.5414 
  32   0.0000       0.644634        17.5414 
  33   0.0000       0.644634        17.5414 
  34   0.0000       0.644634        17.5414 
  35   0.0000       0.644634        17.5414 
  36   0.0000       0.943992        25.6873 
  37   0.0000       0.943992        25.6873 
  38   0.0000       0.943992        25.6873 
  39   0.0000       0.943992        25.6873 
  40   0.0000       0.943992        25.6873 
  41   0.0000       0.943992        25.6873 
  42   0.0000       0.943992        25.6873 
  43   0.0000       1.819609        49.5141 
  44   0.0000       1.819609        49.5141 
  45   0.0000       1.819609        49.5141 
  46   0.0000       1.819609        49.5141 
  47   0.0000       1.819609        49.5141 
  48   0.0000       2.140481        58.2455 
  49   0.0000       2.140481        58.2455 
  50   0.0000       2.140481        58.2455 
  51   0.0000       2.793998        76.0286 
  52   0.0000       2.853568        77.6495 
  53   0.0000       2.853568        77.6495 
  54   0.0000       2.853568        77.6495 
[...]
Number Format for Storage                  ... Double (8 Byte)
AO-integral source                         ... DIRECT
Integral package used                      ... LIBINT

Starting integral evaluation:
<sp|**>:        26796 b        0 skpd     0.011 s (  0.000 ms/b)
<sd|**>:        26796 b        0 skpd     0.036 s (  0.001 ms/b)
       22330 b        0 skpd     0.053 s (  0.002 ms/b)
<sf|**>:        17864 b        0 skpd     0.020 s (  0.001 ms/b)
<sg|**>: <pp|**>:         8932 b        0 skpd     0.034 s (  0.004 ms/b)
        8526 b        0 skpd     0.066 s (  0.008 ms/b)
<pd|**>:        12180 b        0 skpd     0.100 s (  0.008 ms/b)
<pf|**>:         9744 b        0 skpd     0.030 s (  0.003 ms/b)
<pg|**>:         4872 b        0 skpd     0.055 s (  0.011 ms/b)
<dd|**>:         6090 b        0 skpd     0.122 s (  0.020 ms/b)
<df|**>:         8120 b        0 skpd     0.043 s (  0.005 ms/b)
<dg|**>:         4060 b        0 skpd     0.070 s (  0.017 ms/b)
<ff|**>:         4060 b        0 skpd     0.020 s (  0.005 ms/b)
<fg|**>:         3248 b        0 skpd     0.029 s (  0.009 ms/b)
<gg|**>:         1218 b        0 skpd     0.046 s (  0.038 ms/b)
Closing buffer AOJ[aa] ( 0.00 GB; CompressionRatio= 0.97)
Closing buffer AOJ[bb] ( 0.00 GB; CompressionRatio= 0.00)
Collecting buffer AOJ 
    ... done with AO integral generation
Number of Alpha-MO pairs included          ...   55
Number of Beta-MO pairs included           ...   45
    ... Now sorting integrals
SORTING ALPHA/ALPHA PAIRS
IBATCH = 1 of  1
Closing buffer JAO[aa] ( 0.00 GB; CompressionRatio= 1.00)
SORTING BETA/BETA PAIRS
IBATCH = 1 of  1
Closing buffer JAO[bb] ( 0.00 GB; CompressionRatio= 1.00)
Collecting buffer JAO 
TOTAL TIME for half transformation         ...     0.764 sec
AO-integral generation                     ...     0.734 sec
Half transformation                        ...     0.010 sec
J-integral sorting                         ...     0.014 sec

-------------------------- SECOND HALF TRANSFORMATION -------------------------
Formation of (ij|kl),(ij|ka), (ij|ab)      ... ok (     0.044 sec)
Formation of (ik|jl),(ik|ja), (ia|jb)      ... ok (     0.070 sec)


-----------------------
SPIN UNRESTRICTED GUESS
-----------------------

Entering MDCI_UHF_Guess, Tailored=0
Spin-components of the MP2 energy:
EMP2(aa)=     -0.152988278
EMP2(bb)=     -0.137373340
EMP2(ab)=     -0.560733433

Initial guess performed in     0.030 sec
E(0)                                       ...  -1638.963228441
E(MP2)                                     ...     -0.851095051
Initial E(tot)                             ...  -1639.814323492
<T|T>                                      ...      0.119989188
Number of pairs included                   ... 171

------------------------------------------------
                  UHF COUPLED CLUSTER ITERATIONS
------------------------------------------------

Number of amplitudes to be optimized       ...       954380

Iter       E(tot)           E(Corr)          Delta-E          Residual     Time      <S|S>**1/2
  0  -1639.814323492     -0.851095051      0.000000000      0.038226259    0.98      0.000000007
                           *** Turning on DIIS ***
  1  -1639.663544855     -0.700316414      0.150778637      0.017298262    1.01      0.089714724
  2  -1639.711835947     -0.748607506     -0.048291092      0.006878726    1.04      0.063721605
  3  -1639.710334359     -0.747105918      0.001501588      0.004474250    1.05      0.079260013
  4  -1639.711439470     -0.748211029     -0.001105111      0.002750849    1.05      0.086226528
  5  -1639.712238367     -0.749009926     -0.000798897      0.001324174    1.06      0.091964262
  6  -1639.712499559     -0.749271118     -0.000261192      0.000472856    1.09      0.094970208
  7  -1639.712496752     -0.749268311      0.000002807      0.000132116    1.09      0.096019165
  8  -1639.712506721     -0.749278280     -0.000009969      0.000048543    1.07      0.096183572
  9  -1639.712512555     -0.749284114     -0.000005834      0.000010645    1.11      0.096252645
 10  -1639.712509825     -0.749281385      0.000002729      0.000002889    1.09      0.096266671
 11  -1639.712511304     -0.749282863     -0.000001479      0.000001098    1.06      0.096275071
 12  -1639.712511642     -0.749283201     -0.000000338      0.000000524    1.05      0.096274114
               --- The Coupled-Cluster iterations have converged ---

----------------------
COUPLED CLUSTER ENERGY
----------------------

E(0)                                       ...  -1638.963228441
E(CORR)                                    ...     -0.749283201
E(TOT)                                     ...  -1639.712511642
Singles norm <S|S>**1/2                    ...      0.096274114 ( 0.056353624, 0.039920489)  
T1 diagnostic                              ...      0.022086796                              

------------------
LARGEST AMPLITUDES
------------------
  14a-> 18a  -1a-> -1a       0.064105
  14a-> 27a  -1a-> -1a       0.044457
  12b-> 33b  -1b-> -1b       0.025501
  10b-> 22b  -1b-> -1b       0.021024
  11b-> 32b  -1b-> -1b       0.019167
  12b-> 23b  -1b-> -1b       0.019096
  13b-> 34b  -1b-> -1b       0.019001
  11a-> 22a  -1a-> -1a       0.018758
   9b-> 31b  -1b-> -1b       0.018369
  10b-> 35b  -1b-> -1b       0.017625
  11b-> 24b  -1b-> -1b       0.017039
  10b-> 31b  -1b-> -1b       0.016545
  12a-> 25a  -1a-> -1a       0.016355
  12a-> 31a  -1a-> -1a       0.015994
  11b-> 34b  -1b-> -1b       0.015866
  11a-> 34a  -1a-> -1a       0.015836

----------------------
UHF TRIPLES CORRECTION (Algorithm 1)
----------------------

Multiplier for the singles contribution    ...      1.000000000

SPIN-CASE Alpha-Alpha-Alpha:
10% done
20% done
30% done
40% done
50% done
60% done
70% done
80% done
90% done


SPIN-CASE Beta-Beta-Beta:
10% done
20% done
30% done
40% done
50% done
60% done
70% done
80% done
90% done


SPIN-CASE Alpha-Alpha-Beta:
10% done
20% done
30% done
40% done
50% done
60% done
70% done
80% done
90% done


SPIN-CASE Beta-Beta-Alpha:
10% done
20% done
30% done
40% done
50% done
60% done
70% done
80% done
90% done


Triples Correction (T)                     ...     -0.026162986
    alpha-alpha-alpha ... -0.001610939 (  6.2%)
    alpha-alpha-beta  ... -0.013263594 ( 50.7%)
    alpha-beta -beta  ... -0.010486189 ( 40.1%)
    beta -beta -beta  ... -0.000802263 (  3.1%)
Scaling of triples based on CCSD energies (Peterson et al. Molecular Physics 113, 1551 (2015))
E(T*) = f*E(T) where f = E(F12-CCSD)/E(CCSD) 
f = CCSD (with F12)/ CCSD (without F12)    ...      1.000000000
Scaled triples correction (T)              ...     -0.026162986

Final correlation energy                   ...     -0.775446188
E(CCSD)                                    ...  -1639.712511642
E(CCSD(T))                                 ...  -1639.738674628



        !!!!!!!!!!!!!!!!!!!!!!!!!!!!!!!!!!!!!!!!!!!!!!!!!!!!!!!!!!!!!!!!!!!!!!!!!! 
        !  Warning: Densities are linearized densities                           !
        !!!!!!!!!!!!!!!!!!!!!!!!!!!!!!!!!!!!!!!!!!!!!!!!!!!!!!!!!!!!!!!!!!!!!!!!!! 

NORM  =      1.109608116 sqrt=     1.053379379
W(HF) =      0.901219075
------------------------------------------------------------------------------
                           ORCA POPULATION ANALYSIS
------------------------------------------------------------------------------
Input electron density              ... 69_Cu.mdcip
Input spin density                  ... 69_Cu.mdcir
BaseName (.gbw .S,...)              ... 69_Cu

                    ********************************
                    * MULLIKEN POPULATION ANALYSIS *
                    ********************************

------------------------------------------
MULLIKEN ATOMIC CHARGES AND SPIN DENSITIES
------------------------------------------
   0 Cu:   -0.000000    1.000000
Sum of atomic charges       :   -0.0000000
Sum of atomic spin densities:    1.0000000

---------------------------------------------------
MULLIKEN REDUCED ORBITAL CHARGES AND SPIN DENSITIES
---------------------------------------------------
CHARGE
  0 Cus       :     6.989222  s :     6.989222
      pz      :     4.006223  p :    12.018668
      px      :     4.006223
      py      :     4.006223
      dz2     :     1.989838  d :     9.949190
      dxz     :     1.989838
      dyz     :     1.989838
      dx2y2   :     1.989838
      dxy     :     1.989838
      f0      :     0.005490  f :     0.038432
      f+1     :     0.005490
      f-1     :     0.005490
      f+2     :     0.005490
      f-2     :     0.005490
      f+3     :     0.005490
      f-3     :     0.005490
      g0      :     0.000499  g :     0.004488
      g+1     :     0.000499
      g-1     :     0.000499
      g+2     :     0.000499
      g-2     :     0.000499
      g+3     :     0.000499
      g-3     :     0.000499
      g+4     :     0.000499
      g-4     :     0.000499

SPIN
  0 Cus       :     0.986433  s :     0.986433
      pz      :     0.002095  p :     0.006285
      px      :     0.002095
      py      :     0.002095
      dz2     :     0.001647  d :     0.008234
      dxz     :     0.001647
      dyz     :     0.001647
      dx2y2   :     0.001647
      dxy     :     0.001647
      f0      :    -0.000135  f :    -0.000942
      f+1     :    -0.000135
      f-1     :    -0.000135
      f+2     :    -0.000135
      f-2     :    -0.000135
      f+3     :    -0.000135
      f-3     :    -0.000135
      g0      :    -0.000001  g :    -0.000010
      g+1     :    -0.000001
      g-1     :    -0.000001
      g+2     :    -0.000001
      g-2     :    -0.000001
      g+3     :    -0.000001
      g-3     :    -0.000001
      g+4     :    -0.000001
      g-4     :    -0.000001


                     *******************************
                     * LOEWDIN POPULATION ANALYSIS *
                     *******************************

-----------------------------------------
LOEWDIN ATOMIC CHARGES AND SPIN DENSITIES
-----------------------------------------
   0 Cu:   -0.000000    1.000000

--------------------------------------------------
LOEWDIN REDUCED ORBITAL CHARGES AND SPIN DENSITIES
--------------------------------------------------
CHARGE
  0 Cus       :     6.989222  s :     6.989222
      pz      :     4.006223  p :    12.018668
      px      :     4.006223
      py      :     4.006223
      dz2     :     1.989838  d :     9.949190
      dxz     :     1.989838
      dyz     :     1.989838
      dx2y2   :     1.989838
      dxy     :     1.989838
      f0      :     0.005490  f :     0.038432
      f+1     :     0.005490
      f-1     :     0.005490
      f+2     :     0.005490
      f-2     :     0.005490
      f+3     :     0.005490
      f-3     :     0.005490
      g0      :     0.000499  g :     0.004488
      g+1     :     0.000499
      g-1     :     0.000499
      g+2     :     0.000499
      g-2     :     0.000499
      g+3     :     0.000499
      g-3     :     0.000499
      g+4     :     0.000499
      g-4     :     0.000499

SPIN
  0 Cus       :     0.986433  s :     0.986433
      pz      :     0.002095  p :     0.006285
      px      :     0.002095
      py      :     0.002095
      dz2     :     0.001647  d :     0.008234
      dxz     :     0.001647
      dyz     :     0.001647
      dx2y2   :     0.001647
      dxy     :     0.001647
      f0      :    -0.000135  f :    -0.000942
      f+1     :    -0.000135
      f-1     :    -0.000135
      f+2     :    -0.000135
      f-2     :    -0.000135
      f+3     :    -0.000135
      f-3     :    -0.000135
      g0      :    -0.000001  g :    -0.000010
      g+1     :    -0.000001
      g-1     :    -0.000001
      g+2     :    -0.000001
      g-2     :    -0.000001
      g+3     :    -0.000001
      g-3     :    -0.000001
      g+4     :    -0.000001
      g-4     :    -0.000001


                      *****************************
                      * MAYER POPULATION ANALYSIS *
                      *****************************

  NA   - Mulliken gross atomic population
  ZA   - Total nuclear charge
  QA   - Mulliken gross atomic charge
  VA   - Mayer's total valence
  BVA  - Mayer's bonded valence
  FA   - Mayer's free valence

  ATOM       NA         ZA         QA         VA         BVA        FA
  0 Cu    29.0000    29.0000    -0.0000     1.6985     0.0000     1.6985





------------------------------------------------------------------------------- 
                                     TIMINGS                                   
------------------------------------------------------------------------------- 


Total execution time                   ...       19.353 sec

Fock Matrix Formation                  ...        0.354 sec (  1.8%)
Initial Guess                          ...        0.030 sec (  0.2%)
DIIS Solver                            ...        1.004 sec (  5.2%)
State Vector Update                    ...        0.049 sec (  0.3%)
Sigma-vector construction              ...       12.695 sec ( 65.6%)
  <0|H|D>                              ...        0.003 sec (  0.0% of sigma)
  <D|H|D>(0-ext Fock)                  ...        0.018 sec (  0.1% of sigma)
  <D|H|D>(0-ext)                       ...        0.067 sec (  0.5% of sigma)
  <D|H|D>(2-ext Fock)                  ...        0.007 sec (  0.1% of sigma)
  <D|H|D>(2-ext)                       ...        0.291 sec (  2.3% of sigma)
  <D|H|D>(4-ext)                       ...        5.440 sec ( 42.8% of sigma)
  <S|H|0>                              ...        0.817 sec (  6.4% of sigma)
  <S|H|S>                              ...        0.002 sec (  0.0% of sigma)
  <S|H|D>(1-ext)                       ...        0.006 sec (  0.0% of sigma)
  <D|H|S>(1-ext)                       ...        0.094 sec (  0.7% of sigma)
  Fock-dressing                        ...        2.898 sec ( 22.8% of sigma)
  (ik|jl)-dressing                     ...        0.080 sec (  0.6% of sigma)
  (ij|ab),(ia|jb)-dressing             ...        2.367 sec ( 18.6% of sigma)
  Pair energies                        ...        0.004 sec (  0.0% of sigma)
Total Time for computing (T)           ...        2.117 sec ( 10.9% of ALL)
  I/O of integral and amplitudes       ...        0.472 sec ( 22.3% of (T))
  External N**7 contributions          ...        0.558 sec ( 26.4% of (T))
  Internal N**7 contributions          ...        0.274 sec ( 12.9% of (T))
  N**6 triples energy contributions    ...        0.776 sec ( 36.7% of (T))


-------------------
EXTRAPOLATED ENERGY
-------------------


-----------------------------------------------------------------
                      EP1 - MDCI extrapolation:
-----------------------------------------------------------------
NOTE: We use as reference SCF energy, for the extrapolation, the one from the MDCI module and not the one 
from the SCF calculation. In case the first step is a DFT calculation these two might be different.

NOTE: For the SCF part we extrapolate based on the scheme proposed in J. Chem. Phys. 2008, 129, 184116
using the exponents from J. Chem. Theory Comput., 7, 33-43 (2011)

NOTE: For the correlation part we extrapolate based on the scheme proposed in J. Chem. Phys. 1997, 106, 9639
using the exponents from J. Chem. Theory Comput., 7, 33-43 (2011)


Alpha(3/4)     :  7.880 (SCF Extrapolation)
Beta(3/4)      :  2.970 (correlation extrapolation)

SCF energy with basis def2-TZVPP:                     -1638.923174854
SCF energy with basis def2-QZVPP:                     -1638.963228441
Extrapolated CBS SCF energy (3/4) :                   -1638.968745369 (-0.005516929) 

MDCI energy with basis def2-TZVPP:                       -0.743770007
MDCI energy with basis def2-QZVPP:                       -0.775446188
Extrapolated CBS correlation energy (3/4) :              -0.798910007 (-0.023463820)

Estimated CBS total energy (3/4) :                    -1639.767655377



-------------------------   --------------------
FINAL SINGLE POINT ENERGY     -1639.767655376686
-------------------------   --------------------


                            ***************************************
                            *     ORCA property calculations      *
                            ***************************************

                                    ---------------------
                                    Active property flags
                                    ---------------------
   (+) Dipole Moment


------------------------------------------------------------------------------
                       ORCA ELECTRIC PROPERTIES CALCULATION
------------------------------------------------------------------------------

Dipole Moment Calculation                       ... on
Quadrupole Moment Calculation                   ... off
Polarizability Calculation                      ... off
GBWName                                         ... 69_Cu.gbw
Electron density file                           ... 69_Cu.scfp
The origin for moment calculation is the CENTER OF MASS  = ( 0.000000,  0.000000  0.000000)

-------------
DIPOLE MOMENT
-------------
                                X             Y             Z
Electronic contribution:     -0.00000      -0.00000      -0.00000
Nuclear contribution   :      0.00000       0.00000       0.00000
                        -----------------------------------------
Total Dipole Moment    :     -0.00000      -0.00000      -0.00000
                        -----------------------------------------
Magnitude (a.u.)       :      0.00000
Magnitude (Debye)      :      0.00000



--------------------
Rotational spectrum 
--------------------
 
Rotational constants in cm-1:     0.000000     0.000000     0.000000 
Rotational constants in MHz :     0.000000     0.000000     0.000000 

 Dipole components along the rotational axes: 
x,y,z [a.u.] :    -0.000000    -0.000000    -0.000000 
x,y,z [Debye]:    -0.000000    -0.000000    -0.000000 

 

                           *** MDCI DENSITY ***

------------------------------------------------------------------------------
                       ORCA ELECTRIC PROPERTIES CALCULATION
------------------------------------------------------------------------------

Dipole Moment Calculation                       ... on
Quadrupole Moment Calculation                   ... off
Polarizability Calculation                      ... off
GBWName                                         ... 69_Cu.gbw
Electron density file                           ... 69_Cu.mdcip
The origin for moment calculation is the CENTER OF MASS  = ( 0.000000,  0.000000  0.000000)

-------------
DIPOLE MOMENT
-------------
                                X             Y             Z
Electronic contribution:      0.00000       0.00000       0.00000
Nuclear contribution   :      0.00000       0.00000       0.00000
                        -----------------------------------------
Total Dipole Moment    :      0.00000       0.00000       0.00000
                        -----------------------------------------
Magnitude (a.u.)       :      0.00000
Magnitude (Debye)      :      0.00000



--------------------
Rotational spectrum 
--------------------
 
Rotational constants in cm-1:     0.000000     0.000000     0.000000 
Rotational constants in MHz :     0.000000     0.000000     0.000000 

 Dipole components along the rotational axes: 
x,y,z [a.u.] :     0.000000     0.000000     0.000000 
x,y,z [Debye]:     0.000000     0.000000     0.000000 

 

Timings for individual modules:

Sum of individual times         ...       31.812 sec (=   0.530 min)
GTO integral calculation        ...        1.791 sec (=   0.030 min)   5.6 %
SCF iterations                  ...        5.093 sec (=   0.085 min)  16.0 %
MDCI module                     ...       24.927 sec (=   0.415 min)  78.4 %
                             ****ORCA TERMINATED NORMALLY****
TOTAL RUN TIME: 0 days 0 hours 0 minutes 32 seconds 828 msec
