
                                 *****************
                                 * O   R   C   A *
                                 *****************

           --- An Ab Initio, DFT and Semiempirical electronic structure package ---

                  #######################################################
                  #                        -***-                        #
                  #          Department of theory and spectroscopy      #
                  #               Directorship: Frank Neese             #
                  #        Max Planck Institute fuer Kohlenforschung    #
                  #                Kaiser Wilhelm Platz 1               #
                  #                 D-45470 Muelheim/Ruhr               #
                  #                      Germany                        #
                  #                                                     #
                  #                  All rights reserved                #
                  #                        -***-                        #
                  #######################################################


                         Program Version 4.2.0 -  RELEASE  -


 With contributions from (in alphabetic order):
   Daniel Aravena         : Magnetic Suceptibility
   Michael Atanasov       : Ab Initio Ligand Field Theory (pilot matlab implementation)
   Alexander A. Auer      : GIAO ZORA, VPT2
   Ute Becker             : Parallelization
   Giovanni Bistoni       : ED, misc. LED, open-shell LED, HFLED
   Martin Brehm           : Molecular dynamics
   Dmytro Bykov           : SCF Hessian
   Vijay G. Chilkuri      : MRCI spin determinant printing, contributions to CSF-ICE
   Dipayan Datta          : RHF DLPNO-CCSD density
   Achintya Kumar Dutta   : EOM-CC, STEOM-CC
   Dmitry Ganyushin       : Spin-Orbit,Spin-Spin,Magnetic field MRCI
   Miquel Garcia          : C-PCM Hessian, Gaussian charge scheme
   Yang Guo               : DLPNO-NEVPT2, CIM, IAO-localization
   Andreas Hansen         : Spin unrestricted coupled pair/coupled cluster methods
   Benjamin Helmich-Paris : CASSCF linear response (MC-RPA)
   Lee Huntington         : MR-EOM, pCC
   Robert Izsak           : Overlap fitted RIJCOSX, COSX-SCS-MP3, EOM
   Christian Kollmar      : KDIIS, OOCD, Brueckner-CCSD(T), CCSD density
   Simone Kossmann        : Meta GGA functionals, TD-DFT gradient, OOMP2, MP2 Hessian
   Martin Krupicka        : AUTO-CI
   Lucas Lang             : DCDCAS
   Dagmar Lenk            : GEPOL surface, SMD
   Dimitrios Liakos       : Extrapolation schemes; Compound Job, initial MDCI parallelization
   Dimitrios Manganas     : Further ROCIS development; embedding schemes
   Dimitrios Pantazis     : SARC Basis sets
   Taras Petrenko         : DFT Hessian,TD-DFT gradient, ASA, ECA, R-Raman, ABS, FL, XAS/XES, NRVS
   Peter Pinski           : DLPNO-MP2, DLPNO-MP2 Gradient
   Christoph Reimann      : Effective Core Potentials
   Marius Retegan         : Local ZFS, SOC
   Christoph Riplinger    : Optimizer, TS searches, QM/MM, DLPNO-CCSD(T), (RO)-DLPNO pert. Triples
   Tobias Risthaus        : Range-separated hybrids, TD-DFT gradient, RPA, STAB
   Michael Roemelt        : Original ROCIS implementation
   Masaaki Saitow         : Open-shell DLPNO-CCSD energy and density
   Barbara Sandhoefer     : DKH picture change effects
   Avijit Sen             : IP-ROCIS
   Kantharuban Sivalingam : CASSCF convergence, NEVPT2, FIC-MRCI
   Bernardo de Souza      : ESD, SOC TD-DFT
   Georgi Stoychev        : AutoAux, RI-MP2 NMR
   Willem Van den Heuvel  : Paramagnetic NMR
   Boris Wezisla          : Elementary symmetry handling
   Frank Wennmohs         : Technical directorship


 We gratefully acknowledge several colleagues who have allowed us to
 interface, adapt or use parts of their codes:
   Stefan Grimme, W. Hujo, H. Kruse,             : VdW corrections, initial TS optimization,
                  C. Bannwarth                     DFT functionals, gCP, sTDA/sTD-DF
   Ed Valeev, F. Pavosevic, A. Kumar             : LibInt (2-el integral package), F12 methods
   Garnet Chan, S. Sharma, J. Yang, R. Olivares  : DMRG
   Ulf Ekstrom                                   : XCFun DFT Library
   Mihaly Kallay                                 : mrcc  (arbitrary order and MRCC methods)
   Andreas Klamt, Michael Diedenhofen            : otool_cosmo (COSMO solvation model)
   Jiri Pittner, Ondrej Demel                    : Mk-CCSD
   Frank Weinhold                                : gennbo (NPA and NBO analysis)
   Christopher J. Cramer and Donald G. Truhlar   : smd solvation model
   Lars Goerigk                                  : TD-DFT with DH, B97 family of functionals
   V. Asgeirsson, H. Jonsson                     : NEB implementation
   FAccTs GmbH                                   : IRC, NEB, NEB-TS, Multilevel, MM, QM/MM, CI optimization
   S Lehtola, MJT Oliveira, MAL Marques          : LibXC Library


 Your calculation uses the libint2 library for the computation of 2-el integrals
 For citations please refer to: http://libint.valeyev.net

 Your ORCA version has been built with support for libXC version: 4.2.3
 For citations please refer to: https://tddft.org/programs/libxc/

 This ORCA versions uses:
   CBLAS   interface :  Fast vector & matrix operations
   LAPACKE interface :  Fast linear algebra routines
   SCALAPACK package :  Parallel linear algebra routines


----- Orbital basis set information -----
Your calculation utilizes the basis: def2-TZVPP
   F. Weigend and R. Ahlrichs, Phys. Chem. Chem. Phys. 7, 3297 (2005).

================================================================================
                                        WARNINGS
                       Please study these warnings very carefully!
================================================================================


WARNING: MDCI localization with Augmented Hessian Foster-Boys
  ===> : Switching off randomization!

WARNING: Post HF methods need fully converged wavefunctions
  ===> : Setting SCFConvForced true
         You can overwrite this default with %scf ConvForced false 


INFO   : the flag for use of LIBINT has been found!

================================================================================
                                       INPUT FILE
================================================================================
NAME = 70_Zn.in
|  1> #
|  2> # 70_Zn ccsd(t)/cbs
|  3> #
|  4> ! ccsd(t) extrapolate(3/4,def2) verytightscf
|  5> 
|  6> *xyz 0 1
|  7> Zn 0.0 0.0 0.0
|  8> *
|  9> 
| 10> %maxcore 5000
| 11> %pal
| 12> nprocs 24
| 13> end
| 14> 
| 15> 
| 16>                          ****END OF INPUT****
================================================================================

                   *****************************************
                   * Extrapolated Single Point Calculation *
                   *****************************************

----- Orbital basis set information -----
Your calculation utilizes the basis: def2-TZVPP
   F. Weigend and R. Ahlrichs, Phys. Chem. Chem. Phys. 7, 3297 (2005).

----- AuxJ basis set information -----
Your calculation utilizes the auxiliary basis: def2/J
   F. Weigend, Phys. Chem. Chem. Phys. 8, 1057 (2006).

----- AuxC basis set information -----
Your calculation utilizes the auxiliary basis: def2-TZVPP/C
  H-La, Hf-Rn : A. Hellweg, C. Hattig, S. Hofener and W. Klopper, Theor. Chem. Acc. 117, 587 (2007).
        Ce-Lu : J. Chmela and M. E. Harding, Mol. Phys. (2018).

----- AuxJK basis set information -----
Your calculation utilizes the auxiliary basis: def2/JK
   H-Ba, Hf-Rn: F. Weigend, J. Comput. Chem. 29, 167 (2008).

All done

                     -----------------------------------------
                     Extrapolated Energy 1 Basis=  def2-TZVPP
                     -----------------------------------------

---------------------------------
CARTESIAN COORDINATES (ANGSTROEM)
---------------------------------
  Zn     0.000000    0.000000    0.000000

----------------------------
CARTESIAN COORDINATES (A.U.)
----------------------------
  NO LB      ZA    FRAG     MASS         X           Y           Z
   0 Zn   30.0000    0    65.380    0.000000    0.000000    0.000000

--------------------------------
INTERNAL COORDINATES (ANGSTROEM)
--------------------------------
 Zn     0   0   0     0.000000000000     0.00000000     0.00000000

---------------------------
INTERNAL COORDINATES (A.U.)
---------------------------
 Zn     0   0   0     0.000000000000     0.00000000     0.00000000

---------------------
BASIS SET INFORMATION
---------------------
There are 1 groups of distinct atoms

 Group   1 Type Zn  : 17s12p7d2f1g contracted to 6s5p4d2f1g pattern {842111/63111/4111/11/1}

Atom   0Zn   basis set group =>   1
---------------------------------
AUXILIARY/J BASIS SET INFORMATION
---------------------------------
There are 1 groups of distinct atoms

 Group   1 Type Zn  : 19s5p5d3f3g contracted to 8s5p5d2f3g pattern {121111111/11111/11111/21/111}

Atom   0Zn   basis set group =>   1
---------------------------------
AUXILIARY/C BASIS SET INFORMATION
---------------------------------
There are 1 groups of distinct atoms

 Group   1 Type Zn  : 9s10p8d7f5g3h1i contracted to 9s10p8d7f5g3h1i pattern {111111111/1111111111/11111111/1111111/11111/111/1}

Atom   0Zn   basis set group =>   1
----------------------------------
AUXILIARY/JK BASIS SET INFORMATION
----------------------------------
There are 1 groups of distinct atoms

 Group   1 Type Zn  : 19s14p12d10f7g3h1i contracted to 16s13p11d9f5g3h1i pattern {4111111111111111/2111111111111/21111111111/211111111/31111/111/1}

Atom   0Zn   basis set group =>   1


           ************************************************************
           *        Program running with 24 parallel MPI-processes    *
           *              working on a common directory               *
           ************************************************************
------------------------------------------------------------------------------
                           ORCA GTO INTEGRAL CALCULATION
------------------------------------------------------------------------------

                         BASIS SET STATISTICS AND STARTUP INFO

 # of primitive gaussian shells          ...   39
 # of primitive gaussian functions       ...  111
 # of contracted shells                  ...   18
 # of contracted basis functions         ...   64
 Highest angular momentum                ...    4
 Maximum contraction depth               ...    8
 Integral package used                   ... LIBINT
 Integral threshhold            Thresh   ...  1.000e-12
 Primitive cut-off              TCut     ...  1.000e-14


------------------------------ INTEGRAL EVALUATION ----------------------------


 * One electron integrals 
 Pre-screening matrix                    ... done
 Shell pair data                         ... done (   0.000 sec)



           ************************************************************
           *        Program running with 24 parallel MPI-processes    *
           *              working on a common directory               *
           ************************************************************
-------------------------------------------------------------------------------
                                 ORCA SCF
-------------------------------------------------------------------------------

------------
SCF SETTINGS
------------
Hamiltonian:
 Ab initio Hamiltonian  Method          .... Hartree-Fock(GTOs)


General Settings:
 Integral files         IntName         .... 70_Zn
 Hartree-Fock type      HFTyp           .... RHF
 Total Charge           Charge          ....    0
 Multiplicity           Mult            ....    1
 Number of Electrons    NEL             ....   30
 Basis Dimension        Dim             ....   64
 Nuclear Repulsion      ENuc            ....      0.0000000000 Eh

Convergence Acceleration:
 DIIS                   CNVDIIS         .... on
   Start iteration      DIISMaxIt       ....    12
   Startup error        DIISStart       ....  0.200000
   # of expansion vecs  DIISMaxEq       ....     5
   Bias factor          DIISBfac        ....   1.050
   Max. coefficient     DIISMaxC        ....  10.000
 Newton-Raphson         CNVNR           .... off
 SOSCF                  CNVSOSCF        .... off
 Level Shifting         CNVShift        .... on
   Level shift para.    LevelShift      ....    0.2500
   Turn off err/grad.   ShiftErr        ....    0.0010
 Zerner damping         CNVZerner       .... off
 Static damping         CNVDamp         .... on
   Fraction old density DampFac         ....    0.7000
   Max. Damping (<1)    DampMax         ....    0.9800
   Min. Damping (>=0)   DampMin         ....    0.0000
   Turn off err/grad.   DampErr         ....    0.1000
 Fernandez-Rico         CNVRico         .... off

SCF Procedure:
 Maximum # iterations   MaxIter         ....   125
 SCF integral mode      SCFMode         .... Direct
   Integral package                     .... LIBINT
 Reset frequency        DirectResetFreq ....    20
 Integral Threshold     Thresh          ....  1.000e-12 Eh
 Primitive CutOff       TCut            ....  1.000e-14 Eh

Convergence Tolerance:
 Convergence Check Mode ConvCheckMode   .... Total+1el-Energy
 Convergence forced     ConvForced      .... 1
 Energy Change          TolE            ....  1.000e-09 Eh
 1-El. energy change                    ....  1.000e-06 Eh
 DIIS Error             TolErr          ....  1.000e-08


Diagonalization of the overlap matrix:
Smallest eigenvalue                        ... 6.068e-02
Time for diagonalization                   ...    0.002 sec
Threshold for overlap eigenvalues          ... 1.000e-08
Number of eigenvalues below threshold      ... 0
Time for construction of square roots      ...    0.001 sec
Total time needed                          ...    0.003 sec

-------------------
DFT GRID GENERATION
-------------------

General Integration Accuracy     IntAcc      ...  4.340
Radial Grid Type                 RadialGrid  ... Gauss-Chebyshev
Angular Grid (max. acc.)         AngularGrid ... Lebedev-110
Angular grid pruning method      GridPruning ... 3 (G Style)
Weight generation scheme         WeightScheme... Becke
Basis function cutoff            BFCut       ...    1.0000e-12
Integration weight cutoff        WCut        ...    1.0000e-14
Grids for H and He will be reduced by one unit

# of grid points (after initial pruning)     ...   2912 (   0.0 sec)
# of grid points (after weights+screening)   ...   2912 (   0.0 sec)
Grid point division into batches done        ...    0.0 sec
Reduced shell lists constructed in    0.0 sec

Total number of grid points                  ...     2912
Total number of batches                      ...       46
Average number of points per batch           ...       63
Average number of grid points per atom       ...     2912
Average number of shells per batch           ...     4.00 (22.22%)
Average number of basis functions per batch  ...    12.00 (18.75%)
Average number of large shells per batch     ...     3.33 (83.33%)
Average number of large basis fcns per batch ...     8.67 (72.22%)
Maximum spatial batch extension              ...  17.39, 26.34, 26.34 au
Average spatial batch extension              ...   0.76,  1.15,  1.15 au

Time for grid setup =    0.020 sec

------------------------------
INITIAL GUESS: MODEL POTENTIAL
------------------------------
Loading Hartree-Fock densities                     ... done
Calculating cut-offs                               ... done
Setting up the integral package                    ... done
Initializing the effective Hamiltonian             ... done
Starting the Coulomb interaction                   ... done (   0.0 sec)
Reading the grid                                   ... done
Mapping shells                                     ... done
Starting the XC term evaluation                    ... done (   0.0 sec)
Transforming the Hamiltonian                       ... done (   0.0 sec)
Diagonalizing the Hamiltonian                      ... done (   0.0 sec)
Back transforming the eigenvectors                 ... done (   0.0 sec)
Now organizing SCF variables                       ... done
                      ------------------
                      INITIAL GUESS DONE (   0.1 sec)
                      ------------------
--------------
SCF ITERATIONS
--------------
ITER       Energy         Delta-E        Max-DP      RMS-DP      [F,P]     Damp
               ***  Starting incremental Fock matrix formation  ***
  0  -1777.7024019930   0.000000000000 0.02385447  0.00168953  0.3251308 0.7000
  1  -1777.7413107297  -0.038908736772 0.02694133  0.00108507  0.1493820 0.7000
                               ***Turning on DIIS***
  2  -1777.7610135952  -0.019702865508 0.12643643  0.00308316  0.0711530 0.0000
  3  -1778.3518749568  -0.590861361565 0.07828269  0.00178083  0.0631716 0.0000
  4  -1777.4843236476   0.867551309247 0.06054754  0.00125397  0.0204556 0.0000
  5  -1777.7455619235  -0.261238275895 0.03437084  0.00071899  0.0050385 0.0000
  6  -1777.8004829698  -0.054921046332 0.01840018  0.00038911  0.0024505 0.0000
  7  -1777.8095752762  -0.009092306390 0.00785997  0.00016707  0.0010464 0.0000
  8  -1777.8092571262   0.000318150004 0.00467015  0.00009948  0.0004280 0.0000
  9  -1777.8072134642   0.002043661975 0.00061589  0.00001317  0.0000520 0.0000
 10  -1777.8070964171   0.000117047079 0.00001951  0.00000043  0.0000054 0.0000
 11  -1777.8070596218   0.000036795283 0.00000598  0.00000013  0.0000011 0.0000
 12  -1777.8070670981  -0.000007476303 0.00000014  0.00000000  0.0000001 0.0000
                            ***DIIS convergence achieved***

               *****************************************************
               *                     SUCCESS                       *
               *           SCF CONVERGED AFTER  13 CYCLES          *
               *****************************************************


----------------
TOTAL SCF ENERGY
----------------

Total Energy       :        -1777.80706627 Eh          -48376.58969 eV

Components:
Nuclear Repulsion  :            0.00000000 Eh               0.00000 eV
Electronic Energy  :        -1777.80706627 Eh          -48376.58969 eV
One Electron Energy:        -2483.97511080 Eh          -67592.39910 eV
Two Electron Energy:          706.16804454 Eh           19215.80940 eV

Virial components:
Potential Energy   :        -3555.56061217 Eh          -96751.72302 eV
Kinetic Energy     :         1777.75354591 Eh           48375.13333 eV
Virial Ratio       :            2.00003011


---------------
SCF CONVERGENCE
---------------

  Last Energy change         ...    8.3178e-07  Tolerance :   1.0000e-09
  Last MAX-Density change    ...    4.0650e-08  Tolerance :   1.0000e-08
  Last RMS-Density change    ...    8.8218e-10  Tolerance :   1.0000e-09
  Last DIIS Error            ...    7.4078e-09  Tolerance :   1.0000e-08

             **** THE GBW FILE WAS UPDATED (70_Zn.gbw) ****
             **** DENSITY FILE WAS UPDATED (70_Zn.scfp) ****
             **** ENERGY FILE WAS UPDATED (70_Zn.en.tmp) ****
             **** THE GBW FILE WAS UPDATED (70_Zn.gbw) ****
             **** DENSITY FILE WAS UPDATED (70_Zn.scfp) ****
----------------
ORBITAL ENERGIES
----------------

  NO   OCC          E(Eh)            E(eV) 
   0   2.0000    -353.305688     -9613.9365 
   1   2.0000     -44.363993     -1207.2056 
   2   2.0000     -38.927118     -1059.2607 
   3   2.0000     -38.927118     -1059.2607 
   4   2.0000     -38.927118     -1059.2607 
   5   2.0000      -5.639299      -153.4531 
   6   2.0000      -3.840975      -104.5182 
   7   2.0000      -3.840975      -104.5182 
   8   2.0000      -3.840975      -104.5182 
   9   2.0000      -0.782701       -21.2984 
  10   2.0000      -0.782701       -21.2984 
  11   2.0000      -0.782701       -21.2984 
  12   2.0000      -0.782701       -21.2984 
  13   2.0000      -0.782701       -21.2984 
  14   2.0000      -0.292746        -7.9660 
  15   0.0000       0.056620         1.5407 
  16   0.0000       0.056620         1.5407 
  17   0.0000       0.056620         1.5407 
  18   0.0000       0.241688         6.5767 
  19   0.0000       0.331373         9.0171 
  20   0.0000       0.331373         9.0171 
  21   0.0000       0.331373         9.0171 
  22   0.0000       0.360319         9.8048 
  23   0.0000       0.360319         9.8048 
  24   0.0000       0.360319         9.8048 
  25   0.0000       0.360319         9.8048 
  26   0.0000       0.360319         9.8048 
  27   0.0000       1.441358        39.2213 
  28   0.0000       1.441358        39.2213 
  29   0.0000       1.441358        39.2213 
  30   0.0000       1.441358        39.2213 
  31   0.0000       1.441358        39.2213 
  32   0.0000       2.760190        75.1086 
  33   0.0000       2.760190        75.1086 
  34   0.0000       2.760190        75.1086 
  35   0.0000       3.920707       106.6879 
  36   0.0000       4.292417       116.8026 
  37   0.0000       4.292417       116.8026 
  38   0.0000       4.292417       116.8026 
  39   0.0000       4.292417       116.8026 
  40   0.0000       4.292417       116.8026 
  41   0.0000       4.292417       116.8026 
  42   0.0000       4.292417       116.8026 
  43   0.0000       5.388263       146.6221 
  44   0.0000       5.388263       146.6221 
  45   0.0000       5.388263       146.6221 
  46   0.0000       5.388263       146.6221 
  47   0.0000       5.388263       146.6221 
  48   0.0000      15.054227       409.6463 
  49   0.0000      15.054227       409.6463 
  50   0.0000      15.054227       409.6463 
  51   0.0000      15.054227       409.6463 
  52   0.0000      15.054227       409.6463 
  53   0.0000      15.054227       409.6463 
  54   0.0000      15.054227       409.6463 
  55   0.0000      15.054227       409.6463 
  56   0.0000      15.054227       409.6463 
  57   0.0000      15.905146       432.8010 
  58   0.0000      15.905146       432.8010 
  59   0.0000      15.905146       432.8010 
  60   0.0000      15.905146       432.8010 
  61   0.0000      15.905146       432.8010 
  62   0.0000      15.905146       432.8010 
  63   0.0000      15.905146       432.8010 

                    ********************************
                    * MULLIKEN POPULATION ANALYSIS *
                    ********************************

-----------------------
MULLIKEN ATOMIC CHARGES
-----------------------
   0 Zn:   -0.000000
Sum of atomic charges:   -0.0000000

--------------------------------
MULLIKEN REDUCED ORBITAL CHARGES
--------------------------------
  0 Zns       :     8.000000  s :     8.000000
      pz      :     4.000000  p :    12.000000
      px      :     4.000000
      py      :     4.000000
      dz2     :     2.000000  d :    10.000000
      dxz     :     2.000000
      dyz     :     2.000000
      dx2y2   :     2.000000
      dxy     :     2.000000
      f0      :     0.000000  f :     0.000000
      f+1     :     0.000000
      f-1     :     0.000000
      f+2     :     0.000000
      f-2     :     0.000000
      f+3     :     0.000000
      f-3     :     0.000000
      g0      :     0.000000  g :     0.000000
      g+1     :     0.000000
      g-1     :     0.000000
      g+2     :     0.000000
      g-2     :     0.000000
      g+3     :     0.000000
      g-3     :     0.000000
      g+4     :     0.000000
      g-4     :     0.000000


                     *******************************
                     * LOEWDIN POPULATION ANALYSIS *
                     *******************************

----------------------
LOEWDIN ATOMIC CHARGES
----------------------
   0 Zn:   -0.000000

-------------------------------
LOEWDIN REDUCED ORBITAL CHARGES
-------------------------------
  0 Zns       :     8.000000  s :     8.000000
      pz      :     4.000000  p :    12.000000
      px      :     4.000000
      py      :     4.000000
      dz2     :     2.000000  d :    10.000000
      dxz     :     2.000000
      dyz     :     2.000000
      dx2y2   :     2.000000
      dxy     :     2.000000
      f0      :     0.000000  f :     0.000000
      f+1     :     0.000000
      f-1     :     0.000000
      f+2     :     0.000000
      f-2     :     0.000000
      f+3     :     0.000000
      f-3     :     0.000000
      g0      :     0.000000  g :     0.000000
      g+1     :     0.000000
      g-1     :     0.000000
      g+2     :     0.000000
      g-2     :     0.000000
      g+3     :     0.000000
      g-3     :     0.000000
      g+4     :     0.000000
      g-4     :     0.000000


                      *****************************
                      * MAYER POPULATION ANALYSIS *
                      *****************************

  NA   - Mulliken gross atomic population
  ZA   - Total nuclear charge
  QA   - Mulliken gross atomic charge
  VA   - Mayer's total valence
  BVA  - Mayer's bonded valence
  FA   - Mayer's free valence

  ATOM       NA         ZA         QA         VA         BVA        FA
  0 Zn    30.0000    30.0000    -0.0000    -0.0000     0.0000    -0.0000

  Mayer bond orders larger than 0.100000


--------------------------
ATOM BASIS FOR ELEMENT Zn
--------------------------
 NewGTO Zn
 S 17
    1     405924.310279999976         0.000236935192
    2      60846.955735000003         0.001837252983
    3      13847.343091999999         0.009556089677
    4       3919.615855100000         0.038870493132
    5       1276.359416700000         0.126743113934
    6        458.672544350000         0.301696268448
    7        178.287252460000         0.433787408617
    8         70.612192837000         0.230336047420
    9        443.880779500000        -0.000184605199
   10        137.558752670000        -0.000874962707
   11         22.268083479000         0.004099214768
   12          9.521731060600         0.003896473828
   13         14.874114065000         0.000895328723
   14          2.464751761200        -0.002777573789
   15          1.011327223800         0.001477834753
   16          0.149198520900        -0.000393512874
   17          0.051441873000         0.000177648083
 S 17
    1     405924.310279999976         0.000076334904
    2      60846.955735000003         0.000591919372
    3      13847.343091999999         0.003078745636
    4       3919.615855100000         0.012523151745
    5       1276.359416700000         0.040833627787
    6        458.672544350000         0.097199388180
    7        178.287252460000         0.139756023284
    8         70.612192837000         0.074208816040
    9        443.880779500000         0.026111499396
   10        137.558752670000         0.123759180865
   11         22.268083479000        -0.579813811618
   12          9.521731060600        -0.551137100589
   13         14.874114065000         0.012836017805
   14          2.464751761200        -0.039821113419
   15          1.011327223800         0.007763307946
   16          0.149198520900        -0.001647308339
   17          0.051441873000         0.000717221351
 S 17
    1     405924.310279999976         0.000028621238
    2      60846.955735000003         0.000221936028
    3      13847.343091999999         0.001154354139
    4       3919.615855100000         0.004695468140
    5       1276.359416700000         0.015310283083
    6        458.672544350000         0.036444230630
    7        178.287252460000         0.052400543253
    8         70.612192837000         0.027824076439
    9        443.880779500000         0.011774994374
   10        137.558752670000         0.055809267645
   11         22.268083479000        -0.261467343035
   12          9.521731060600        -0.248535565127
   13         14.874114065000        -0.240563697173
   14          2.464751761200         0.746299546715
   15          1.011327223800         0.475262346606
   16          0.149198520900         0.013204593970
   17          0.051441873000        -0.004175544235
 S 17
    1     405924.310279999976         0.000005951617
    2      60846.955735000003         0.000046150283
    3      13847.343091999999         0.000240041111
    4       3919.615855100000         0.000976394809
    5       1276.359416700000         0.003183682751
    6        458.672544350000         0.007578362060
    7        178.287252460000         0.010896382830
    8         70.612192837000         0.005785852015
    9        443.880779500000         0.002143737782
   10        137.558752670000         0.010160551406
   11         22.268083479000        -0.047602351582
   12          9.521731060600        -0.045248011528
   13         14.874114065000        -0.067877999023
   14          2.464751761200         0.210577574662
   15          1.011327223800         0.248003760680
   16          0.149198520900        -0.582949524098
   17          0.051441873000        -0.552888373185
 S 17
    1     405924.310279999976         0.000005281407
    2      60846.955735000003         0.000040953310
    3      13847.343091999999         0.000213010134
    4       3919.615855100000         0.000866443202
    5       1276.359416700000         0.002825168928
    6        458.672544350000         0.006724964354
    7        178.287252460000         0.009669343527
    8         70.612192837000         0.005134308477
    9        443.880779500000         0.002337152279
   10        137.558752670000         0.011077267041
   11         22.268083479000        -0.051897179511
   12          9.521731060600        -0.049330423787
   13         14.874114065000        -0.049578697276
   14          2.464751761200         0.153807742974
   15          1.011327223800         0.404468695446
   16          0.149198520900        -1.959081142060
   17          0.051441873000         1.744354449646
 S 17
    1     405924.310279999976        -0.000039473278
    2      60846.955735000003        -0.000306085381
    3      13847.343091999999        -0.001592039514
    4       3919.615855100000        -0.006475803713
    5       1276.359416700000        -0.021115336124
    6        458.672544350000        -0.050262439653
    7        178.287252460000        -0.072268754136
    8         70.612192837000        -0.038373864361
    9        443.880779500000         0.001746537672
   10        137.558752670000         0.008277964755
   11         22.268083479000        -0.038782401946
   12          9.521731060600        -0.036864283213
   13         14.874114065000         0.883525613849
   14          2.464751761200        -2.740957064072
   15          1.011327223800         2.804882255544
   16          0.149198520900        -1.106905930087
   17          0.051441873000         0.501153238260
 P 12
    1       2205.350853400000         0.002618735795
    2        522.353006990000         0.021337860929
    3        167.730555420000         0.100859712546
    4         62.670045373000         0.292785563539
    5         25.109749456000         0.474816995700
    6         10.225142681000         0.276031009598
    7         40.713442521000        -0.000498852006
    8          5.624709069600         0.009232145928
    9          2.227994911600         0.015877891451
   10          0.833547416900        -0.003781266567
   11          0.162455000000         0.001059433854
   12          0.047769000000        -0.000398213647
 P 12
    1       2205.350853400000         0.001021005864
    2        522.353006990000         0.008319312383
    3        167.730555420000         0.039323691268
    4         62.670045373000         0.114152705950
    5         25.109749456000         0.185124034925
    6         10.225142681000         0.107620356314
    7         40.713442521000         0.018470310977
    8          5.624709069600        -0.341826041347
    9          2.227994911600        -0.587888972069
   10          0.833547416900        -0.262704536523
   11          0.162455000000        -0.006864180056
   12          0.047769000000         0.000667229988
 P 12
    1       2205.350853400000         0.000096782425
    2        522.353006990000         0.000788598046
    3        167.730555420000         0.003727541974
    4         62.670045373000         0.010820678047
    5         25.109749456000         0.017548139259
    6         10.225142681000         0.010201468439
    7         40.713442521000         0.002148802003
    8          5.624709069600        -0.039767412857
    9          2.227994911600        -0.068393921582
   10          0.833547416900        -0.007390690123
   11          0.162455000000         0.137660711549
   12          0.047769000000         0.907535394616
 P 12
    1       2205.350853400000         0.000206159656
    2        522.353006990000         0.001679820501
    3        167.730555420000         0.007940168575
    4         62.670045373000         0.023049507799
    5         25.109749456000         0.037379910107
    6         10.225142681000         0.021730507583
    7         40.713442521000         0.004398806245
    8          5.624709069600        -0.081407753618
    9          2.227994911600        -0.140008995232
   10          0.833547416900        -0.111210742234
   11          0.162455000000         1.365809419399
   12          0.047769000000        -0.964091784254
 P 12
    1       2205.350853400000         0.000862587038
    2        522.353006990000         0.007028491491
    3        167.730555420000         0.033222244433
    4         62.670045373000         0.096440821740
    5         25.109749456000         0.156400270177
    6         10.225142681000         0.090922028633
    7         40.713442521000         0.025328652563
    8          5.624709069600        -0.468751882380
    9          2.227994911600        -0.806182177350
   10          0.833547416900         1.575518773903
   11          0.162455000000        -0.748345032776
   12          0.047769000000         0.290320062937
 D 7
    1         88.554315311000         0.012718952524
    2         25.721525557000         0.079337003954
    3          9.127836762400         0.244737705600
    4          3.431236406400         0.403612765004
    5          1.230892064500         0.403218069848
    6          0.390318451100         0.207102384555
    7          0.124000000000         0.017793085557
 D 7
    1         88.554315311000         0.002407974684
    2         25.721525557000         0.015020222511
    3          9.127836762400         0.046334177139
    4          3.431236406400         0.076412685587
    5          1.230892064500         0.035146754539
    6          0.390318451100         0.178557836494
    7          0.124000000000        -1.084713631502
 D 7
    1         88.554315311000         0.006399590790
    2         25.721525557000         0.039918724349
    3          9.127836762400         0.123140735355
    4          3.431236406400         0.203079343902
    5          1.230892064500         0.373070784799
    6          0.390318451100        -1.364713239540
    7          0.124000000000         0.640856074849
 D 7
    1         88.554315311000         0.019078823611
    2         25.721525557000         0.119007968731
    3          9.127836762400         0.367114155611
    4          3.431236406400         0.605431676559
    5          1.230892064500        -1.405925802359
    6          0.390318451100         0.789785234314
    7          0.124000000000        -0.260510842675
 F 2
    1          1.433000000000         0.984175534977
    2          5.694000000000         0.040858414326
 F 2
    1          1.433000000000        -0.435512774720
    2          5.694000000000         1.075454996999
 G 1
    1          3.617000000000         1.000000000000
 end
  // -----------------------------------------------
  // The basis set
  // -----------------------------------------------
  BAS[ATNO] = new BFNGauss[NSH];
  // Basis function   1 L = s
  InitBFNGauss(BAS[ATNO][  0]);
  BAS[ATNO][  0].l  = 0;
  BAS[ATNO][  0].ng = 17;
  BAS[ATNO][  0].a[  0] =    405924.310279999976;     BAS[ATNO][  0].d[  0] =         0.000236935192;
  BAS[ATNO][  0].a[  1] =     60846.955735000003;     BAS[ATNO][  0].d[  1] =         0.001837252983;
  BAS[ATNO][  0].a[  2] =     13847.343091999999;     BAS[ATNO][  0].d[  2] =         0.009556089677;
  BAS[ATNO][  0].a[  3] =      3919.615855100000;     BAS[ATNO][  0].d[  3] =         0.038870493132;
  BAS[ATNO][  0].a[  4] =      1276.359416700000;     BAS[ATNO][  0].d[  4] =         0.126743113934;
  BAS[ATNO][  0].a[  5] =       458.672544350000;     BAS[ATNO][  0].d[  5] =         0.301696268448;
  BAS[ATNO][  0].a[  6] =       178.287252460000;     BAS[ATNO][  0].d[  6] =         0.433787408617;
  BAS[ATNO][  0].a[  7] =        70.612192837000;     BAS[ATNO][  0].d[  7] =         0.230336047420;
  BAS[ATNO][  0].a[  8] =       443.880779500000;     BAS[ATNO][  0].d[  8] =        -0.000184605199;
  BAS[ATNO][  0].a[  9] =       137.558752670000;     BAS[ATNO][  0].d[  9] =        -0.000874962707;
  BAS[ATNO][  0].a[ 10] =        22.268083479000;     BAS[ATNO][  0].d[ 10] =         0.004099214768;
  BAS[ATNO][  0].a[ 11] =         9.521731060600;     BAS[ATNO][  0].d[ 11] =         0.003896473828;
  BAS[ATNO][  0].a[ 12] =        14.874114065000;     BAS[ATNO][  0].d[ 12] =         0.000895328723;
  BAS[ATNO][  0].a[ 13] =         2.464751761200;     BAS[ATNO][  0].d[ 13] =        -0.002777573789;
  BAS[ATNO][  0].a[ 14] =         1.011327223800;     BAS[ATNO][  0].d[ 14] =         0.001477834753;
  BAS[ATNO][  0].a[ 15] =         0.149198520900;     BAS[ATNO][  0].d[ 15] =        -0.000393512874;
  BAS[ATNO][  0].a[ 16] =         0.051441873000;     BAS[ATNO][  0].d[ 16] =         0.000177648083;

  // Basis function   2 L = s
  InitBFNGauss(BAS[ATNO][  1]);
  BAS[ATNO][  1].l  = 0;
  BAS[ATNO][  1].ng = 17;
  BAS[ATNO][  1].a[  0] =    405924.310279999976;     BAS[ATNO][  1].d[  0] =        -0.000076334904;
  BAS[ATNO][  1].a[  1] =     60846.955735000003;     BAS[ATNO][  1].d[  1] =        -0.000591919372;
  BAS[ATNO][  1].a[  2] =     13847.343091999999;     BAS[ATNO][  1].d[  2] =        -0.003078745636;
  BAS[ATNO][  1].a[  3] =      3919.615855100000;     BAS[ATNO][  1].d[  3] =        -0.012523151745;
  BAS[ATNO][  1].a[  4] =      1276.359416700000;     BAS[ATNO][  1].d[  4] =        -0.040833627787;
  BAS[ATNO][  1].a[  5] =       458.672544350000;     BAS[ATNO][  1].d[  5] =        -0.097199388180;
  BAS[ATNO][  1].a[  6] =       178.287252460000;     BAS[ATNO][  1].d[  6] =        -0.139756023284;
  BAS[ATNO][  1].a[  7] =        70.612192837000;     BAS[ATNO][  1].d[  7] =        -0.074208816040;
  BAS[ATNO][  1].a[  8] =       443.880779500000;     BAS[ATNO][  1].d[  8] =        -0.026111499396;
  BAS[ATNO][  1].a[  9] =       137.558752670000;     BAS[ATNO][  1].d[  9] =        -0.123759180865;
  BAS[ATNO][  1].a[ 10] =        22.268083479000;     BAS[ATNO][  1].d[ 10] =         0.579813811618;
  BAS[ATNO][  1].a[ 11] =         9.521731060600;     BAS[ATNO][  1].d[ 11] =         0.551137100589;
  BAS[ATNO][  1].a[ 12] =        14.874114065000;     BAS[ATNO][  1].d[ 12] =        -0.012836017805;
  BAS[ATNO][  1].a[ 13] =         2.464751761200;     BAS[ATNO][  1].d[ 13] =         0.039821113419;
  BAS[ATNO][  1].a[ 14] =         1.011327223800;     BAS[ATNO][  1].d[ 14] =        -0.007763307946;
  BAS[ATNO][  1].a[ 15] =         0.149198520900;     BAS[ATNO][  1].d[ 15] =         0.001647308339;
  BAS[ATNO][  1].a[ 16] =         0.051441873000;     BAS[ATNO][  1].d[ 16] =        -0.000717221351;

  // Basis function   3 L = s
  InitBFNGauss(BAS[ATNO][  2]);
  BAS[ATNO][  2].l  = 0;
  BAS[ATNO][  2].ng = 17;
  BAS[ATNO][  2].a[  0] =    405924.310279999976;     BAS[ATNO][  2].d[  0] =         0.000028621238;
  BAS[ATNO][  2].a[  1] =     60846.955735000003;     BAS[ATNO][  2].d[  1] =         0.000221936028;
  BAS[ATNO][  2].a[  2] =     13847.343091999999;     BAS[ATNO][  2].d[  2] =         0.001154354139;
  BAS[ATNO][  2].a[  3] =      3919.615855100000;     BAS[ATNO][  2].d[  3] =         0.004695468140;
  BAS[ATNO][  2].a[  4] =      1276.359416700000;     BAS[ATNO][  2].d[  4] =         0.015310283083;
  BAS[ATNO][  2].a[  5] =       458.672544350000;     BAS[ATNO][  2].d[  5] =         0.036444230630;
  BAS[ATNO][  2].a[  6] =       178.287252460000;     BAS[ATNO][  2].d[  6] =         0.052400543253;
  BAS[ATNO][  2].a[  7] =        70.612192837000;     BAS[ATNO][  2].d[  7] =         0.027824076439;
  BAS[ATNO][  2].a[  8] =       443.880779500000;     BAS[ATNO][  2].d[  8] =         0.011774994374;
  BAS[ATNO][  2].a[  9] =       137.558752670000;     BAS[ATNO][  2].d[  9] =         0.055809267645;
  BAS[ATNO][  2].a[ 10] =        22.268083479000;     BAS[ATNO][  2].d[ 10] =        -0.261467343035;
  BAS[ATNO][  2].a[ 11] =         9.521731060600;     BAS[ATNO][  2].d[ 11] =        -0.248535565127;
  BAS[ATNO][  2].a[ 12] =        14.874114065000;     BAS[ATNO][  2].d[ 12] =        -0.240563697173;
  BAS[ATNO][  2].a[ 13] =         2.464751761200;     BAS[ATNO][  2].d[ 13] =         0.746299546715;
  BAS[ATNO][  2].a[ 14] =         1.011327223800;     BAS[ATNO][  2].d[ 14] =         0.475262346606;
  BAS[ATNO][  2].a[ 15] =         0.149198520900;     BAS[ATNO][  2].d[ 15] =         0.013204593970;
  BAS[ATNO][  2].a[ 16] =         0.051441873000;     BAS[ATNO][  2].d[ 16] =        -0.004175544235;

  // Basis function   4 L = s
  InitBFNGauss(BAS[ATNO][  3]);
  BAS[ATNO][  3].l  = 0;
  BAS[ATNO][  3].ng = 17;
  BAS[ATNO][  3].a[  0] =    405924.310279999976;     BAS[ATNO][  3].d[  0] =        -0.000005951617;
  BAS[ATNO][  3].a[  1] =     60846.955735000003;     BAS[ATNO][  3].d[  1] =        -0.000046150283;
  BAS[ATNO][  3].a[  2] =     13847.343091999999;     BAS[ATNO][  3].d[  2] =        -0.000240041111;
  BAS[ATNO][  3].a[  3] =      3919.615855100000;     BAS[ATNO][  3].d[  3] =        -0.000976394809;
  BAS[ATNO][  3].a[  4] =      1276.359416700000;     BAS[ATNO][  3].d[  4] =        -0.003183682751;
  BAS[ATNO][  3].a[  5] =       458.672544350000;     BAS[ATNO][  3].d[  5] =        -0.007578362060;
  BAS[ATNO][  3].a[  6] =       178.287252460000;     BAS[ATNO][  3].d[  6] =        -0.010896382830;
  BAS[ATNO][  3].a[  7] =        70.612192837000;     BAS[ATNO][  3].d[  7] =        -0.005785852015;
  BAS[ATNO][  3].a[  8] =       443.880779500000;     BAS[ATNO][  3].d[  8] =        -0.002143737782;
  BAS[ATNO][  3].a[  9] =       137.558752670000;     BAS[ATNO][  3].d[  9] =        -0.010160551406;
  BAS[ATNO][  3].a[ 10] =        22.268083479000;     BAS[ATNO][  3].d[ 10] =         0.047602351582;
  BAS[ATNO][  3].a[ 11] =         9.521731060600;     BAS[ATNO][  3].d[ 11] =         0.045248011528;
  BAS[ATNO][  3].a[ 12] =        14.874114065000;     BAS[ATNO][  3].d[ 12] =         0.067877999023;
  BAS[ATNO][  3].a[ 13] =         2.464751761200;     BAS[ATNO][  3].d[ 13] =        -0.210577574662;
  BAS[ATNO][  3].a[ 14] =         1.011327223800;     BAS[ATNO][  3].d[ 14] =        -0.248003760680;
  BAS[ATNO][  3].a[ 15] =         0.149198520900;     BAS[ATNO][  3].d[ 15] =         0.582949524098;
  BAS[ATNO][  3].a[ 16] =         0.051441873000;     BAS[ATNO][  3].d[ 16] =         0.552888373185;

  // Basis function   5 L = s
  InitBFNGauss(BAS[ATNO][  4]);
  BAS[ATNO][  4].l  = 0;
  BAS[ATNO][  4].ng = 17;
  BAS[ATNO][  4].a[  0] =    405924.310279999976;     BAS[ATNO][  4].d[  0] =        -0.000005281407;
  BAS[ATNO][  4].a[  1] =     60846.955735000003;     BAS[ATNO][  4].d[  1] =        -0.000040953310;
  BAS[ATNO][  4].a[  2] =     13847.343091999999;     BAS[ATNO][  4].d[  2] =        -0.000213010134;
  BAS[ATNO][  4].a[  3] =      3919.615855100000;     BAS[ATNO][  4].d[  3] =        -0.000866443202;
  BAS[ATNO][  4].a[  4] =      1276.359416700000;     BAS[ATNO][  4].d[  4] =        -0.002825168928;
  BAS[ATNO][  4].a[  5] =       458.672544350000;     BAS[ATNO][  4].d[  5] =        -0.006724964354;
  BAS[ATNO][  4].a[  6] =       178.287252460000;     BAS[ATNO][  4].d[  6] =        -0.009669343527;
  BAS[ATNO][  4].a[  7] =        70.612192837000;     BAS[ATNO][  4].d[  7] =        -0.005134308477;
  BAS[ATNO][  4].a[  8] =       443.880779500000;     BAS[ATNO][  4].d[  8] =        -0.002337152279;
  BAS[ATNO][  4].a[  9] =       137.558752670000;     BAS[ATNO][  4].d[  9] =        -0.011077267041;
  BAS[ATNO][  4].a[ 10] =        22.268083479000;     BAS[ATNO][  4].d[ 10] =         0.051897179511;
  BAS[ATNO][  4].a[ 11] =         9.521731060600;     BAS[ATNO][  4].d[ 11] =         0.049330423787;
  BAS[ATNO][  4].a[ 12] =        14.874114065000;     BAS[ATNO][  4].d[ 12] =         0.049578697276;
  BAS[ATNO][  4].a[ 13] =         2.464751761200;     BAS[ATNO][  4].d[ 13] =        -0.153807742974;
  BAS[ATNO][  4].a[ 14] =         1.011327223800;     BAS[ATNO][  4].d[ 14] =        -0.404468695446;
  BAS[ATNO][  4].a[ 15] =         0.149198520900;     BAS[ATNO][  4].d[ 15] =         1.959081142060;
  BAS[ATNO][  4].a[ 16] =         0.051441873000;     BAS[ATNO][  4].d[ 16] =        -1.744354449646;

  // Basis function   6 L = s
  InitBFNGauss(BAS[ATNO][  5]);
  BAS[ATNO][  5].l  = 0;
  BAS[ATNO][  5].ng = 17;
  BAS[ATNO][  5].a[  0] =    405924.310279999976;     BAS[ATNO][  5].d[  0] =        -0.000039473278;
  BAS[ATNO][  5].a[  1] =     60846.955735000003;     BAS[ATNO][  5].d[  1] =        -0.000306085381;
  BAS[ATNO][  5].a[  2] =     13847.343091999999;     BAS[ATNO][  5].d[  2] =        -0.001592039514;
  BAS[ATNO][  5].a[  3] =      3919.615855100000;     BAS[ATNO][  5].d[  3] =        -0.006475803713;
  BAS[ATNO][  5].a[  4] =      1276.359416700000;     BAS[ATNO][  5].d[  4] =        -0.021115336124;
  BAS[ATNO][  5].a[  5] =       458.672544350000;     BAS[ATNO][  5].d[  5] =        -0.050262439653;
  BAS[ATNO][  5].a[  6] =       178.287252460000;     BAS[ATNO][  5].d[  6] =        -0.072268754136;
  BAS[ATNO][  5].a[  7] =        70.612192837000;     BAS[ATNO][  5].d[  7] =        -0.038373864361;
  BAS[ATNO][  5].a[  8] =       443.880779500000;     BAS[ATNO][  5].d[  8] =         0.001746537672;
  BAS[ATNO][  5].a[  9] =       137.558752670000;     BAS[ATNO][  5].d[  9] =         0.008277964755;
  BAS[ATNO][  5].a[ 10] =        22.268083479000;     BAS[ATNO][  5].d[ 10] =        -0.038782401946;
  BAS[ATNO][  5].a[ 11] =         9.521731060600;     BAS[ATNO][  5].d[ 11] =        -0.036864283213;
  BAS[ATNO][  5].a[ 12] =        14.874114065000;     BAS[ATNO][  5].d[ 12] =         0.883525613849;
  BAS[ATNO][  5].a[ 13] =         2.464751761200;     BAS[ATNO][  5].d[ 13] =        -2.740957064072;
  BAS[ATNO][  5].a[ 14] =         1.011327223800;     BAS[ATNO][  5].d[ 14] =         2.804882255544;
  BAS[ATNO][  5].a[ 15] =         0.149198520900;     BAS[ATNO][  5].d[ 15] =        -1.106905930087;
  BAS[ATNO][  5].a[ 16] =         0.051441873000;     BAS[ATNO][  5].d[ 16] =         0.501153238260;

  // Basis function   7 L = p
  InitBFNGauss(BAS[ATNO][  6]);
  BAS[ATNO][  6].l  = 1;
  BAS[ATNO][  6].ng = 12;
  BAS[ATNO][  6].a[  0] =      2205.350853400000;     BAS[ATNO][  6].d[  0] =         0.002618735795;
  BAS[ATNO][  6].a[  1] =       522.353006990000;     BAS[ATNO][  6].d[  1] =         0.021337860929;
  BAS[ATNO][  6].a[  2] =       167.730555420000;     BAS[ATNO][  6].d[  2] =         0.100859712546;
  BAS[ATNO][  6].a[  3] =        62.670045373000;     BAS[ATNO][  6].d[  3] =         0.292785563539;
  BAS[ATNO][  6].a[  4] =        25.109749456000;     BAS[ATNO][  6].d[  4] =         0.474816995700;
  BAS[ATNO][  6].a[  5] =        10.225142681000;     BAS[ATNO][  6].d[  5] =         0.276031009598;
  BAS[ATNO][  6].a[  6] =        40.713442521000;     BAS[ATNO][  6].d[  6] =        -0.000498852006;
  BAS[ATNO][  6].a[  7] =         5.624709069600;     BAS[ATNO][  6].d[  7] =         0.009232145928;
  BAS[ATNO][  6].a[  8] =         2.227994911600;     BAS[ATNO][  6].d[  8] =         0.015877891451;
  BAS[ATNO][  6].a[  9] =         0.833547416900;     BAS[ATNO][  6].d[  9] =        -0.003781266567;
  BAS[ATNO][  6].a[ 10] =         0.162455000000;     BAS[ATNO][  6].d[ 10] =         0.001059433854;
  BAS[ATNO][  6].a[ 11] =         0.047769000000;     BAS[ATNO][  6].d[ 11] =        -0.000398213647;

  // Basis function   8 L = p
  InitBFNGauss(BAS[ATNO][  7]);
  BAS[ATNO][  7].l  = 1;
  BAS[ATNO][  7].ng = 12;
  BAS[ATNO][  7].a[  0] =      2205.350853400000;     BAS[ATNO][  7].d[  0] =        -0.001021005864;
  BAS[ATNO][  7].a[  1] =       522.353006990000;     BAS[ATNO][  7].d[  1] =        -0.008319312383;
  BAS[ATNO][  7].a[  2] =       167.730555420000;     BAS[ATNO][  7].d[  2] =        -0.039323691268;
  BAS[ATNO][  7].a[  3] =        62.670045373000;     BAS[ATNO][  7].d[  3] =        -0.114152705950;
  BAS[ATNO][  7].a[  4] =        25.109749456000;     BAS[ATNO][  7].d[  4] =        -0.185124034925;
  BAS[ATNO][  7].a[  5] =        10.225142681000;     BAS[ATNO][  7].d[  5] =        -0.107620356314;
  BAS[ATNO][  7].a[  6] =        40.713442521000;     BAS[ATNO][  7].d[  6] =        -0.018470310977;
  BAS[ATNO][  7].a[  7] =         5.624709069600;     BAS[ATNO][  7].d[  7] =         0.341826041347;
  BAS[ATNO][  7].a[  8] =         2.227994911600;     BAS[ATNO][  7].d[  8] =         0.587888972069;
  BAS[ATNO][  7].a[  9] =         0.833547416900;     BAS[ATNO][  7].d[  9] =         0.262704536523;
  BAS[ATNO][  7].a[ 10] =         0.162455000000;     BAS[ATNO][  7].d[ 10] =         0.006864180056;
  BAS[ATNO][  7].a[ 11] =         0.047769000000;     BAS[ATNO][  7].d[ 11] =        -0.000667229988;

  // Basis function   9 L = p
  InitBFNGauss(BAS[ATNO][  8]);
  BAS[ATNO][  8].l  = 1;
  BAS[ATNO][  8].ng = 12;
  BAS[ATNO][  8].a[  0] =      2205.350853400000;     BAS[ATNO][  8].d[  0] =         0.000096782425;
  BAS[ATNO][  8].a[  1] =       522.353006990000;     BAS[ATNO][  8].d[  1] =         0.000788598046;
  BAS[ATNO][  8].a[  2] =       167.730555420000;     BAS[ATNO][  8].d[  2] =         0.003727541974;
  BAS[ATNO][  8].a[  3] =        62.670045373000;     BAS[ATNO][  8].d[  3] =         0.010820678047;
  BAS[ATNO][  8].a[  4] =        25.109749456000;     BAS[ATNO][  8].d[  4] =         0.017548139259;
  BAS[ATNO][  8].a[  5] =        10.225142681000;     BAS[ATNO][  8].d[  5] =         0.010201468439;
  BAS[ATNO][  8].a[  6] =        40.713442521000;     BAS[ATNO][  8].d[  6] =         0.002148802003;
  BAS[ATNO][  8].a[  7] =         5.624709069600;     BAS[ATNO][  8].d[  7] =        -0.039767412857;
  BAS[ATNO][  8].a[  8] =         2.227994911600;     BAS[ATNO][  8].d[  8] =        -0.068393921582;
  BAS[ATNO][  8].a[  9] =         0.833547416900;     BAS[ATNO][  8].d[  9] =        -0.007390690123;
  BAS[ATNO][  8].a[ 10] =         0.162455000000;     BAS[ATNO][  8].d[ 10] =         0.137660711549;
  BAS[ATNO][  8].a[ 11] =         0.047769000000;     BAS[ATNO][  8].d[ 11] =         0.907535394616;

  // Basis function  10 L = p
  InitBFNGauss(BAS[ATNO][  9]);
  BAS[ATNO][  9].l  = 1;
  BAS[ATNO][  9].ng = 12;
  BAS[ATNO][  9].a[  0] =      2205.350853400000;     BAS[ATNO][  9].d[  0] =         0.000206159656;
  BAS[ATNO][  9].a[  1] =       522.353006990000;     BAS[ATNO][  9].d[  1] =         0.001679820501;
  BAS[ATNO][  9].a[  2] =       167.730555420000;     BAS[ATNO][  9].d[  2] =         0.007940168575;
  BAS[ATNO][  9].a[  3] =        62.670045373000;     BAS[ATNO][  9].d[  3] =         0.023049507799;
  BAS[ATNO][  9].a[  4] =        25.109749456000;     BAS[ATNO][  9].d[  4] =         0.037379910107;
  BAS[ATNO][  9].a[  5] =        10.225142681000;     BAS[ATNO][  9].d[  5] =         0.021730507583;
  BAS[ATNO][  9].a[  6] =        40.713442521000;     BAS[ATNO][  9].d[  6] =         0.004398806245;
  BAS[ATNO][  9].a[  7] =         5.624709069600;     BAS[ATNO][  9].d[  7] =        -0.081407753618;
  BAS[ATNO][  9].a[  8] =         2.227994911600;     BAS[ATNO][  9].d[  8] =        -0.140008995232;
  BAS[ATNO][  9].a[  9] =         0.833547416900;     BAS[ATNO][  9].d[  9] =        -0.111210742234;
  BAS[ATNO][  9].a[ 10] =         0.162455000000;     BAS[ATNO][  9].d[ 10] =         1.365809419399;
  BAS[ATNO][  9].a[ 11] =         0.047769000000;     BAS[ATNO][  9].d[ 11] =        -0.964091784254;

  // Basis function  11 L = p
  InitBFNGauss(BAS[ATNO][ 10]);
  BAS[ATNO][ 10].l  = 1;
  BAS[ATNO][ 10].ng = 12;
  BAS[ATNO][ 10].a[  0] =      2205.350853400000;     BAS[ATNO][ 10].d[  0] =         0.000862587038;
  BAS[ATNO][ 10].a[  1] =       522.353006990000;     BAS[ATNO][ 10].d[  1] =         0.007028491491;
  BAS[ATNO][ 10].a[  2] =       167.730555420000;     BAS[ATNO][ 10].d[  2] =         0.033222244433;
  BAS[ATNO][ 10].a[  3] =        62.670045373000;     BAS[ATNO][ 10].d[  3] =         0.096440821740;
  BAS[ATNO][ 10].a[  4] =        25.109749456000;     BAS[ATNO][ 10].d[  4] =         0.156400270177;
  BAS[ATNO][ 10].a[  5] =        10.225142681000;     BAS[ATNO][ 10].d[  5] =         0.090922028633;
  BAS[ATNO][ 10].a[  6] =        40.713442521000;     BAS[ATNO][ 10].d[  6] =         0.025328652563;
  BAS[ATNO][ 10].a[  7] =         5.624709069600;     BAS[ATNO][ 10].d[  7] =        -0.468751882380;
  BAS[ATNO][ 10].a[  8] =         2.227994911600;     BAS[ATNO][ 10].d[  8] =        -0.806182177350;
  BAS[ATNO][ 10].a[  9] =         0.833547416900;     BAS[ATNO][ 10].d[  9] =         1.575518773903;
  BAS[ATNO][ 10].a[ 10] =         0.162455000000;     BAS[ATNO][ 10].d[ 10] =        -0.748345032776;
  BAS[ATNO][ 10].a[ 11] =         0.047769000000;     BAS[ATNO][ 10].d[ 11] =         0.290320062937;

  // Basis function  12 L = d
  InitBFNGauss(BAS[ATNO][ 11]);
  BAS[ATNO][ 11].l  = 2;
  BAS[ATNO][ 11].ng = 7;
  BAS[ATNO][ 11].a[  0] =        88.554315311000;     BAS[ATNO][ 11].d[  0] =         0.012718952524;
  BAS[ATNO][ 11].a[  1] =        25.721525557000;     BAS[ATNO][ 11].d[  1] =         0.079337003954;
  BAS[ATNO][ 11].a[  2] =         9.127836762400;     BAS[ATNO][ 11].d[  2] =         0.244737705600;
  BAS[ATNO][ 11].a[  3] =         3.431236406400;     BAS[ATNO][ 11].d[  3] =         0.403612765004;
  BAS[ATNO][ 11].a[  4] =         1.230892064500;     BAS[ATNO][ 11].d[  4] =         0.403218069848;
  BAS[ATNO][ 11].a[  5] =         0.390318451100;     BAS[ATNO][ 11].d[  5] =         0.207102384555;
  BAS[ATNO][ 11].a[  6] =         0.124000000000;     BAS[ATNO][ 11].d[  6] =         0.017793085557;

  // Basis function  13 L = d
  InitBFNGauss(BAS[ATNO][ 12]);
  BAS[ATNO][ 12].l  = 2;
  BAS[ATNO][ 12].ng = 7;
  BAS[ATNO][ 12].a[  0] =        88.554315311000;     BAS[ATNO][ 12].d[  0] =        -0.002407974684;
  BAS[ATNO][ 12].a[  1] =        25.721525557000;     BAS[ATNO][ 12].d[  1] =        -0.015020222511;
  BAS[ATNO][ 12].a[  2] =         9.127836762400;     BAS[ATNO][ 12].d[  2] =        -0.046334177139;
  BAS[ATNO][ 12].a[  3] =         3.431236406400;     BAS[ATNO][ 12].d[  3] =        -0.076412685587;
  BAS[ATNO][ 12].a[  4] =         1.230892064500;     BAS[ATNO][ 12].d[  4] =        -0.035146754539;
  BAS[ATNO][ 12].a[  5] =         0.390318451100;     BAS[ATNO][ 12].d[  5] =        -0.178557836494;
  BAS[ATNO][ 12].a[  6] =         0.124000000000;     BAS[ATNO][ 12].d[  6] =         1.084713631502;

  // Basis function  14 L = d
  InitBFNGauss(BAS[ATNO][ 13]);
  BAS[ATNO][ 13].l  = 2;
  BAS[ATNO][ 13].ng = 7;
  BAS[ATNO][ 13].a[  0] =        88.554315311000;     BAS[ATNO][ 13].d[  0] =        -0.006399590790;
  BAS[ATNO][ 13].a[  1] =        25.721525557000;     BAS[ATNO][ 13].d[  1] =        -0.039918724349;
  BAS[ATNO][ 13].a[  2] =         9.127836762400;     BAS[ATNO][ 13].d[  2] =        -0.123140735355;
  BAS[ATNO][ 13].a[  3] =         3.431236406400;     BAS[ATNO][ 13].d[  3] =        -0.203079343902;
  BAS[ATNO][ 13].a[  4] =         1.230892064500;     BAS[ATNO][ 13].d[  4] =        -0.373070784799;
  BAS[ATNO][ 13].a[  5] =         0.390318451100;     BAS[ATNO][ 13].d[  5] =         1.364713239540;
  BAS[ATNO][ 13].a[  6] =         0.124000000000;     BAS[ATNO][ 13].d[  6] =        -0.640856074849;

  // Basis function  15 L = d
  InitBFNGauss(BAS[ATNO][ 14]);
  BAS[ATNO][ 14].l  = 2;
  BAS[ATNO][ 14].ng = 7;
  BAS[ATNO][ 14].a[  0] =        88.554315311000;     BAS[ATNO][ 14].d[  0] =        -0.019078823611;
  BAS[ATNO][ 14].a[  1] =        25.721525557000;     BAS[ATNO][ 14].d[  1] =        -0.119007968731;
  BAS[ATNO][ 14].a[  2] =         9.127836762400;     BAS[ATNO][ 14].d[  2] =        -0.367114155611;
  BAS[ATNO][ 14].a[  3] =         3.431236406400;     BAS[ATNO][ 14].d[  3] =        -0.605431676559;
  BAS[ATNO][ 14].a[  4] =         1.230892064500;     BAS[ATNO][ 14].d[  4] =         1.405925802359;
  BAS[ATNO][ 14].a[  5] =         0.390318451100;     BAS[ATNO][ 14].d[  5] =        -0.789785234314;
  BAS[ATNO][ 14].a[  6] =         0.124000000000;     BAS[ATNO][ 14].d[  6] =         0.260510842675;

  // Basis function  16 L = f
  InitBFNGauss(BAS[ATNO][ 15]);
  BAS[ATNO][ 15].l  = 3;
  BAS[ATNO][ 15].ng = 2;
  BAS[ATNO][ 15].a[  0] =         1.433000000000;     BAS[ATNO][ 15].d[  0] =         0.984175534977;
  BAS[ATNO][ 15].a[  1] =         5.694000000000;     BAS[ATNO][ 15].d[  1] =         0.040858414326;

  // Basis function  17 L = f
  InitBFNGauss(BAS[ATNO][ 16]);
  BAS[ATNO][ 16].l  = 3;
  BAS[ATNO][ 16].ng = 2;
  BAS[ATNO][ 16].a[  0] =         1.433000000000;     BAS[ATNO][ 16].d[  0] =        -0.435512774720;
  BAS[ATNO][ 16].a[  1] =         5.694000000000;     BAS[ATNO][ 16].d[  1] =         1.075454996999;

  // Basis function  18 L = g
  InitBFNGauss(BAS[ATNO][ 17]);
  BAS[ATNO][ 17].l  = 4;
  BAS[ATNO][ 17].ng = 1;
  BAS[ATNO][ 17].a[  0] =         3.617000000000;     BAS[ATNO][ 17].d[  0] =         1.000000000000;

-------------------------------------------
RADIAL EXPECTATION VALUES <R**-3> TO <R**3>
-------------------------------------------
   0 :     0.000000  1749.788323    29.511275     0.051084     0.003497     0.000302
   1 :     0.000000   171.286184     6.469606     0.228761     0.061674     0.018990
   2 :     0.000000    25.174521     2.038465     0.690452     0.550012     0.492164
   3 :     0.000000     1.165155     0.442052     2.892317     9.814344    38.400692
   4 :     0.000000     0.974060     0.350075     4.232227    21.506732   120.526878
   5 :     0.000000    27.495242     1.562283     1.318536     2.944957    10.747609
   6 :   751.269351    55.941457     6.401417     0.199515     0.048733     0.014177
   7 :   751.269351    55.941457     6.401417     0.199515     0.048733     0.014177
   8 :   751.269351    55.941457     6.401417     0.199515     0.048733     0.014177
   9 :    94.279360     7.923754     1.904897     0.719903     0.611701     0.596521
  10 :    94.279360     7.923754     1.904897     0.719903     0.611701     0.596521
  11 :    94.279360     7.923754     1.904897     0.719903     0.611701     0.596521
  12 :     0.854844     0.136439     0.260192     4.578494    23.595521   133.849054
  13 :     0.854844     0.136439     0.260192     4.578494    23.595521   133.849054
  14 :     0.854844     0.136439     0.260192     4.578494    23.595521   133.849054
  15 :     3.836517     0.434669     0.392573     3.723458    18.256827   107.734445
  16 :     3.836517     0.434669     0.392573     3.723458    18.256827   107.734445
  17 :     3.836517     0.434669     0.392573     3.723458    18.256827   107.734445
  18 :    65.335353     5.116685     1.261294     1.486078     3.534354    13.265945
  19 :    65.335353     5.116685     1.261294     1.486078     3.534354    13.265945
  20 :    65.335353     5.116685     1.261294     1.486078     3.534354    13.265945
  21 :     9.392031     3.197265     1.529694     0.875662     1.007399     7.428434
  22 :     9.392031     3.197265     1.529694     0.875662     1.007399     7.428434
  23 :     9.392031     3.197265     1.529694     0.875662     1.007399     7.428434
  24 :     9.392031     3.197265     1.529694     0.875662     1.007399     7.428434
  25 :     9.392031     3.197265     1.529694     0.875662     1.007399     7.428434
  26 :     0.327730     0.173098     0.308917     3.771287    15.217550   323.618290
  27 :     0.327730     0.173098     0.308917     3.771287    15.217550   323.618290
  28 :     0.327730     0.173098     0.308917     3.771287    15.217550   323.618290
  29 :     0.327730     0.173098     0.308917     3.771287    15.217550   323.618290
  30 :     0.327730     0.173098     0.308917     3.771287    15.217550   323.618290
  31 :     2.318031     0.878091     0.666051     2.238165     6.389755   111.064528
  32 :     2.318031     0.878091     0.666051     2.238165     6.389755   111.064528
  33 :     2.318031     0.878091     0.666051     2.238165     6.389755   111.064528
  34 :     2.318031     0.878091     0.666051     2.238165     6.389755   111.064528
  35 :     2.318031     0.878091     0.666051     2.238165     6.389755   111.064528
  36 :    13.513344     3.662548     1.477416     1.142111     2.002669    25.286953
  37 :    13.513344     3.662548     1.477416     1.142111     2.002669    25.286953
  38 :    13.513344     3.662548     1.477416     1.142111     2.002670    25.286953
  39 :    13.513344     3.662548     1.477416     1.142111     2.002669    25.286953
  40 :    13.513344     3.662548     1.477416     1.142111     2.002670    25.286953
  41 :     0.916353     0.859115     0.889689     1.204520     1.540263    14.532676
  42 :     0.916353     0.859115     0.889689     1.204520     1.540263    14.532676
  43 :     0.916353     0.859115     0.889689     1.204520     1.540263    14.532676
  44 :     0.916353     0.859115     0.889689     1.204520     1.540263    14.532676
  45 :     0.916353     0.859115     0.889689     1.204520     1.540263    14.532676
  46 :     0.916353     0.859115     0.889689     1.204520     1.540263    14.532676
  47 :     0.916353     0.859115     0.889689     1.204520     1.540263    14.532676
  48 :     6.668004     3.213456     1.702115     0.670716     0.536206     3.682215
  49 :     6.668004     3.213456     1.702115     0.670716     0.536206     3.682215
  50 :     6.668004     3.213456     1.702115     0.670716     0.536206     3.682215
  51 :     6.668004     3.213456     1.702115     0.670716     0.536206     3.682215
  52 :     6.668004     3.213456     1.702115     0.670716     0.536206     3.682215
  53 :     6.668004     3.213456     1.702115     0.670716     0.536206     3.682215
  54 :     6.668004     3.213456     1.702115     0.670716     0.536206     3.682215
  55 :     2.230295     1.607556     1.233229     0.852384     0.760299     4.948870
  56 :     2.230295     1.607556     1.233229     0.852384     0.760299     4.948870
  57 :     2.230295     1.607556     1.233229     0.852384     0.760299     4.948870
  58 :     2.230295     1.607556     1.233229     0.852384     0.760299     4.948870
  59 :     2.230295     1.607556     1.233229     0.852384     0.760299     4.948870
  60 :     2.230295     1.607556     1.233229     0.852384     0.760299     4.948870
  61 :     2.230295     1.607556     1.233229     0.852384     0.760299     4.948870
  62 :     2.230295     1.607556     1.233229     0.852384     0.760299     4.948870
  63 :     2.230295     1.607556     1.233229     0.852384     0.760299     4.948870
-------
TIMINGS
-------

Total SCF time: 0 days 0 hours 0 min 2 sec 

Total time                  ....       2.039 sec
Sum of individual times     ....       1.857 sec  ( 91.1%)

Fock matrix formation       ....       1.707 sec  ( 83.7%)
Diagonalization             ....       0.008 sec  (  0.4%)
Density matrix formation    ....       0.002 sec  (  0.1%)
Population analysis         ....       0.002 sec  (  0.1%)
Initial guess               ....       0.108 sec  (  5.3%)
Orbital Transformation      ....       0.000 sec  (  0.0%)
Orbital Orthonormalization  ....       0.000 sec  (  0.0%)
DIIS solution               ....       0.010 sec  (  0.5%)


           ************************************************************
           *        Program running with 24 parallel MPI-processes    *
           *              working on a common directory               *
           ************************************************************


------------------------------------------------------------------------------- 
                              ORCA-MATRIX DRIVEN CI                            
------------------------------------------------------------------------------- 

--------------------------------
AUTOMATIC CHOICE OF INCORE LEVEL
--------------------------------

Memory available                           ...   2500.00 MB
Memory needed for S+T                      ...      3.02 MB
Memory needed for J+K                      ...      6.09 MB
Memory needed for DIIS                     ...     42.31 MB
Memory needed for 3-ext                    ...      8.98 MB
Memory needed for 4-ext                    ...     22.44 MB
Memory needed for triples                  ...      4.49 MB
 -> Final InCoreLevel    ... 5
 -> check shows that triples correction can be computed


Wavefunction type
-----------------
Correlation treatment                      ...      CCSD     
Single excitations                         ... ON
Orbital optimization                       ... OFF
Calculation of Z vector                    ... OFF
Calculation of Brueckner orbitals          ... OFF
Perturbative triple excitations            ... ON
Calculation of F12 correction              ... OFF
Frozen core treatment                      ... chemical core (10 el)
Reference Wavefunction                     ... RHF
  Internal Orbitals:     5 ...   14 ( 10 MO's/ 20 electrons)
  Virtual  Orbitals:    15 ...   63 ( 49 MO's              )
Number of AO's                             ...     64
Number of electrons                        ...     30
Number of correlated electrons             ...     20

Algorithmic settings
--------------------
Integral transformation                    ... AO direct full transformation
K(C) Formation                             ... FULL-MO TRAFO
Maximum number of iterations               ...        50
Convergence tolerance (max. residuum)      ... 1.000e-06
Level shift for amplitude update           ... 2.000e-01
Maximum number of DIIS vectors             ...         7
DIIS turned on at iteration                ...         0
Damping before turning on DIIS             ...     0.500
Damping after turning on DIIS              ...     0.000
Pair specific amplitude update             ... OFF
Natural orbital iterations                 ... OFF
Perturbative natural orbital generation    ... OFF
Printlevel                                 ... 2

Memory handling:
----------------
Maximum memory for working arrays          ...   2500 MB
Data storage in matrix containers          ... UNCOMPRESSED
Data type for integral storage             ... DOUBLE
In-Core Storage of quantities:
   Amplitudes+Sigma Vector      ... YES
   J+K operators                ... YES
   DIIS vectors                 ... YES
   3-external integrals         ... YES
   4-external integrals         ... YES


Initializing the integral package          ... done
Warning: reference  - re-canonicalizations have been set to INT 1 VIRT 1

--------------------------
CLOSED-SHELL FOCK OPERATOR
--------------------------

<ss|ss>:          231 b            0 skpd (  0.0%)    0.000 s ( 0.002 ms/b)
<ss|sp>:          630 b            0 skpd (  0.0%)    0.001 s ( 0.001 ms/b)
<ss|sd>:          504 b            0 skpd (  0.0%)    0.001 s ( 0.001 ms/b)
<ss|sf>:          252 b            0 skpd (  0.0%)    0.000 s ( 0.001 ms/b)
<ss|sg>:          126 b            0 skpd (  0.0%)    0.000 s ( 0.002 ms/b)
<ss|pp>:          315 b            0 skpd (  0.0%)    0.001 s ( 0.002 ms/b)
<ss|pd>:          420 b            0 skpd (  0.0%)    0.001 s ( 0.001 ms/b)
<ss|pf>:          210 b            0 skpd (  0.0%)    0.000 s ( 0.001 ms/b)
<ss|pg>:          105 b            0 skpd (  0.0%)    0.000 s ( 0.003 ms/b)
<ss|dd>:          210 b            0 skpd (  0.0%)    0.001 s ( 0.003 ms/b)
<ss|df>:          168 b            0 skpd (  0.0%)    0.000 s ( 0.001 ms/b)
<ss|dg>:           84 b            0 skpd (  0.0%)    0.000 s ( 0.004 ms/b)
<ss|ff>:           63 b            0 skpd (  0.0%)    0.000 s ( 0.002 ms/b)
<ss|fg>:           42 b            0 skpd (  0.0%)    0.000 s ( 0.004 ms/b)
<ss|gg>:           21 b            0 skpd (  0.0%)    0.000 s ( 0.011 ms/b)
<sp|sp>:          465 b            0 skpd (  0.0%)    0.001 s ( 0.001 ms/b)
<sp|sd>:          720 b            0 skpd (  0.0%)    0.001 s ( 0.001 ms/b)
<sp|sf>:          360 b            0 skpd (  0.0%)    0.000 s ( 0.001 ms/b)
<sp|sg>:          180 b            0 skpd (  0.0%)    0.000 s ( 0.003 ms/b)
<sp|pp>:          450 b            0 skpd (  0.0%)    0.001 s ( 0.002 ms/b)
<sp|pd>:          600 b            0 skpd (  0.0%)    0.001 s ( 0.002 ms/b)
<sp|pf>:          300 b            0 skpd (  0.0%)    0.000 s ( 0.002 ms/b)
<sp|pg>:          150 b            0 skpd (  0.0%)    0.001 s ( 0.005 ms/b)
<sp|dd>:          300 b            0 skpd (  0.0%)    0.001 s ( 0.004 ms/b)
<sp|df>:          240 b          229 skpd ( 95.4%)    0.000 s ( 0.022 ms/b)
<sp|dg>: done
<sp|ff>:           90 b           71 skpd ( 78.9%)    0.000 s ( 0.008 ms/b)
<sp|fg>:           60 b           54 skpd ( 90.0%)    0.000 s ( 0.028 ms/b)
<sp|gg>:           30 b           28 skpd ( 93.3%)    0.000 s ( 0.024 ms/b)
<sd|sd>:          300 b            0 skpd (  0.0%)    0.001 s ( 0.002 ms/b)
<sd|sf>:          288 b            0 skpd (  0.0%)    0.000 s ( 0.001 ms/b)
<sd|sg>:          144 b            0 skpd (  0.0%)    0.001 s ( 0.004 ms/b)
<sd|pp>:          360 b            0 skpd (  0.0%)    0.001 s ( 0.003 ms/b)
<sd|pd>:          480 b            0 skpd (  0.0%)    0.001 s ( 0.003 ms/b)
<sd|pf>:          240 b          231 skpd ( 96.2%)    0.000 s ( 0.013 ms/b)
<sd|pg>: done
<sd|dd>:          240 b            0 skpd (  0.0%)    0.002 s ( 0.007 ms/b)
<sd|df>:          192 b            0 skpd (  0.0%)    0.001 s ( 0.005 ms/b)
<sd|dg>:           96 b            0 skpd (  0.0%)    0.001 s ( 0.014 ms/b)
<sd|ff>: done
<sd|fg>: done
<sd|gg>:           24 b           23 skpd ( 95.8%)    0.000 s ( 0.086 ms/b)
<sf|sf>:           78 b            0 skpd (  0.0%)    0.000 s ( 0.001 ms/b)
<sf|sg>:           72 b            0 skpd (  0.0%)    0.000 s ( 0.005 ms/b)
<sf|pp>:          180 b            0 skpd (  0.0%)    0.001 s ( 0.004 ms/b)
<sf|pd>:          240 b          235 skpd ( 97.9%)    0.000 s ( 0.020 ms/b)
<sf|pf>:          120 b          115 skpd ( 95.8%)    0.000 s ( 0.009 ms/b)
<sf|pg>:           60 b           58 skpd ( 96.7%)    0.000 s ( 0.023 ms/b)
<sf|dd>:          120 b            0 skpd (  0.0%)    0.001 s ( 0.010 ms/b)
<sf|df>: done
<sf|dg>: done
<sf|ff>: done
<sf|fg>: done
<sf|gg>: done
<sg|sg>:           21 b            0 skpd (  0.0%)    0.000 s ( 0.009 ms/b)
<sg|pp>:           90 b            0 skpd (  0.0%)    0.001 s ( 0.008 ms/b)
<sg|pd>: done
<sg|pf>:           60 b           58 skpd ( 96.7%)    0.000 s ( 0.026 ms/b)
<sg|pg>: done
<sg|dd>:           60 b            0 skpd (  0.0%)    0.001 s ( 0.019 ms/b)
<sg|df>: done
<sg|dg>: done
<sg|ff>: done
<sg|fg>: done
<sg|gg>: done
<pp|pp>:          120 b            0 skpd (  0.0%)    0.001 s ( 0.009 ms/b)
<pp|pd>:          300 b            0 skpd (  0.0%)    0.001 s ( 0.004 ms/b)
<pp|pf>:          150 b            0 skpd (  0.0%)    0.001 s ( 0.004 ms/b)
<pp|pg>:           75 b            0 skpd (  0.0%)    0.001 s ( 0.012 ms/b)
<pp|dd>:          150 b            0 skpd (  0.0%)    0.002 s ( 0.010 ms/b)
<pp|df>:          120 b            0 skpd (  0.0%)    0.001 s ( 0.006 ms/b)
<pp|dg>:           60 b            0 skpd (  0.0%)    0.001 s ( 0.020 ms/b)
<pp|ff>:           45 b            0 skpd (  0.0%)    0.000 s ( 0.010 ms/b)
<pp|fg>:           30 b            0 skpd (  0.0%)    0.001 s ( 0.022 ms/b)
<pp|gg>:           15 b            0 skpd (  0.0%)    0.001 s ( 0.062 ms/b)
<pd|pd>:          210 b            0 skpd (  0.0%)    0.002 s ( 0.010 ms/b)
<pd|pf>:          200 b            0 skpd (  0.0%)    0.001 s ( 0.006 ms/b)
<pd|pg>:          100 b            0 skpd (  0.0%)    0.002 s ( 0.020 ms/b)
<pd|dd>:          200 b            0 skpd (  0.0%)    0.003 s ( 0.015 ms/b)
<pd|df>:          160 b            0 skpd (  0.0%)    0.002 s ( 0.010 ms/b)
<pd|dg>:           80 b            0 skpd (  0.0%)    0.003 s ( 0.032 ms/b)
<pd|ff>:           60 b           51 skpd ( 85.0%)    0.000 s ( 0.053 ms/b)
<pd|fg>:           40 b           37 skpd ( 92.5%)    0.000 s ( 0.094 ms/b)
<pd|gg>: done
<pf|pf>:           55 b            0 skpd (  0.0%)    0.000 s ( 0.008 ms/b)
<pf|pg>:           50 b            0 skpd (  0.0%)    0.001 s ( 0.024 ms/b)
<pf|dd>:          100 b            0 skpd (  0.0%)    0.002 s ( 0.017 ms/b)
<pf|df>:           80 b           74 skpd ( 92.5%)    0.000 s ( 0.042 ms/b)
<pf|dg>:           40 b           38 skpd ( 95.0%)    0.000 s ( 0.099 ms/b)
<pf|ff>:           30 b           22 skpd ( 73.3%)    0.000 s ( 0.031 ms/b)
<pf|fg>:           20 b           17 skpd ( 85.0%)    0.000 s ( 0.091 ms/b)
<pf|gg>:           10 b            8 skpd ( 80.0%)    0.000 s ( 0.146 ms/b)
<pg|pg>:           15 b            0 skpd (  0.0%)    0.001 s ( 0.044 ms/b)
<pg|dd>:           50 b            0 skpd (  0.0%)    0.002 s ( 0.036 ms/b)
<pg|df>:           40 b           38 skpd ( 95.0%)    0.000 s ( 0.115 ms/b)
<pg|dg>: done
<pg|ff>:           15 b           12 skpd ( 80.0%)    0.000 s ( 0.067 ms/b)
<pg|fg>:           10 b            9 skpd ( 90.0%)    0.000 s ( 0.219 ms/b)
<pg|gg>: done
<dd|dd>:           55 b            0 skpd (  0.0%)    0.002 s ( 0.045 ms/b)
<dd|df>:           80 b            0 skpd (  0.0%)    0.001 s ( 0.018 ms/b)
<dd|dg>:           40 b            0 skpd (  0.0%)    0.002 s ( 0.057 ms/b)
<dd|ff>:           30 b            0 skpd (  0.0%)    0.001 s ( 0.031 ms/b)
<dd|fg>:           20 b            0 skpd (  0.0%)    0.001 s ( 0.071 ms/b)
<dd|gg>:           10 b            0 skpd (  0.0%)    0.002 s ( 0.201 ms/b)
<df|df>:           36 b            0 skpd (  0.0%)    0.001 s ( 0.036 ms/b)
<df|dg>:           32 b            0 skpd (  0.0%)    0.002 s ( 0.062 ms/b)
<df|ff>: done
<df|fg>: done
<df|gg>: done
<dg|dg>:           10 b            0 skpd (  0.0%)    0.001 s ( 0.143 ms/b)
<dg|ff>: done
<dg|fg>: done
<dg|gg>: done
<ff|ff>: done
<ff|fg>: done
<ff|gg>: done
<fg|fg>: done
<fg|gg>: done
<gg|gg>: done
Recanonicalizing the internal orbitals
Recanonicalizing the virtual orbitals
Time needed for Fock operator              ...            0.078 sec
Reference energy                           ...  -1777.807066272
<ss|**>: 
------------------------------
PARTIAL COULOMB TRANSFORMATION
------------------------------

Transformation type                        ... one-operator
Dimension of the basis                     ...   64
Number of internal MOs                     ...   59 (5-63)
Pair cutoff                                ... 0.000e+00 Eh
Number of AO pairs included in the trafo   ... 2080
Total Number of distinct AO pairs          ... 2080
Memory devoted for trafo                   ... 2500.0 MB 
Max. Number of MO pairs treated together   ... 157538      
Max. Number of MOs treated per batch       ... 2461      
Number Format for Storage                  ... Double (8 Byte)
AO-integral source                         ... DIRECT
Integral package used                      ... LIBINT

Starting integral evaluation:
        3591 b        0 skpd     0.005 s (  0.001 ms/b)
<sp|**>: <sd|**>:         5130 b        0 skpd     0.007 s (  0.001 ms/b)
        4104 b        0 skpd     0.010 s (  0.002 ms/b)
<sf|**>:         2052 b        0 skpd     0.005 s (  0.003 ms/b)
<sg|**>:         1026 b        0 skpd     0.010 s (  0.010 ms/b)
<pp|**>:         2565 b        0 skpd     0.012 s (  0.005 ms/b)
<pd|**>:         3420 b        0 skpd     0.017 s (  0.005 ms/b)
<pf|**>:         1710 b        0 skpd     0.009 s (  0.005 ms/b)
<pg|**>:          855 b        0 skpd     0.016 s (  0.018 ms/b)
<dd|**>:         1710 b        0 skpd     0.023 s (  0.013 ms/b)
<df|**>:         1368 b        0 skpd     0.013 s (  0.009 ms/b)
<dg|**>:          684 b        0 skpd     0.020 s (  0.029 ms/b)
<ff|**>:          513 b        0 skpd     0.009 s (  0.018 ms/b)
<fg|**>:          342 b        0 skpd     0.014 s (  0.040 ms/b)
<gg|**>:          171 b        0 skpd     0.019 s (  0.109 ms/b)
Closing buffer AOJ ( 0.00 GB; CompressionRatio= 1.00)
Collecting buffer AOJ 
    ... done with AO integral generation
Number of MO pairs included in the trafo   ... 1770
    ... Now sorting integrals
IBATCH = 1 of  1
Closing buffer JAO ( 0.00 GB; CompressionRatio= 1.00)
Collecting buffer JAO 
TOTAL TIME for half transformation         ...     0.216 sec
AO-integral generation                     ...     0.187 sec
Half transformation                        ...     0.004 sec
J-integral sorting                         ...     0.018 sec

-------------------------- SECOND HALF TRANSFORMATION -------------------------
Formation of (pq|rs)                       ... ok (     0.015 sec)
Integral sorting                           ... ok (     0.102 sec)

------------------
CLOSED SHELL GUESS
------------------

Initial guess performed in     0.004 sec
E(0)                                       ...  -1777.807066272
E(MP2)                                     ...     -0.818483242
Initial E(tot)                             ...  -1778.625549513
<T|T>                                      ...      0.108534018
Number of pairs included                   ... 55
Total number of pairs                      ... 55

------------------------------------------------
                  RHF COUPLED CLUSTER ITERATIONS
------------------------------------------------

Number of amplitudes to be optimized       ... 132545

Iter       E(tot)           E(Corr)          Delta-E          Residual     Time
  0  -1778.625549513     -0.818483242      0.000000000      0.034555201    0.05
                           *** Turning on DIIS ***
  1  -1778.513630605     -0.706564333      0.111918909      0.014324017    0.10
  2  -1778.546816153     -0.739749881     -0.033185548      0.004892874    0.10
  3  -1778.547628709     -0.740562438     -0.000812557      0.003084260    0.10
  4  -1778.549069126     -0.742002854     -0.001440417      0.001390057    0.12
  5  -1778.549770167     -0.742703895     -0.000701041      0.000366760    0.11
  6  -1778.549897286     -0.742831014     -0.000127120      0.000103093    0.11
  7  -1778.549907265     -0.742840994     -0.000009979      0.000035386    0.12
  8  -1778.549908825     -0.742842553     -0.000001559      0.000008977    0.12
  9  -1778.549908460     -0.742842188      0.000000365      0.000002428    0.12
 10  -1778.549908363     -0.742842091      0.000000097      0.000000928    0.12
               --- The Coupled-Cluster iterations have converged ---

----------------------
COUPLED CLUSTER ENERGY
----------------------

E(0)                                       ...  -1777.807066272
E(CORR)                                    ...     -0.742842091
E(TOT)                                     ...  -1778.549908363
Singles Norm <S|S>**1/2                    ...      0.067358170  
T1 diagnostic                              ...      0.015061745  

------------------
LARGEST AMPLITUDES
------------------
  14-> 15  14-> 15       0.080467
  14-> 17  14-> 17       0.080467
  14-> 16  14-> 16       0.080467
  14-> 16  14-> 21       0.052913
  14-> 21  14-> 16       0.052913
  14-> 17  14-> 19       0.052175
  14-> 19  14-> 17       0.052175
  14-> 20  14-> 15       0.052137
  14-> 15  14-> 20       0.052137
  14-> 18  -1-> -1       0.045340
  14-> 21  14-> 21       0.042013
  14-> 19  14-> 19       0.042013
[...]
<pp|df>:          420 b            0 skpd (  0.0%)    0.002 s ( 0.006 ms/b)
<pp|dg>:          210 b            0 skpd (  0.0%)    0.004 s ( 0.018 ms/b)
<pp|ff>:          210 b            0 skpd (  0.0%)    0.001 s ( 0.006 ms/b)
<pp|fg>:          168 b            0 skpd (  0.0%)    0.001 s ( 0.008 ms/b)
<pp|gg>:           63 b            0 skpd (  0.0%)    0.002 s ( 0.030 ms/b)
<pd|pd>:          465 b            0 skpd (  0.0%)    0.010 s ( 0.021 ms/b)
<pd|pf>:          720 b            0 skpd (  0.0%)    0.003 s ( 0.005 ms/b)
<pd|pg>:          360 b            0 skpd (  0.0%)    0.006 s ( 0.017 ms/b)
<pd|dd>:          450 b            0 skpd (  0.0%)    0.014 s ( 0.032 ms/b)
<pd|df>:          600 b            0 skpd (  0.0%)    0.005 s ( 0.008 ms/b)
<pd|dg>:          300 b            0 skpd (  0.0%)    0.008 s ( 0.025 ms/b)
<pd|ff>: done
<pd|fg>: done
<pd|gg>: done
<pf|pf>:          300 b            0 skpd (  0.0%)    0.002 s ( 0.007 ms/b)
<pf|pg>:          288 b            0 skpd (  0.0%)    0.005 s ( 0.018 ms/b)
<pf|dd>:          360 b            0 skpd (  0.0%)    0.011 s ( 0.031 ms/b)
<pf|df>: done
<pf|dg>: done
<pf|ff>: done
<pf|fg>: done
<pf|gg>: done
<pg|pg>:           78 b            0 skpd (  0.0%)    0.003 s ( 0.040 ms/b)
<pg|dd>:          180 b            0 skpd (  0.0%)    0.012 s ( 0.065 ms/b)
<pg|df>: done
<pg|dg>: done
<pg|ff>: done
<pg|fg>: done
<pg|gg>: done
<dd|dd>:          120 b            0 skpd (  0.0%)    0.011 s ( 0.092 ms/b)
<dd|df>:          300 b            0 skpd (  0.0%)    0.004 s ( 0.013 ms/b)
<dd|dg>:          150 b            0 skpd (  0.0%)    0.006 s ( 0.043 ms/b)
<dd|ff>:          150 b            0 skpd (  0.0%)    0.002 s ( 0.012 ms/b)
<dd|fg>:          120 b            0 skpd (  0.0%)    0.003 s ( 0.022 ms/b)
<dd|gg>:           45 b            0 skpd (  0.0%)    0.004 s ( 0.085 ms/b)
<df|df>:          210 b            0 skpd (  0.0%)    0.005 s ( 0.023 ms/b)
<df|dg>:          200 b            0 skpd (  0.0%)    0.008 s ( 0.040 ms/b)
<df|ff>: done
<df|fg>: done
<df|gg>: done
<dg|dg>:           55 b            0 skpd (  0.0%)    0.007 s ( 0.123 ms/b)
<dg|ff>: done
<dg|fg>: done
<dg|gg>: done
<ff|ff>: done
<ff|fg>: done
<ff|gg>: done
<fg|fg>: done
<fg|gg>: done
<gg|gg>: done
Recanonicalizing the internal orbitals
Recanonicalizing the virtual orbitals
Time needed for Fock operator              ...            0.290 sec
Reference energy                           ...  -1777.847171411
<ss|**>: 
------------------------------
PARTIAL COULOMB TRANSFORMATION
------------------------------

Transformation type                        ... one-operator
Dimension of the basis                     ...  100
Number of internal MOs                     ...   95 (5-99)
Pair cutoff                                ... 0.000e+00 Eh
Number of AO pairs included in the trafo   ... 5050
Total Number of distinct AO pairs          ... 5050
Memory devoted for trafo                   ... 2500.0 MB 
Max. Number of MO pairs treated together   ... 64887      
Max. Number of MOs treated per batch       ...  648      
Number Format for Storage                  ... Double (8 Byte)
AO-integral source                         ... DIRECT
Integral package used                      ... LIBINT

Starting integral evaluation:
       26796 b        0 skpd     0.023 s (  0.001 ms/b)
<sp|**>:        26796 b        0 skpd     0.037 s (  0.001 ms/b)
<sd|**>:        22330 b        0 skpd     0.062 s (  0.003 ms/b)
<sf|**>:        17864 b        0 skpd     0.022 s (  0.001 ms/b)
<sg|**>:         8932 b        0 skpd     0.036 s (  0.004 ms/b)
<pp|**>:         8526 b        0 skpd     0.067 s (  0.008 ms/b)
<pd|**>:        12180 b        0 skpd     0.113 s (  0.009 ms/b)
<pf|**>:         9744 b        0 skpd     0.033 s (  0.003 ms/b)
<pg|**>:         4872 b        0 skpd     0.059 s (  0.012 ms/b)
<dd|**>:         6090 b        0 skpd     0.128 s (  0.021 ms/b)
<df|**>:         8120 b        0 skpd     0.048 s (  0.006 ms/b)
<dg|**>:         4060 b        0 skpd     0.074 s (  0.018 ms/b)
<ff|**>:         4060 b        0 skpd     0.024 s (  0.006 ms/b)
<fg|**>:         3248 b        0 skpd     0.035 s (  0.011 ms/b)
<gg|**>:         1218 b        0 skpd     0.054 s (  0.044 ms/b)
Closing buffer AOJ ( 0.01 GB; CompressionRatio= 1.00)
Collecting buffer AOJ 
    ... done with AO integral generation
Number of MO pairs included in the trafo   ... 4560
    ... Now sorting integrals
IBATCH = 1 of  1
Closing buffer JAO ( 0.01 GB; CompressionRatio= 1.00)
Collecting buffer JAO 
TOTAL TIME for half transformation         ...     0.944 sec
AO-integral generation                     ...     0.803 sec
Half transformation                        ...     0.025 sec
J-integral sorting                         ...     0.084 sec

-------------------------- SECOND HALF TRANSFORMATION -------------------------
Formation of (pq|rs)                       ... ok (     0.054 sec)
Integral sorting                           ... ok (     0.621 sec)

------------------
CLOSED SHELL GUESS
------------------

Initial guess performed in     0.009 sec
E(0)                                       ...  -1777.847171411
E(MP2)                                     ...     -0.856275639
Initial E(tot)                             ...  -1778.703447050
<T|T>                                      ...      0.114483583
Number of pairs included                   ... 55
Total number of pairs                      ... 55

------------------------------------------------
                  RHF COUPLED CLUSTER ITERATIONS
------------------------------------------------

Number of amplitudes to be optimized       ... 398225

Iter       E(tot)           E(Corr)          Delta-E          Residual     Time
  0  -1778.703447050     -0.856275639      0.000000000      0.027002944    0.15
                           *** Turning on DIIS ***
  1  -1778.592102191     -0.744930780      0.111344859      0.012695418    0.37
  2  -1778.625534033     -0.778362622     -0.033431842      0.004882551    0.39
  3  -1778.626342571     -0.779171160     -0.000808537      0.003201465    0.40
  4  -1778.627986066     -0.780814655     -0.001643495      0.001579555    0.39
  5  -1778.628760445     -0.781589034     -0.000774379      0.000506013    0.39
  6  -1778.628896083     -0.781724672     -0.000135638      0.000164453    0.39
  7  -1778.628913368     -0.781741957     -0.000017285      0.000059653    0.40
  8  -1778.628916956     -0.781745545     -0.000003588      0.000016490    0.40
  9  -1778.628917406     -0.781745995     -0.000000450      0.000004037    0.40
 10  -1778.628916861     -0.781745450      0.000000545      0.000001378    0.40
 11  -1778.628917018     -0.781745607     -0.000000157      0.000000505    0.39
               --- The Coupled-Cluster iterations have converged ---

----------------------
COUPLED CLUSTER ENERGY
----------------------

E(0)                                       ...  -1777.847171411
E(CORR)                                    ...     -0.781745607
E(TOT)                                     ...  -1778.628917018
Singles Norm <S|S>**1/2                    ...      0.081264944  
T1 diagnostic                              ...      0.018171394  

------------------
LARGEST AMPLITUDES
------------------
  14-> 17  14-> 17       0.055674
  14-> 16  14-> 16       0.055674
  14-> 15  14-> 15       0.055674
  14-> 18  -1-> -1       0.052079
  14-> 19  14-> 16       0.051844
  14-> 16  14-> 19       0.051844
  14-> 21  14-> 15       0.051291
  14-> 15  14-> 21       0.051291
  14-> 20  14-> 17       0.051273
  14-> 17  14-> 20       0.051273
  14-> 21  14-> 21       0.051166
  14-> 20  14-> 20       0.051166
  14-> 19  14-> 19       0.051166
  14-> 27  -1-> -1       0.030154
  14-> 21  14-> 28       0.019114
  14-> 28  14-> 21       0.019114


        !!!!!!!!!!!!!!!!!!!!!!!!!!!!!!!!!!!!!!!!!!!!!!!!!!!!!!!!!!!!!!!!!!!!!!!!!! 
        !  Warning: Densities are linearized densities !                         !
        !!!!!!!!!!!!!!!!!!!!!!!!!!!!!!!!!!!!!!!!!!!!!!!!!!!!!!!!!!!!!!!!!!!!!!!!!! 

Trace of internal density part =     -0.241649059
Trace of external density part =      0.241649059
----------------------
RHF TRIPLES CORRECTION (Algorithm 1)
----------------------

Multiplier for the singles contribution    ...      1.000000000

10% done
20% done
30% done
40% done
50% done
60% done
70% done
80% done

Triples Correction (T)                     ...     -0.022583740
Scaling of triples based on CCSD energies (Peterson et al. Molecular Physics 113, 1551 (2015))
E(T*) = f*E(T) where f = E(F12-CCSD)/E(CCSD) 
f = CCSD (with F12)/ CCSD (without F12)    ...      1.000000000
Scaled triples correction (T)              ...     -0.022583740

Final correlation energy                   ...     -0.804329347
E(CCSD)                                    ...  -1778.628917018
E(CCSD(T))                                 ...  -1778.651500758

NORM  =      1.127428520 sqrt=     1.061804370
W(HF) =      0.886974191
------------------------------------------------------------------------------
                           ORCA POPULATION ANALYSIS
------------------------------------------------------------------------------
Input electron density              ... 70_Zn.mdcip
BaseName (.gbw .S,...)              ... 70_Zn

                    ********************************
                    * MULLIKEN POPULATION ANALYSIS *
                    ********************************

-----------------------
MULLIKEN ATOMIC CHARGES
-----------------------
   0 Zn:   -0.000000
Sum of atomic charges:   -0.0000000

--------------------------------
MULLIKEN REDUCED ORBITAL CHARGES
--------------------------------
  0 Zns       :     7.908494  s :     7.908494
      pz      :     4.031693  p :    12.095078
      px      :     4.031693
      py      :     4.031693
      dz2     :     1.991328  d :     9.956639
      dxz     :     1.991328
      dyz     :     1.991328
      dx2y2   :     1.991328
      dxy     :     1.991328
      f0      :     0.005081  f :     0.035570
      f+1     :     0.005081
      f-1     :     0.005081
      f+2     :     0.005081
      f-2     :     0.005081
      f+3     :     0.005081
      f-3     :     0.005081
      g0      :     0.000469  g :     0.004219
      g+1     :     0.000469
      g-1     :     0.000469
      g+2     :     0.000469
      g-2     :     0.000469
      g+3     :     0.000469
      g-3     :     0.000469
      g+4     :     0.000469
      g-4     :     0.000469


                     *******************************
                     * LOEWDIN POPULATION ANALYSIS *
                     *******************************

----------------------
LOEWDIN ATOMIC CHARGES
----------------------
   0 Zn:   -0.000000

-------------------------------
LOEWDIN REDUCED ORBITAL CHARGES
-------------------------------
  0 Zns       :     7.908494  s :     7.908494
      pz      :     4.031693  p :    12.095078
      px      :     4.031693
      py      :     4.031693
      dz2     :     1.991328  d :     9.956639
      dxz     :     1.991328
      dyz     :     1.991328
      dx2y2   :     1.991328
      dxy     :     1.991328
      f0      :     0.005081  f :     0.035570
      f+1     :     0.005081
      f-1     :     0.005081
      f+2     :     0.005081
      f-2     :     0.005081
      f+3     :     0.005081
      f-3     :     0.005081
      g0      :     0.000469  g :     0.004219
      g+1     :     0.000469
      g-1     :     0.000469
      g+2     :     0.000469
      g-2     :     0.000469
      g+3     :     0.000469
      g-3     :     0.000469
      g+4     :     0.000469
      g-4     :     0.000469


                      *****************************
                      * MAYER POPULATION ANALYSIS *
                      *****************************

  NA   - Mulliken gross atomic population
  ZA   - Total nuclear charge
  QA   - Mulliken gross atomic charge
  VA   - Mayer's total valence
  BVA  - Mayer's bonded valence
  FA   - Mayer's free valence

  ATOM       NA         ZA         QA         VA         BVA        FA
  0 Zn    30.0000    30.0000    -0.0000     0.8987     0.0000     0.8987





------------------------------------------------------------------------------- 
                                     TIMINGS                                   
------------------------------------------------------------------------------- 


Total execution time                   ...        7.225 sec

Fock Matrix Formation                  ...        0.290 sec (  4.0%)
Initial Guess                          ...        0.009 sec (  0.1%)
DIIS Solver                            ...        0.310 sec (  4.3%)
State Vector Update                    ...        0.014 sec (  0.2%)
Sigma-vector construction              ...        4.161 sec ( 57.6%)
  <0|H|D>                              ...        0.001 sec (  0.0% of sigma)
  <D|H|D>(0-ext)                       ...        0.030 sec (  0.7% of sigma)
  <D|H|D>(2-ext Fock)                  ...        0.002 sec (  0.1% of sigma)
  <D|H|D>(2-ext)                       ...        0.072 sec (  1.7% of sigma)
  <D|H|D>(4-ext)                       ...        0.292 sec (  7.0% of sigma)
  <D|H|D>(4-ext-corr)                  ...        0.265 sec (  6.4% of sigma)
  <S|H|0>                              ...        0.004 sec (  0.1% of sigma)
  <S|H|S>                              ...        0.005 sec (  0.1% of sigma)
  <S|H|D>(1-ext)                       ...        0.017 sec (  0.4% of sigma)
  <D|H|S>(1-ext)                       ...        0.017 sec (  0.4% of sigma)
  <S|H|D>(3-ext)                       ...        0.222 sec (  5.3% of sigma)
  Fock-dressing                        ...        2.467 sec ( 59.3% of sigma)
  (ik|jl)-dressing                     ...        0.037 sec (  0.9% of sigma)
  (ij|ab),(ia|jb)-dressing             ...        0.585 sec ( 14.1% of sigma)
  Pair energies                        ...        0.002 sec (  0.1% of sigma)
Total Time for computing (T)           ...        0.422 sec (  5.8% of ALL)
  I/O of integral and amplitudes       ...        0.127 sec ( 30.2% of (T))
  N**6 sorting step                    ...        0.116 sec ( 27.6% of (T))
  External N**7 contributions          ...        0.102 sec ( 24.2% of (T))
  Internal N**7 contributions          ...        0.038 sec (  9.1% of (T))
  N**6 triples energy contributions    ...        0.037 sec (  8.9% of (T))
One-particle density matrix            ...        0.001 sec (  0.0%)


-------------------
EXTRAPOLATED ENERGY
-------------------


-----------------------------------------------------------------
                      EP1 - MDCI extrapolation:
-----------------------------------------------------------------
NOTE: We use as reference SCF energy, for the extrapolation, the one from the MDCI module and not the one 
from the SCF calculation. In case the first step is a DFT calculation these two might be different.

NOTE: For the SCF part we extrapolate based on the scheme proposed in J. Chem. Phys. 2008, 129, 184116
using the exponents from J. Chem. Theory Comput., 7, 33-43 (2011)

NOTE: For the correlation part we extrapolate based on the scheme proposed in J. Chem. Phys. 1997, 106, 9639
using the exponents from J. Chem. Theory Comput., 7, 33-43 (2011)


Alpha(3/4)     :  7.880 (SCF Extrapolation)
Beta(3/4)      :  2.970 (correlation extrapolation)

SCF energy with basis def2-TZVPP:                     -1777.807066272
SCF energy with basis def2-QZVPP:                     -1777.847171411
Extrapolated CBS SCF energy (3/4) :                   -1777.852695440 (-0.005524029) 

MDCI energy with basis def2-TZVPP:                       -0.759745944
MDCI energy with basis def2-QZVPP:                       -0.804329347
Extrapolated CBS correlation energy (3/4) :              -0.837354065 (-0.033024718)

Estimated CBS total energy (3/4) :                    -1778.690049506



-------------------------   --------------------
FINAL SINGLE POINT ENERGY     -1778.690049505576
-------------------------   --------------------


                            ***************************************
                            *     ORCA property calculations      *
                            ***************************************

                                    ---------------------
                                    Active property flags
                                    ---------------------
   (+) Dipole Moment


------------------------------------------------------------------------------
                       ORCA ELECTRIC PROPERTIES CALCULATION
------------------------------------------------------------------------------

Dipole Moment Calculation                       ... on
Quadrupole Moment Calculation                   ... off
Polarizability Calculation                      ... off
GBWName                                         ... 70_Zn.gbw
Electron density file                           ... 70_Zn.scfp
The origin for moment calculation is the CENTER OF MASS  = ( 0.000000,  0.000000  0.000000)

-------------
DIPOLE MOMENT
-------------
                                X             Y             Z
Electronic contribution:     -0.00000      -0.00000       0.00000
Nuclear contribution   :      0.00000       0.00000       0.00000
                        -----------------------------------------
Total Dipole Moment    :     -0.00000      -0.00000       0.00000
                        -----------------------------------------
Magnitude (a.u.)       :      0.00000
Magnitude (Debye)      :      0.00000



--------------------
Rotational spectrum 
--------------------
 
Rotational constants in cm-1:     0.000000     0.000000     0.000000 
Rotational constants in MHz :     0.000000     0.000000     0.000000 

 Dipole components along the rotational axes: 
x,y,z [a.u.] :    -0.000000    -0.000000     0.000000 
x,y,z [Debye]:    -0.000000    -0.000000     0.000000 

 

                           *** MDCI DENSITY ***

------------------------------------------------------------------------------
                       ORCA ELECTRIC PROPERTIES CALCULATION
------------------------------------------------------------------------------

Dipole Moment Calculation                       ... on
Quadrupole Moment Calculation                   ... off
Polarizability Calculation                      ... off
GBWName                                         ... 70_Zn.gbw
Electron density file                           ... 70_Zn.mdcip
The origin for moment calculation is the CENTER OF MASS  = ( 0.000000,  0.000000  0.000000)

-------------
DIPOLE MOMENT
-------------
                                X             Y             Z
Electronic contribution:      0.00000      -0.00000       0.00000
Nuclear contribution   :      0.00000       0.00000       0.00000
                        -----------------------------------------
Total Dipole Moment    :      0.00000      -0.00000       0.00000
                        -----------------------------------------
Magnitude (a.u.)       :      0.00000
Magnitude (Debye)      :      0.00000



--------------------
Rotational spectrum 
--------------------
 
Rotational constants in cm-1:     0.000000     0.000000     0.000000 
Rotational constants in MHz :     0.000000     0.000000     0.000000 

 Dipole components along the rotational axes: 
x,y,z [a.u.] :     0.000000    -0.000000     0.000000 
x,y,z [Debye]:     0.000000    -0.000000     0.000000 

 

Timings for individual modules:

Sum of individual times         ...       16.429 sec (=   0.274 min)
GTO integral calculation        ...        1.479 sec (=   0.025 min)   9.0 %
SCF iterations                  ...        5.075 sec (=   0.085 min)  30.9 %
MDCI module                     ...        9.875 sec (=   0.165 min)  60.1 %
                             ****ORCA TERMINATED NORMALLY****
TOTAL RUN TIME: 0 days 0 hours 0 minutes 17 seconds 304 msec
