
                                 *****************
                                 * O   R   C   A *
                                 *****************

           --- An Ab Initio, DFT and Semiempirical electronic structure package ---

                  #######################################################
                  #                        -***-                        #
                  #          Department of theory and spectroscopy      #
                  #               Directorship: Frank Neese             #
                  #        Max Planck Institute fuer Kohlenforschung    #
                  #                Kaiser Wilhelm Platz 1               #
                  #                 D-45470 Muelheim/Ruhr               #
                  #                      Germany                        #
                  #                                                     #
                  #                  All rights reserved                #
                  #                        -***-                        #
                  #######################################################


                         Program Version 4.2.0 -  RELEASE  -


 With contributions from (in alphabetic order):
   Daniel Aravena         : Magnetic Suceptibility
   Michael Atanasov       : Ab Initio Ligand Field Theory (pilot matlab implementation)
   Alexander A. Auer      : GIAO ZORA, VPT2
   Ute Becker             : Parallelization
   Giovanni Bistoni       : ED, misc. LED, open-shell LED, HFLED
   Martin Brehm           : Molecular dynamics
   Dmytro Bykov           : SCF Hessian
   Vijay G. Chilkuri      : MRCI spin determinant printing, contributions to CSF-ICE
   Dipayan Datta          : RHF DLPNO-CCSD density
   Achintya Kumar Dutta   : EOM-CC, STEOM-CC
   Dmitry Ganyushin       : Spin-Orbit,Spin-Spin,Magnetic field MRCI
   Miquel Garcia          : C-PCM Hessian, Gaussian charge scheme
   Yang Guo               : DLPNO-NEVPT2, CIM, IAO-localization
   Andreas Hansen         : Spin unrestricted coupled pair/coupled cluster methods
   Benjamin Helmich-Paris : CASSCF linear response (MC-RPA)
   Lee Huntington         : MR-EOM, pCC
   Robert Izsak           : Overlap fitted RIJCOSX, COSX-SCS-MP3, EOM
   Christian Kollmar      : KDIIS, OOCD, Brueckner-CCSD(T), CCSD density
   Simone Kossmann        : Meta GGA functionals, TD-DFT gradient, OOMP2, MP2 Hessian
   Martin Krupicka        : AUTO-CI
   Lucas Lang             : DCDCAS
   Dagmar Lenk            : GEPOL surface, SMD
   Dimitrios Liakos       : Extrapolation schemes; Compound Job, initial MDCI parallelization
   Dimitrios Manganas     : Further ROCIS development; embedding schemes
   Dimitrios Pantazis     : SARC Basis sets
   Taras Petrenko         : DFT Hessian,TD-DFT gradient, ASA, ECA, R-Raman, ABS, FL, XAS/XES, NRVS
   Peter Pinski           : DLPNO-MP2, DLPNO-MP2 Gradient
   Christoph Reimann      : Effective Core Potentials
   Marius Retegan         : Local ZFS, SOC
   Christoph Riplinger    : Optimizer, TS searches, QM/MM, DLPNO-CCSD(T), (RO)-DLPNO pert. Triples
   Tobias Risthaus        : Range-separated hybrids, TD-DFT gradient, RPA, STAB
   Michael Roemelt        : Original ROCIS implementation
   Masaaki Saitow         : Open-shell DLPNO-CCSD energy and density
   Barbara Sandhoefer     : DKH picture change effects
   Avijit Sen             : IP-ROCIS
   Kantharuban Sivalingam : CASSCF convergence, NEVPT2, FIC-MRCI
   Bernardo de Souza      : ESD, SOC TD-DFT
   Georgi Stoychev        : AutoAux, RI-MP2 NMR
   Willem Van den Heuvel  : Paramagnetic NMR
   Boris Wezisla          : Elementary symmetry handling
   Frank Wennmohs         : Technical directorship


 We gratefully acknowledge several colleagues who have allowed us to
 interface, adapt or use parts of their codes:
   Stefan Grimme, W. Hujo, H. Kruse,             : VdW corrections, initial TS optimization,
                  C. Bannwarth                     DFT functionals, gCP, sTDA/sTD-DF
   Ed Valeev, F. Pavosevic, A. Kumar             : LibInt (2-el integral package), F12 methods
   Garnet Chan, S. Sharma, J. Yang, R. Olivares  : DMRG
   Ulf Ekstrom                                   : XCFun DFT Library
   Mihaly Kallay                                 : mrcc  (arbitrary order and MRCC methods)
   Andreas Klamt, Michael Diedenhofen            : otool_cosmo (COSMO solvation model)
   Jiri Pittner, Ondrej Demel                    : Mk-CCSD
   Frank Weinhold                                : gennbo (NPA and NBO analysis)
   Christopher J. Cramer and Donald G. Truhlar   : smd solvation model
   Lars Goerigk                                  : TD-DFT with DH, B97 family of functionals
   V. Asgeirsson, H. Jonsson                     : NEB implementation
   FAccTs GmbH                                   : IRC, NEB, NEB-TS, Multilevel, MM, QM/MM, CI optimization
   S Lehtola, MJT Oliveira, MAL Marques          : LibXC Library


 Your calculation uses the libint2 library for the computation of 2-el integrals
 For citations please refer to: http://libint.valeyev.net

 Your ORCA version has been built with support for libXC version: 4.2.3
 For citations please refer to: https://tddft.org/programs/libxc/

 This ORCA versions uses:
   CBLAS   interface :  Fast vector & matrix operations
   LAPACKE interface :  Fast linear algebra routines
   SCALAPACK package :  Parallel linear algebra routines


----- Orbital basis set information -----
Your calculation utilizes the basis: def2-TZVPP
   F. Weigend and R. Ahlrichs, Phys. Chem. Chem. Phys. 7, 3297 (2005).

================================================================================
                                        WARNINGS
                       Please study these warnings very carefully!
================================================================================


WARNING: your system is open-shell and RHF/RKS was chosen
  ===> : WILL SWITCH to UHF/UKS


WARNING: MDCI localization with Augmented Hessian Foster-Boys
  ===> : Switching off randomization!

WARNING: Post HF methods need fully converged wavefunctions
  ===> : Setting SCFConvForced true
         You can overwrite this default with %scf ConvForced false 


INFO   : the flag for use of LIBINT has been found!

================================================================================
                                       INPUT FILE
================================================================================
NAME = 72_F.in
|  1> #
|  2> # 72_F ccsd(t)/cbs
|  3> #
|  4> ! ccsd(t) extrapolate(3/4,def2) verytightscf
|  5> 
|  6> *xyz 0 2
|  7> F 0.0 0.0 0.0
|  8> *
|  9> 
| 10> %maxcore 5000
| 11> %pal
| 12> nprocs 21
| 13> end
| 14> 
| 15> 
| 16>                          ****END OF INPUT****
================================================================================

                   *****************************************
                   * Extrapolated Single Point Calculation *
                   *****************************************

----- Orbital basis set information -----
Your calculation utilizes the basis: def2-TZVPP
   F. Weigend and R. Ahlrichs, Phys. Chem. Chem. Phys. 7, 3297 (2005).

----- AuxJ basis set information -----
Your calculation utilizes the auxiliary basis: def2/J
   F. Weigend, Phys. Chem. Chem. Phys. 8, 1057 (2006).

----- AuxC basis set information -----
Your calculation utilizes the auxiliary basis: def2-TZVPP/C
  H-La, Hf-Rn : A. Hellweg, C. Hattig, S. Hofener and W. Klopper, Theor. Chem. Acc. 117, 587 (2007).
        Ce-Lu : J. Chmela and M. E. Harding, Mol. Phys. (2018).

----- AuxJK basis set information -----
Your calculation utilizes the auxiliary basis: def2/JK
   H-Ba, Hf-Rn: F. Weigend, J. Comput. Chem. 29, 167 (2008).

All done

                     -----------------------------------------
                     Extrapolated Energy 1 Basis=  def2-TZVPP
                     -----------------------------------------

---------------------------------
CARTESIAN COORDINATES (ANGSTROEM)
---------------------------------
  F      0.000000    0.000000    0.000000

----------------------------
CARTESIAN COORDINATES (A.U.)
----------------------------
  NO LB      ZA    FRAG     MASS         X           Y           Z
   0 F     9.0000    0    18.998    0.000000    0.000000    0.000000

--------------------------------
INTERNAL COORDINATES (ANGSTROEM)
--------------------------------
 F      0   0   0     0.000000000000     0.00000000     0.00000000

---------------------------
INTERNAL COORDINATES (A.U.)
---------------------------
 F      0   0   0     0.000000000000     0.00000000     0.00000000

---------------------
BASIS SET INFORMATION
---------------------
There are 1 groups of distinct atoms

 Group   1 Type F   : 11s6p2d1f contracted to 5s3p2d1f pattern {62111/411/11/1}

Atom   0F    basis set group =>   1
---------------------------------
AUXILIARY/J BASIS SET INFORMATION
---------------------------------
There are 1 groups of distinct atoms

 Group   1 Type F   : 12s5p4d2f1g contracted to 6s4p3d1f1g pattern {711111/2111/211/2/1}

Atom   0F    basis set group =>   1
---------------------------------
AUXILIARY/C BASIS SET INFORMATION
---------------------------------
There are 1 groups of distinct atoms

 Group   1 Type F   : 8s6p5d3f1g contracted to 8s6p4d3f1g pattern {11111111/111111/2111/111/1}

Atom   0F    basis set group =>   1
----------------------------------
AUXILIARY/JK BASIS SET INFORMATION
----------------------------------
There are 1 groups of distinct atoms

 Group   1 Type F   : 14s10p6d2f1g contracted to 10s8p4d2f1g pattern {5111111111/31111111/3111/11/1}

Atom   0F    basis set group =>   1


           ************************************************************
           *        Program running with 21 parallel MPI-processes    *
           *              working on a common directory               *
           ************************************************************
------------------------------------------------------------------------------
                           ORCA GTO INTEGRAL CALCULATION
------------------------------------------------------------------------------

                         BASIS SET STATISTICS AND STARTUP INFO

 # of primitive gaussian shells          ...   20
 # of primitive gaussian functions       ...   46
 # of contracted shells                  ...   11
 # of contracted basis functions         ...   31
 Highest angular momentum                ...    3
 Maximum contraction depth               ...    6
 Integral package used                   ... LIBINT
 Integral threshhold            Thresh   ...  1.000e-12
 Primitive cut-off              TCut     ...  1.000e-14


------------------------------ INTEGRAL EVALUATION ----------------------------


 * One electron integrals 
 Pre-screening matrix                    ... done
 Shell pair data                         ... done (   0.000 sec)



           ************************************************************
           *        Program running with 21 parallel MPI-processes    *
           *              working on a common directory               *
           ************************************************************
-------------------------------------------------------------------------------
                                 ORCA SCF
-------------------------------------------------------------------------------

------------
SCF SETTINGS
------------
Hamiltonian:
 Ab initio Hamiltonian  Method          .... Hartree-Fock(GTOs)


General Settings:
 Integral files         IntName         .... 72_F
 Hartree-Fock type      HFTyp           .... UHF
 Total Charge           Charge          ....    0
 Multiplicity           Mult            ....    2
 Number of Electrons    NEL             ....    9
 Basis Dimension        Dim             ....   31
 Nuclear Repulsion      ENuc            ....      0.0000000000 Eh

Convergence Acceleration:
 DIIS                   CNVDIIS         .... on
   Start iteration      DIISMaxIt       ....    12
   Startup error        DIISStart       ....  0.200000
   # of expansion vecs  DIISMaxEq       ....     5
   Bias factor          DIISBfac        ....   1.050
   Max. coefficient     DIISMaxC        ....  10.000
 Newton-Raphson         CNVNR           .... off
 SOSCF                  CNVSOSCF        .... off
 Level Shifting         CNVShift        .... on
   Level shift para.    LevelShift      ....    0.2500
   Turn off err/grad.   ShiftErr        ....    0.0010
 Zerner damping         CNVZerner       .... off
 Static damping         CNVDamp         .... on
   Fraction old density DampFac         ....    0.7000
   Max. Damping (<1)    DampMax         ....    0.9800
   Min. Damping (>=0)   DampMin         ....    0.0000
   Turn off err/grad.   DampErr         ....    0.1000
 Fernandez-Rico         CNVRico         .... off

SCF Procedure:
 Maximum # iterations   MaxIter         ....   125
 SCF integral mode      SCFMode         .... Direct
   Integral package                     .... LIBINT
 Reset frequency        DirectResetFreq ....    20
 Integral Threshold     Thresh          ....  1.000e-12 Eh
 Primitive CutOff       TCut            ....  1.000e-14 Eh

Convergence Tolerance:
 Convergence Check Mode ConvCheckMode   .... Total+1el-Energy
 Convergence forced     ConvForced      .... 1
 Energy Change          TolE            ....  1.000e-09 Eh
 1-El. energy change                    ....  1.000e-06 Eh
 DIIS Error             TolErr          ....  1.000e-08


Diagonalization of the overlap matrix:
Smallest eigenvalue                        ... 3.088e-02
Time for diagonalization                   ...    0.001 sec
Threshold for overlap eigenvalues          ... 1.000e-08
Number of eigenvalues below threshold      ... 0
Time for construction of square roots      ...    0.001 sec
Total time needed                          ...    0.002 sec

-------------------
DFT GRID GENERATION
-------------------

General Integration Accuracy     IntAcc      ...  4.340
Radial Grid Type                 RadialGrid  ... Gauss-Chebyshev
Angular Grid (max. acc.)         AngularGrid ... Lebedev-110
Angular grid pruning method      GridPruning ... 3 (G Style)
Weight generation scheme         WeightScheme... Becke
Basis function cutoff            BFCut       ...    1.0000e-12
Integration weight cutoff        WCut        ...    1.0000e-14
Grids for H and He will be reduced by one unit

# of grid points (after initial pruning)     ...   1740 (   0.0 sec)
# of grid points (after weights+screening)   ...   1740 (   0.0 sec)
Grid point division into batches done        ...    0.0 sec
Reduced shell lists constructed in    0.0 sec

Total number of grid points                  ...     1740
Total number of batches                      ...       28
Average number of points per batch           ...       62
Average number of grid points per atom       ...     1740
Average number of shells per batch           ...     3.33 (30.30%)
Average number of basis functions per batch  ...     8.67 (27.96%)
Average number of large shells per batch     ...     3.33 (100.00%)
Average number of large basis fcns per batch ...     8.67 (100.00%)
Maximum spatial batch extension              ...  13.89, 25.65, 25.65 au
Average spatial batch extension              ...   0.99,  1.83,  1.83 au

Time for grid setup =    0.011 sec

------------------------------
INITIAL GUESS: MODEL POTENTIAL
------------------------------
Loading Hartree-Fock densities                     ... done
Calculating cut-offs                               ... done
Setting up the integral package                    ... done
Initializing the effective Hamiltonian             ... done
Starting the Coulomb interaction                   ... done (   0.0 sec)
Reading the grid                                   ... done
Mapping shells                                     ... done
Starting the XC term evaluation                    ... done (   0.0 sec)
Transforming the Hamiltonian                       ... done (   0.0 sec)
Diagonalizing the Hamiltonian                      ... done (   0.0 sec)
Back transforming the eigenvectors                 ... done (   0.0 sec)
Now organizing SCF variables                       ... done
                      ------------------
                      INITIAL GUESS DONE (   0.1 sec)
                      ------------------
--------------
SCF ITERATIONS
--------------
ITER       Energy         Delta-E        Max-DP      RMS-DP      [F,P]     Damp
               ***  Starting incremental Fock matrix formation  ***
  0    -99.3941310007   0.000000000000 0.00870604  0.00066240  0.3615763 0.7000
  1    -99.3987302407  -0.004599239972 0.00766957  0.00056159  0.2555031 0.7000
                               ***Turning on DIIS***
  2    -99.4022135173  -0.003483276622 0.00601414  0.00042654  0.1803265 0.7000
  3    -99.3631891802   0.039024337161 0.00517239  0.00035166  0.1274462 0.7000
  4    -99.3720991268  -0.008909946583 0.01356853  0.00091296  0.0898442 0.0000
  5    -99.4113333468  -0.039234219993 0.00129859  0.00009096  0.0043051 0.0000
  6    -99.4103598533   0.000973493495 0.00088132  0.00007176  0.0020273 0.0000
  7    -99.4115570377  -0.001197184487 0.00032974  0.00002987  0.0006396 0.0000
  8    -99.4118678344  -0.000310796693 0.00009785  0.00000774  0.0000607 0.0000
  9    -99.4117787960   0.000089038486 0.00003711  0.00000328  0.0000178 0.0000
 10    -99.4117976733  -0.000018877361 0.00001886  0.00000165  0.0000053 0.0000
 11    -99.4117975871   0.000000086174 0.00000807  0.00000069  0.0000020 0.0000
 12    -99.4117984898  -0.000000902687 0.00000240  0.00000020  0.0000005 0.0000
 13    -99.4117985306  -0.000000040788 0.00000009  0.00000001  0.0000000 0.0000
                            ***DIIS convergence achieved***

               *****************************************************
               *                     SUCCESS                       *
               *           SCF CONVERGED AFTER  14 CYCLES          *
               *****************************************************


----------------
TOTAL SCF ENERGY
----------------

Total Energy       :          -99.41179850 Eh           -2705.13256 eV

Components:
Nuclear Repulsion  :            0.00000000 Eh               0.00000 eV
Electronic Energy  :          -99.41179850 Eh           -2705.13256 eV
One Electron Energy:         -139.25414157 Eh           -3789.29784 eV
Two Electron Energy:           39.84234307 Eh            1084.16527 eV

Virial components:
Potential Energy   :         -198.82725118 Eh           -5410.36456 eV
Kinetic Energy     :           99.41545268 Eh            2705.23200 eV
Virial Ratio       :            1.99996324


---------------
SCF CONVERGENCE
---------------

  Last Energy change         ...    2.8332e-08  Tolerance :   1.0000e-09
  Last MAX-Density change    ...    7.9904e-08  Tolerance :   1.0000e-08
  Last RMS-Density change    ...    6.9272e-09  Tolerance :   1.0000e-09
  Last DIIS Error            ...    1.1031e-08  Tolerance :   1.0000e-08

             **** THE GBW FILE WAS UPDATED (72_F.gbw) ****
             **** DENSITY FILE WAS UPDATED (72_F.scfp) ****
             **** ENERGY FILE WAS UPDATED (72_F.en.tmp) ****
----------------------
UHF SPIN CONTAMINATION
----------------------

Expectation value of <S**2>     :     0.753678
Ideal value S*(S+1) for S=0.5   :     0.750000
Deviation                       :     0.003678

             **** THE GBW FILE WAS UPDATED (72_F.gbw) ****
             **** DENSITY FILE WAS UPDATED (72_F.scfp) ****
----------------
ORBITAL ENERGIES
----------------
                 SPIN UP ORBITALS
  NO   OCC          E(Eh)            E(eV) 
   0   1.0000     -26.405361      -718.5264 
   1   1.0000      -1.670500       -45.4566 
   2   1.0000      -0.843449       -22.9514 
   3   1.0000      -0.730156       -19.8685 
   4   1.0000      -0.730156       -19.8685 
   5   0.0000       0.624508        16.9937 
   6   0.0000       0.639676        17.4065 
   7   0.0000       0.678066        18.4511 
   8   0.0000       0.678066        18.4511 
   9   0.0000       2.149075        58.4793 
  10   0.0000       2.166778        58.9610 
  11   0.0000       2.166778        58.9610 
  12   0.0000       2.222747        60.4840 
  13   0.0000       2.222747        60.4840 
  14   0.0000       3.449312        93.8606 
  15   0.0000       3.530864        96.0797 
  16   0.0000       3.530864        96.0797 
  17   0.0000       3.775704       102.7421 
  18   0.0000       7.252424       197.3485 
  19   0.0000       7.263347       197.6457 
  20   0.0000       7.263347       197.6457 
  21   0.0000       7.296320       198.5430 
  22   0.0000       7.296320       198.5430 
  23   0.0000       7.352032       200.0590 
  24   0.0000       7.352032       200.0590 
  25   0.0000       8.678858       236.1637 
  26   0.0000       8.704454       236.8602 
  27   0.0000       8.704454       236.8602 
  28   0.0000       8.784593       239.0409 
  29   0.0000       8.784593       239.0409 
  30   0.0000      57.868916      1574.6933 

                 SPIN DOWN ORBITALS
  NO   OCC          E(Eh)            E(eV) 
   0   1.0000     -26.356886      -717.2073 
   1   1.0000      -1.475615       -40.1535 
   2   1.0000      -0.678667       -18.4675 
   3   1.0000      -0.678667       -18.4675 
   4   0.0000       0.058294         1.5862 
   5   0.0000       0.649509        17.6740 
   6   0.0000       0.689861        18.7721 
   7   0.0000       0.689861        18.7721 
   8   0.0000       0.782002        21.2794 
   9   0.0000       2.229677        60.6726 
  10   0.0000       2.229677        60.6726 
  11   0.0000       2.261032        61.5258 
  12   0.0000       2.261032        61.5258 
  13   0.0000       2.272838        61.8471 
  14   0.0000       3.557133        96.7945 
  15   0.0000       3.557133        96.7945 
  16   0.0000       3.637472        98.9807 
  17   0.0000       3.832633       104.2913 
  18   0.0000       7.335271       199.6029 
  19   0.0000       7.337906       199.6746 
  20   0.0000       7.337906       199.6746 
  21   0.0000       7.345755       199.8882 
  22   0.0000       7.345755       199.8882 
  23   0.0000       7.358649       200.2390 
  24   0.0000       7.358649       200.2390 
  25   0.0000       8.806642       239.6409 
  26   0.0000       8.806642       239.6409 
  27   0.0000       8.822354       240.0685 
  28   0.0000       8.822354       240.0685 
  29   0.0000       8.827938       240.2204 
  30   0.0000      57.896403      1575.4412 

                    ********************************
                    * MULLIKEN POPULATION ANALYSIS *
                    ********************************

--------------------------------------------
MULLIKEN ATOMIC CHARGES AND SPIN POPULATIONS
--------------------------------------------
   0 F :   -0.000000    1.000000
Sum of atomic charges         :   -0.0000000
Sum of atomic spin populations:    1.0000000

-----------------------------------------------------
MULLIKEN REDUCED ORBITAL CHARGES AND SPIN POPULATIONS
-----------------------------------------------------
CHARGE
  0 F s       :     3.998981  s :     3.998981
      pz      :     1.999955  p :     4.999843
      px      :     1.999955
      py      :     0.999933
      dz2     :     0.000255  d :     0.001019
      dxz     :     0.000000
      dyz     :     0.000000
      dx2y2   :     0.000764
      dxy     :     0.000000
      f0      :     0.000017  f :     0.000157
      f+1     :     0.000003
      f-1     :     0.000025
      f+2     :     0.000028
      f-2     :     0.000000
      f+3     :     0.000043
      f-3     :     0.000042

SPIN
  0 F s       :     0.000229  s :     0.000229
      pz      :    -0.000044  p :     0.999845
      px      :    -0.000044
      py      :     0.999933
      dz2     :    -0.000057  d :    -0.000229
      dxz     :    -0.000000
      dyz     :    -0.000000
      dx2y2   :    -0.000171
      dxy     :    -0.000000
      f0      :     0.000017  f :     0.000155
      f+1     :     0.000003
      f-1     :     0.000025
      f+2     :     0.000028
      f-2     :     0.000000
      f+3     :     0.000041
      f-3     :     0.000042


                     *******************************
                     * LOEWDIN POPULATION ANALYSIS *
                     *******************************

-------------------------------------------
LOEWDIN ATOMIC CHARGES AND SPIN POPULATIONS
-------------------------------------------
   0 F :   -0.000000    1.000000

----------------------------------------------------
LOEWDIN REDUCED ORBITAL CHARGES AND SPIN POPULATIONS
----------------------------------------------------
CHARGE
  0 F s       :     3.998981  s :     3.998981
      pz      :     1.999955  p :     4.999843
      px      :     1.999955
      py      :     0.999933
      dz2     :     0.000255  d :     0.001019
      dxz     :     0.000000
      dyz     :     0.000000
      dx2y2   :     0.000764
      dxy     :     0.000000
      f0      :     0.000017  f :     0.000157
      f+1     :     0.000003
      f-1     :     0.000025
      f+2     :     0.000028
      f-2     :     0.000000
      f+3     :     0.000043
      f-3     :     0.000042

SPIN
  0 F s       :     0.000229  s :     0.000229
      pz      :    -0.000044  p :     0.999845
      px      :    -0.000044
      py      :     0.999933
      dz2     :    -0.000057  d :    -0.000229
      dxz     :    -0.000000
      dyz     :    -0.000000
      dx2y2   :    -0.000171
      dxy     :    -0.000000
      f0      :     0.000017  f :     0.000155
      f+1     :     0.000003
      f-1     :     0.000025
      f+2     :     0.000028
      f-2     :     0.000000
      f+3     :     0.000041
      f-3     :     0.000042


                      *****************************
                      * MAYER POPULATION ANALYSIS *
                      *****************************

  NA   - Mulliken gross atomic population
  ZA   - Total nuclear charge
  QA   - Mulliken gross atomic charge
  VA   - Mayer's total valence
  BVA  - Mayer's bonded valence
  FA   - Mayer's free valence

  ATOM       NA         ZA         QA         VA         BVA        FA
  0 F      9.0000     9.0000    -0.0000     1.0074     0.0000     1.0074

  Mayer bond orders larger than 0.100000


-------
TIMINGS
-------

Total SCF time: 0 days 0 hours 0 min 1 sec 

Total time                  ....       1.357 sec
Sum of individual times     ....       1.187 sec  ( 87.4%)

Fock matrix formation       ....       1.067 sec  ( 78.6%)
Diagonalization             ....       0.006 sec  (  0.4%)
Density matrix formation    ....       0.001 sec  (  0.1%)
Population analysis         ....       0.002 sec  (  0.2%)
Initial guess               ....       0.092 sec  (  6.8%)
Orbital Transformation      ....       0.000 sec  (  0.0%)
Orbital Orthonormalization  ....       0.000 sec  (  0.0%)
DIIS solution               ....       0.007 sec  (  0.5%)


           ************************************************************
           *        Program running with 21 parallel MPI-processes    *
           *              working on a common directory               *
           ************************************************************


------------------------------------------------------------------------------- 
                              ORCA-MATRIX DRIVEN CI                            
------------------------------------------------------------------------------- 

--------------------------------
AUTOMATIC CHOICE OF INCORE LEVEL
--------------------------------

Memory available                           ...   2500.00 MB
Memory needed for S+T                      ...      0.15 MB
Memory needed for J+K                      ...      0.31 MB
Memory needed for DIIS                     ...      2.17 MB
Memory needed for 3-ext                    ...      0.54 MB
Memory needed for 4-ext                    ...      1.81 MB
Memory needed for triples                  ...      0.67 MB
 -> Final InCoreLevel    ... 5
 -> check shows that triples correction can be computed


Wavefunction type
-----------------
Correlation treatment                      ...      CCSD     
Single excitations                         ... ON
Orbital optimization                       ... OFF
Calculation of Z vector                    ... OFF
Calculation of Brueckner orbitals          ... OFF
Perturbative triple excitations            ... ON
Calculation of F12 correction              ... OFF
Frozen core treatment                      ... chemical core (2 el)
Reference Wavefunction                     ... UHF
  Alpha-MOs occ    :     1 ...    4 (  4 MO's/  4 electrons)
  Beta-MOs occ     :     1 ...    3 (  3 MO's/  3 electrons)
  Alpha-MOs virt   :     5 ...   30 ( 26 MO's              )
  Beta-MOs virt    :     4 ...   30 ( 27 MO's              )
Number of AO's                             ...     31
Number of electrons                        ...      9
Number of correlated electrons             ...      7

Algorithmic settings
--------------------
Integral transformation                    ... AO direct full transformation
K(C) Formation                             ... FULL-MO TRAFO
Maximum number of iterations               ...        50
Convergence tolerance (max. residuum)      ... 1.000e-06
Level shift for amplitude update           ... 2.000e-01
Maximum number of DIIS vectors             ...         7
DIIS turned on at iteration                ...         0
Damping before turning on DIIS             ...     0.500
Damping after turning on DIIS              ...     0.000
Pair specific amplitude update             ... OFF
Natural orbital iterations                 ... OFF
Perturbative natural orbital generation    ... OFF
Printlevel                                 ... 2

Memory handling:
----------------
Maximum memory for working arrays          ...   2500 MB
Data storage in matrix containers          ... UNCOMPRESSED
Data type for integral storage             ... DOUBLE
In-Core Storage of quantities:
   Amplitudes+Sigma Vector      ... YES
   J+K operators                ... YES
   DIIS vectors                 ... YES
   3-external integrals         ... YES
   4-external integrals         ... YES


Initializing the integral package          ... done
Warning: reference  - re-canonicalizations have been set to INT 1 VIRT 1

--------------------------
UNRESTRICTED FOCK OPERATOR
--------------------------

<ss|ss>:          120 b            0 skpd (  0.0%)    0.000 s ( 0.001 ms/b)
<ss|sp>:          225 b            0 skpd (  0.0%)    0.000 s ( 0.000 ms/b)
<ss|sd>:          150 b            0 skpd (  0.0%)    0.000 s ( 0.000 ms/b)
<ss|sf>:           75 b            0 skpd (  0.0%)    0.000 s ( 0.001 ms/b)
<ss|pp>:           90 b            0 skpd (  0.0%)    0.000 s ( 0.001 ms/b)
<ss|pd>:           90 b            0 skpd (  0.0%)    0.000 s ( 0.001 ms/b)
<ss|pf>:           45 b            0 skpd (  0.0%)    0.000 s ( 0.001 ms/b)
<ss|dd>:           45 b            0 skpd (  0.0%)    0.000 s ( 0.001 ms/b)
<ss|df>:           30 b            0 skpd (  0.0%)    0.000 s ( 0.002 ms/b)
<ss|ff>:           15 b            0 skpd (  0.0%)    0.000 s ( 0.005 ms/b)
<sp|sp>:          120 b            0 skpd (  0.0%)    0.000 s ( 0.001 ms/b)
<sp|sd>:          150 b            0 skpd (  0.0%)    0.000 s ( 0.000 ms/b)
<sp|sf>:           75 b            0 skpd (  0.0%)    0.000 s ( 0.001 ms/b)
<sp|pp>:           90 b            0 skpd (  0.0%)    0.000 s ( 0.002 ms/b)
<sp|pd>:           90 b            0 skpd (  0.0%)    0.000 s ( 0.001 ms/b)
<sp|pf>:           45 b            0 skpd (  0.0%)    0.000 s ( 0.003 ms/b)
<sp|dd>:           45 b            0 skpd (  0.0%)    0.000 s ( 0.002 ms/b)
<sp|df>:           30 b            0 skpd (  0.0%)    0.000 s ( 0.004 ms/b)
<sp|ff>:           15 b            0 skpd (  0.0%)    0.000 s ( 0.010 ms/b)
<sd|sd>:           55 b            0 skpd (  0.0%)    0.000 s ( 0.000 ms/b)
<sd|sf>:           50 b            0 skpd (  0.0%)    0.000 s ( 0.001 ms/b)
<sd|pp>:           60 b            0 skpd (  0.0%)    0.000 s ( 0.002 ms/b)
<sd|pd>:           60 b            0 skpd (  0.0%)    0.000 s ( 0.001 ms/b)
<sd|pf>:           30 b            0 skpd (  0.0%)    0.000 s ( 0.003 ms/b)
<sd|dd>:           30 b            0 skpd (  0.0%)    0.000 s ( 0.003 ms/b)
<sd|df>:           20 b            0 skpd (  0.0%)    0.000 s ( 0.007 ms/b)
<sd|ff>:           10 b            0 skpd (  0.0%)    0.000 s ( 0.017 ms/b)
<sf|sf>:           15 b            0 skpd (  0.0%)    0.000 s ( 0.002 ms/b)
<sf|pp>:           30 b            0 skpd (  0.0%)    0.000 s ( 0.004 ms/b)
<sf|pd>:           30 b            0 skpd (  0.0%)    0.000 s ( 0.002 ms/b)
<sf|pf>:           15 b            0 skpd (  0.0%)    0.000 s ( 0.008 ms/b)
<sf|dd>:           15 b            0 skpd (  0.0%)    0.000 s ( 0.004 ms/b)
<sf|df>:           10 b            0 skpd (  0.0%)    0.000 s ( 0.012 ms/b)
<sf|ff>:            5 b            0 skpd (  0.0%)    0.000 s ( 0.033 ms/b)
<pp|pp>:           21 b            0 skpd (  0.0%)    0.000 s ( 0.007 ms/b)
<pp|pd>:           36 b            0 skpd (  0.0%)    0.000 s ( 0.002 ms/b)
<pp|pf>:           18 b            0 skpd (  0.0%)    0.000 s ( 0.007 ms/b)
<pp|dd>:           18 b            0 skpd (  0.0%)    0.000 s ( 0.004 ms/b)
<pp|df>:           12 b            0 skpd (  0.0%)    0.000 s ( 0.010 ms/b)
<pp|ff>:            6 b            0 skpd (  0.0%)    0.000 s ( 0.027 ms/b)
<pd|pd>:           21 b            0 skpd (  0.0%)    0.000 s ( 0.006 ms/b)
<pd|pf>:           18 b            0 skpd (  0.0%)    0.000 s ( 0.009 ms/b)
<pd|dd>:           18 b            0 skpd (  0.0%)    0.000 s ( 0.009 ms/b)
<pd|df>:           12 b            0 skpd (  0.0%)    0.000 s ( 0.019 ms/b)
<pd|ff>:            6 b            0 skpd (  0.0%)    0.000 s ( 0.046 ms/b)
<pf|pf>:            6 b            0 skpd (  0.0%)    0.000 s ( 0.020 ms/b)
<pf|dd>:            9 b            0 skpd (  0.0%)    0.000 s ( 0.010 ms/b)
<pf|df>:            6 b            0 skpd (  0.0%)    0.000 s ( 0.031 ms/b)
<pf|ff>:            3 b            0 skpd (  0.0%)    0.000 s ( 0.082 ms/b)
<dd|dd>:            6 b            0 skpd (  0.0%)    0.000 s ( 0.012 ms/b)
<dd|df>:            6 b            0 skpd (  0.0%)    0.000 s ( 0.028 ms/b)
<dd|ff>:            3 b            0 skpd (  0.0%)    0.000 s ( 0.070 ms/b)
<df|df>:            3 b            0 skpd (  0.0%)    0.000 s ( 0.057 ms/b)
<df|ff>:            2 b            0 skpd (  0.0%)    0.000 s ( 0.140 ms/b)
<ff|ff>:            1 b            0 skpd (  0.0%)    0.000 s ( 0.251 ms/b)
Recanonicalizing the internal orbitals
Recanonicalizing the virtual orbitals
Time needed for Fock operator              ...            0.048 sec
Reference energy                           ...    -99.411798500
Warning: for UHF the TrafoType has to be JK
Warning: for UHF the K(C)-option cannot be MO but must be AOX

-------------------------------
PARTIAL EXCHANGE TRANSFORMATION
-------------------------------

Transformation type                        ... two-operators
Generation of integrals (i,mue|j,nue)      ... ON
Generation of integrals (mue,kappa|nue,tau)... ON
Generation of integrals (i,mue|a,nue)      ... ON
Dimension of the basis                     ...   31
Number of internal alpha-MOs               ...    4 (   1-   4)
Number of internal beta-MOs                ...    3 (   1-   3)
Number of external alpha-MOs               ...   26 (   5-  30)
Number of external beta-MOs                ...   27 (   4-  30)
Pair cutoff                                ... 0.000e+00 Eh
Number of AO pairs in the trafo            ...  496
Total Number of distinct AO pairs          ...  496
Memory devoted for trafo                   ... 2500.0 MB 
Max. Number of MO pairs treated together   ... 340978      
Number Format for Storage                  ... Double (8 Byte)
Integral package used                      ... LIBINT

Starting integral evaluation:
    ... done with AO integral generation
Closing buffer AOK[aa] ( 0.00 GB; CompressionRatio= 0.00)
Closing buffer AOK[bb] ( 0.00 GB; CompressionRatio= 0.00)
Closing buffer AOK[ab] ( 0.00 GB; CompressionRatio= 0.00)
Closing buffer AOK[ba] ( 0.00 GB; CompressionRatio= 0.00)
Collecting buffer AOK 
Closing buffer IAAO1[aa] ( 0.00 GB; CompressionRatio= 0.00)
Closing buffer IAAO1[bb] ( 0.00 GB; CompressionRatio= 0.00)
Closing buffer IAAO1[ab] ( 0.00 GB; CompressionRatio= 0.00)
Closing buffer IAAO1[ba] ( 0.00 GB; CompressionRatio= 0.00)
Closing buffer IAAO2[aa] ( 0.00 GB; CompressionRatio= 0.00)
Closing buffer IAAO2[bb] ( 0.00 GB; CompressionRatio= 0.00)
Closing buffer IAAO2[ab] ( 0.00 GB; CompressionRatio= 0.00)
Closing buffer IAAO2[ba] ( 0.00 GB; CompressionRatio= 0.00)
Collecting buffer IAAO 
Closing buffer PRQS    ( 0.00 GB; CompressionRatio= 0.00)
Collecting buffer PRQS 
Number of alpha/alpha MO pairs in trafo    ...   10
Number of beta /beta  MO pairs in trafo    ...    6
Number of alpha/ beta MO pairs in trafo    ...   12
------------------------
SORTING OF (i,mue|j,nue)
------------------------

SORTING OF ALPHA/ALPHA PAIRS
IBATCH = 1 of  1
Closing buffer KAO[aa] ( 0.00 GB; CompressionRatio= 1.00)
Collecting buffer KAO 
SORTING OF BETA /BETA  PAIRS
IBATCH = 1 of  1
Closing buffer KAO[bb] ( 0.00 GB; CompressionRatio= 1.00)
Collecting buffer KAO 
SORTING OF ALPHA/BETA  PAIRS
IBATCH = 1 of  1
Closing buffer KAO[ab] ( 0.00 GB; CompressionRatio= 0.998441558442)
Collecting buffer KAO[ab] 
------------------------
SORTING OF (i,mue|a,nue)
------------------------

Number of alpha/alpha (i,a) pairs in trafo  ...  104
Number of beta /beta  (i,a) pairs in trafo  ...   81
Number of alpha/ beta (i,a) pairs in trafo  ...  108
Number of beta /alpha (i,a) pairs in trafo  ...   78
Setting up the alpha/alpha list             ... done
Setting up the beta /beta  list             ... done
Setting up the alpha/beta  list             ... done
Setting up the beta /alpha list             ... done
    ... Now sorting (i,mue|a,nue)integrals
    ... Integrals (i,b|a,c) will be made on the fly
SORTING OF ALPHA/ALPHA PAIRS
IBATCH = 1 of  1
Closing buffer IPAQ[aa]  0.00 GB; CompressionRatio= 1.00)
SORTING OF BETA /BETA  PAIRS
IBATCH = 1 of  1
Closing buffer IPAQ[bb]( 0.00 GB; CompressionRatio= 1.00)
SORTING OF ALPHA/BETA  PAIRS (NMatSort_ab=6)
IBATCH = 1 of  1
Closing buffer IPAQ[ab]( 0.00 GB; CompressionRatio= 1.00)
SORTING OF BETA/ALPHA  PAIRS
IBATCH = 1 of  1
Closing buffer IPAQ[ba]( 0.00 GB; CompressionRatio= 1.00)
N(AO-Batches) Done                         ...         0 
N(AO-Batches) Skipped                      ...         0 
N(IJ)-pairs Skipped                        ...         0 
TOTAL TIME for half transformation         ...     0.047 sec
AO-integral generation                     ...     0.000 sec
Half transformation                        ...     0.000 sec
K-integral sorting                         ...     0.022 sec
<ss|**>: 
------------------------------
PARTIAL COULOMB TRANSFORMATION
------------------------------

Transformation type                        ... two-operators
Dimension of the basis                     ...   31
Number of internal alpha-MOs               ...    4 (1-4)
Number of internal beta-MOs                ...    3 (1-3)
Pair cutoff                                ... 0.000e+00 Eh
Number of AO pairs included in the trafo   ...  496
Total Number of distinct AO pairs          ...  496
Memory devoted for trafo                   ... 2500.0 MB 
Max. Number of MO pairs treated together   ... 660645      
Max. Number of MOs treated per batch       ... 21311      
Number Format for Storage                  ... Double (8 Byte)
AO-integral source                         ... DIRECT
Integral package used                      ... LIBINT

Starting integral evaluation:
<sp|**>:          990 b        0 skpd     0.000 s (  0.000 ms/b)
<sd|**>:          990 b        0 skpd     0.001 s (  0.001 ms/b)
<sf|**>:          660 b        0 skpd     0.000 s (  0.001 ms/b)
<pp|**>:          330 b        0 skpd     0.001 s (  0.003 ms/b)
<pd|**>:          396 b        0 skpd     0.001 s (  0.003 ms/b)
         396 b        0 skpd     0.001 s (  0.002 ms/b)
<pf|**>: <dd|**>:          198 b        0 skpd     0.001 s (  0.006 ms/b)
         198 b        0 skpd     0.001 s (  0.004 ms/b)
<df|**>:          132 b        0 skpd     0.001 s (  0.010 ms/b)
<ff|**>:           66 b        0 skpd     0.002 s (  0.025 ms/b)
Closing buffer AOJ[aa] ( 0.00 GB; CompressionRatio= 0.87)
Closing buffer AOJ[bb] ( 0.00 GB; CompressionRatio= 0.00)
Collecting buffer AOJ 
    ... done with AO integral generation
Number of Alpha-MO pairs included          ...   10
Number of Beta-MO pairs included           ...    6
    ... Now sorting integrals
SORTING ALPHA/ALPHA PAIRS
IBATCH = 1 of  1
Closing buffer JAO[aa] ( 0.00 GB; CompressionRatio= 1.00)
SORTING BETA/BETA PAIRS
IBATCH = 1 of  1
Closing buffer JAO[bb] ( 0.00 GB; CompressionRatio= 1.00)
Collecting buffer JAO 
TOTAL TIME for half transformation         ...     0.028 sec
AO-integral generation                     ...     0.009 sec
Half transformation                        ...     0.000 sec
J-integral sorting                         ...     0.003 sec

-------------------------- SECOND HALF TRANSFORMATION -------------------------
Formation of (ij|kl),(ij|ka), (ij|ab)      ... ok (     0.005 sec)
Formation of (ik|jl),(ik|ja), (ia|jb)      ... ok (     0.007 sec)


-----------------------
SPIN UNRESTRICTED GUESS
-----------------------

Entering MDCI_UHF_Guess, Tailored=0
Spin-components of the MP2 energy:
EMP2(aa)=     -0.032475619
EMP2(bb)=     -0.015406270
EMP2(ab)=     -0.149909051

Initial guess performed in     0.001 sec
E(0)                                       ...    -99.411798500
E(MP2)                                     ...     -0.197790940
Initial E(tot)                             ...    -99.609589440
<T|T>                                      ...      0.031379819
Number of pairs included                   ... 21

------------------------------------------------
                  UHF COUPLED CLUSTER ITERATIONS
------------------------------------------------

Number of amplitudes to be optimized       ...        11636

Iter       E(tot)           E(Corr)          Delta-E          Residual     Time      <S|S>**1/2
  0    -99.609589440     -0.197790940      0.000000000      0.019955816    0.02      0.000000015
                           *** Turning on DIIS ***
  1    -99.618172237     -0.206373737     -0.008582797      0.006543520    0.02      0.011854088
  2    -99.621066496     -0.209267996     -0.002894259      0.003140446    0.02      0.014951088
  3    -99.621518452     -0.209719951     -0.000451955      0.001627162    0.02      0.016261884
  4    -99.621609273     -0.209810773     -0.000090822      0.000610700    0.02      0.016490171
  5    -99.621622096     -0.209823596     -0.000012823      0.000101185    0.02      0.016489963
  6    -99.621622836     -0.209824336     -0.000000740      0.000019355    0.02      0.016469756
  7    -99.621622498     -0.209823997      0.000000338      0.000005498    0.02      0.016464294
  8    -99.621622606     -0.209824106     -0.000000108      0.000001490    0.02      0.016464480
  9    -99.621622607     -0.209824107     -0.000000001      0.000000311    0.02      0.016464558
               --- The Coupled-Cluster iterations have converged ---

----------------------
COUPLED CLUSTER ENERGY
----------------------

E(0)                                       ...    -99.411798500
E(CORR)                                    ...     -0.209824107
E(TOT)                                     ...    -99.621622607
Singles norm <S|S>**1/2                    ...      0.016464558 ( 0.010571827, 0.005892731)  
T1 diagnostic                              ...      0.006223018                              

------------------
LARGEST AMPLITUDES
------------------
   2a->  9a   1b->  4b       0.029966
   3a->  8a   3b->  7b       0.027329
   4a->  7a   2b->  6b       0.027329
   4a->  7a   2b->  7b       0.023253
   3a->  8a   3b->  6b       0.023253
   3a-> 10a   1b->  4b       0.022385
   4a-> 11a   1b->  4b       0.022385
   3b->  7b   2b->  6b       0.020860
   3b->  6b   2b->  7b       0.020860
   4a->  7a   3a->  8a       0.019599
   4a->  8a   3a->  7a       0.019599
   3a->  8a   1b->  5b       0.019081
   4a->  7a   1b->  5b       0.019081
   4a->  7a   3b->  7b       0.019039
   3a->  8a   2b->  6b       0.019039
   4a->  7a   2a->  6a       0.018987

----------------------
UHF TRIPLES CORRECTION (Algorithm 1)
----------------------

Multiplier for the singles contribution    ...      1.000000000

SPIN-CASE Alpha-Alpha-Alpha:
10% done
20% done
30% done
40% done
50% done
60% done
70% done
80% done
90% done


SPIN-CASE Beta-Beta-Beta:
10% done
20% done
30% done
40% done
50% done
60% done
70% done
80% done
90% done


SPIN-CASE Alpha-Alpha-Beta:
10% done
20% done
30% done
40% done
50% done
60% done
70% done
80% done
90% done


SPIN-CASE Beta-Beta-Alpha:
10% done
20% done
30% done
40% done
50% done
60% done
70% done
80% done
90% done


Triples Correction (T)                     ...     -0.003434496
    alpha-alpha-alpha ... -0.000120001 (  3.5%)
    alpha-alpha-beta  ... -0.001996788 ( 58.1%)
    alpha-beta -beta  ... -0.001292126 ( 37.6%)
    beta -beta -beta  ... -0.000025581 (  0.7%)
Scaling of triples based on CCSD energies (Peterson et al. Molecular Physics 113, 1551 (2015))
E(T*) = f*E(T) where f = E(F12-CCSD)/E(CCSD) 
f = CCSD (with F12)/ CCSD (without F12)    ...      1.000000000
Scaled triples correction (T)              ...     -0.003434496

Final correlation energy                   ...     -0.213258603
E(CCSD)                                    ...    -99.621622607
E(CCSD(T))                                 ...    -99.625057103



        !!!!!!!!!!!!!!!!!!!!!!!!!!!!!!!!!!!!!!!!!!!!!!!!!!!!!!!!!!!!!!!!!!!!!!!!!! 
        !  Warning: Densities are linearized densities                           !
        !!!!!!!!!!!!!!!!!!!!!!!!!!!!!!!!!!!!!!!!!!!!!!!!!!!!!!!!!!!!!!!!!!!!!!!!!! 

NORM  =      1.036955101 sqrt=     1.018309924
W(HF) =      0.964361908
------------------------------------------------------------------------------
                           ORCA POPULATION ANALYSIS
------------------------------------------------------------------------------
Input electron density              ... 72_F.mdcip
Input spin density                  ... 72_F.mdcir
BaseName (.gbw .S,...)              ... 72_F

                    ********************************
                    * MULLIKEN POPULATION ANALYSIS *
                    ********************************

------------------------------------------
MULLIKEN ATOMIC CHARGES AND SPIN DENSITIES
------------------------------------------
   0 F :   -0.000000    1.000000
Sum of atomic charges       :   -0.0000000
Sum of atomic spin densities:    1.0000000

---------------------------------------------------
MULLIKEN REDUCED ORBITAL CHARGES AND SPIN DENSITIES
---------------------------------------------------
CHARGE
  0 F s       :     3.992210  s :     3.992210
      pz      :     1.990525  p :     4.982462
      px      :     1.990525
      py      :     1.001412
      dz2     :     0.004654  d :     0.023033
      dxz     :     0.004692
      dyz     :     0.004555
      dx2y2   :     0.004576
      dxy     :     0.004555
      f0      :     0.000335  f :     0.002296
      f+1     :     0.000343
      f-1     :     0.000323
      f+2     :     0.000328
      f-2     :     0.000327
      f+3     :     0.000320
      f-3     :     0.000320

SPIN
  0 F s       :     0.004321  s :     0.004321
      pz      :     0.000262  p :     0.989887
      px      :     0.000262
      py      :     0.989362
      dz2     :     0.000458  d :     0.005230
      dxz     :    -0.000136
      dyz     :     0.001631
      dx2y2   :     0.001646
      dxy     :     0.001631
      f0      :     0.000048  f :     0.000563
      f+1     :     0.000007
      f-1     :     0.000105
      f+2     :     0.000080
      f-2     :     0.000080
      f+3     :     0.000121
      f-3     :     0.000121


                     *******************************
                     * LOEWDIN POPULATION ANALYSIS *
                     *******************************

-----------------------------------------
LOEWDIN ATOMIC CHARGES AND SPIN DENSITIES
-----------------------------------------
   0 F :   -0.000000    1.000000

--------------------------------------------------
LOEWDIN REDUCED ORBITAL CHARGES AND SPIN DENSITIES
--------------------------------------------------
CHARGE
  0 F s       :     3.992210  s :     3.992210
      pz      :     1.990525  p :     4.982462
      px      :     1.990525
      py      :     1.001412
      dz2     :     0.004654  d :     0.023033
      dxz     :     0.004692
      dyz     :     0.004555
      dx2y2   :     0.004576
      dxy     :     0.004555
      f0      :     0.000335  f :     0.002296
      f+1     :     0.000343
      f-1     :     0.000323
      f+2     :     0.000328
      f-2     :     0.000327
      f+3     :     0.000320
      f-3     :     0.000320

SPIN
  0 F s       :     0.004321  s :     0.004321
      pz      :     0.000262  p :     0.989887
      px      :     0.000262
      py      :     0.989362
      dz2     :     0.000458  d :     0.005230
      dxz     :    -0.000136
      dyz     :     0.001631
      dx2y2   :     0.001646
      dxy     :     0.001631
      f0      :     0.000048  f :     0.000563
      f+1     :     0.000007
      f-1     :     0.000105
      f+2     :     0.000080
      f-2     :     0.000080
      f+3     :     0.000121
      f-3     :     0.000121


                      *****************************
                      * MAYER POPULATION ANALYSIS *
                      *****************************

  NA   - Mulliken gross atomic population
  ZA   - Total nuclear charge
  QA   - Mulliken gross atomic charge
  VA   - Mayer's total valence
  BVA  - Mayer's bonded valence
  FA   - Mayer's free valence

  ATOM       NA         ZA         QA         VA         BVA        FA
  0 F      9.0000     9.0000    -0.0000     1.2632     0.0000     1.2632





------------------------------------------------------------------------------- 
                                     TIMINGS                                   
------------------------------------------------------------------------------- 


Total execution time                   ...        0.574 sec

Fock Matrix Formation                  ...        0.048 sec (  8.3%)
Initial Guess                          ...        0.001 sec (  0.2%)
DIIS Solver                            ...        0.009 sec (  1.6%)
State Vector Update                    ...        0.001 sec (  0.1%)
Sigma-vector construction              ...        0.176 sec ( 30.7%)
  <D|H|D>(2-ext)                       ...        0.001 sec (  0.7% of sigma)
  <D|H|D>(4-ext)                       ...        0.070 sec ( 39.7% of sigma)
  <S|H|0>                              ...        0.001 sec (  0.8% of sigma)
  <D|H|S>(1-ext)                       ...        0.002 sec (  1.0% of sigma)
  Fock-dressing                        ...        0.047 sec ( 26.9% of sigma)
  (ij|ab),(ia|jb)-dressing             ...        0.037 sec ( 21.0% of sigma)
Total Time for computing (T)           ...        0.006 sec (  1.0% of ALL)
  I/O of integral and amplitudes       ...        0.002 sec ( 31.1% of (T))
  N**6 triples energy contributions    ...        0.002 sec ( 40.4% of (T))

----- Orbital basis set information -----
Your calculation utilizes the basis: def2-QZVPP
   F. Weigend and R. Ahlrichs, Phys. Chem. Chem. Phys. 7, 3297 (2005).

----- AuxJ basis set information -----
Your calculation utilizes the auxiliary basis: def2/J
   F. Weigend, Phys. Chem. Chem. Phys. 8, 1057 (2006).

----- AuxC basis set information -----
Your calculation utilizes the auxiliary basis: def2-QZVPP/C
  H-La, Hf-Rn : A. Hellweg, C. Hattig, S. Hofener and W. Klopper, Theor. Chem. Acc. 117, 587 (2007).
        Ce-Lu : J. Chmela and M. E. Harding, Mol. Phys. (2018).

----- AuxJK basis set information -----
Your calculation utilizes the auxiliary basis: def2/JK
   H-Ba, Hf-Rn: F. Weigend, J. Comput. Chem. 29, 167 (2008).

All done

                     -----------------------------------------
                     Extrapolated Energy 2 Basis=  def2-QZVPP
                     -----------------------------------------

---------------------------------
CARTESIAN COORDINATES (ANGSTROEM)
---------------------------------
  F      0.000000    0.000000    0.000000

----------------------------
CARTESIAN COORDINATES (A.U.)
----------------------------
  NO LB      ZA    FRAG     MASS         X           Y           Z
   0 F     9.0000    0    18.998    0.000000    0.000000    0.000000

--------------------------------
INTERNAL COORDINATES (ANGSTROEM)
--------------------------------
 F      0   0   0     0.000000000000     0.00000000     0.00000000

---------------------------
INTERNAL COORDINATES (A.U.)
---------------------------
 F      0   0   0     0.000000000000     0.00000000     0.00000000

---------------------
BASIS SET INFORMATION
---------------------
There are 1 groups of distinct atoms

 Group   1 Type F   : 15s8p3d2f1g contracted to 7s4p3d2f1g pattern {8211111/5111/111/11/1}

Atom   0F    basis set group =>   1
---------------------------------
AUXILIARY/J BASIS SET INFORMATION
---------------------------------
There are 1 groups of distinct atoms

 Group   1 Type F   : 12s5p4d2f1g contracted to 6s4p3d1f1g pattern {711111/2111/211/2/1}

Atom   0F    basis set group =>   1
---------------------------------
AUXILIARY/C BASIS SET INFORMATION
---------------------------------
There are 1 groups of distinct atoms

 Group   1 Type F   : 9s8p7d5f3g1h contracted to 9s8p7d5f3g1h pattern {111111111/11111111/1111111/11111/111/1}

Atom   0F    basis set group =>   1
----------------------------------
AUXILIARY/JK BASIS SET INFORMATION
----------------------------------
There are 1 groups of distinct atoms

 Group   1 Type F   : 14s10p6d2f1g contracted to 10s8p4d2f1g pattern {5111111111/31111111/3111/11/1}

Atom   0F    basis set group =>   1

Checking for AutoStart:
The File: 72_F.gbw exists
Trying to determine its content:
     ... Fine, the file contains calculation information
     ... Fine, the calculation information was read
     ... Fine, the file contains a basis set
     ... Fine, the basis set was read
     ... Fine, the file contains a geometry
     ... Fine, the geometry was read
     ... Fine, the file contains a set of orbitals
     ... Fine, the orbitals can be read
     => possible old guess file was deleted
     => GBW file was renamed to GES file
     => GES file is set as startup file
     => Guess is set to MORead
     ... now leaving AutoStart



           ************************************************************
           *        Program running with 21 parallel MPI-processes    *
           *              working on a common directory               *
           ************************************************************
------------------------------------------------------------------------------
                           ORCA GTO INTEGRAL CALCULATION
------------------------------------------------------------------------------

                         BASIS SET STATISTICS AND STARTUP INFO

 # of primitive gaussian shells          ...   29
 # of primitive gaussian functions       ...   77
 # of contracted shells                  ...   17
 # of contracted basis functions         ...   57
 Highest angular momentum                ...    4
 Maximum contraction depth               ...    8
 Integral package used                   ... LIBINT
 Integral threshhold            Thresh   ...  1.000e-12
 Primitive cut-off              TCut     ...  1.000e-14


------------------------------ INTEGRAL EVALUATION ----------------------------


 * One electron integrals 
 Pre-screening matrix                    ... done
 Shell pair data                         ... done (   0.000 sec)



           ************************************************************
           *        Program running with 21 parallel MPI-processes    *
           *              working on a common directory               *
           ************************************************************
-------------------------------------------------------------------------------
                                 ORCA SCF
-------------------------------------------------------------------------------

------------
SCF SETTINGS
------------
Hamiltonian:
 Ab initio Hamiltonian  Method          .... Hartree-Fock(GTOs)


General Settings:
 Integral files         IntName         .... 72_F
 Hartree-Fock type      HFTyp           .... UHF
 Total Charge           Charge          ....    0
 Multiplicity           Mult            ....    2
 Number of Electrons    NEL             ....    9
 Basis Dimension        Dim             ....   57
 Nuclear Repulsion      ENuc            ....      0.0000000000 Eh

Convergence Acceleration:
 DIIS                   CNVDIIS         .... on
   Start iteration      DIISMaxIt       ....    12
   Startup error        DIISStart       ....  0.200000
   # of expansion vecs  DIISMaxEq       ....     5
   Bias factor          DIISBfac        ....   1.050
   Max. coefficient     DIISMaxC        ....  10.000
 Newton-Raphson         CNVNR           .... off
 SOSCF                  CNVSOSCF        .... off
 Level Shifting         CNVShift        .... on
   Level shift para.    LevelShift      ....    0.2500
   Turn off err/grad.   ShiftErr        ....    0.0010
 Zerner damping         CNVZerner       .... off
 Static damping         CNVDamp         .... on
   Fraction old density DampFac         ....    0.7000
   Max. Damping (<1)    DampMax         ....    0.9800
   Min. Damping (>=0)   DampMin         ....    0.0000
   Turn off err/grad.   DampErr         ....    0.1000
 Fernandez-Rico         CNVRico         .... off

SCF Procedure:
 Maximum # iterations   MaxIter         ....   125
 SCF integral mode      SCFMode         .... Direct
   Integral package                     .... LIBINT
 Reset frequency        DirectResetFreq ....    20
 Integral Threshold     Thresh          ....  1.000e-12 Eh
 Primitive CutOff       TCut            ....  1.000e-14 Eh

Convergence Tolerance:
 Convergence Check Mode ConvCheckMode   .... Total+1el-Energy
 Convergence forced     ConvForced      .... 1
 Energy Change          TolE            ....  1.000e-09 Eh
 1-El. energy change                    ....  1.000e-06 Eh
 DIIS Error             TolErr          ....  1.000e-08


Diagonalization of the overlap matrix:
Smallest eigenvalue                        ... 5.475e-03
Time for diagonalization                   ...    0.002 sec
Threshold for overlap eigenvalues          ... 1.000e-08
Number of eigenvalues below threshold      ... 0
Time for construction of square roots      ...    0.001 sec
Total time needed                          ...    0.003 sec

---------------------
INITIAL GUESS: MOREAD
---------------------
Guess MOs are being read from file: 72_F.ges
Input Geometry matches current geometry (good)
Atom 0: N(Shells)= 17 and 11 - projection required
Input basis set needs projection
NBasis(read)= 31
NBasis(calc)= 57
Basis set overlap was calculated
Using GuessMode=FMatrix for the initial guess
C*T matrix was formed
Effective Fockian was calculated
Effective Fockian was diagonalized
Initial density was built
C*T matrix was formed
Effective Fockian was calculated
Effective Fockian was diagonalized
Initial density was built
                      ------------------
                      INITIAL GUESS DONE (   0.0 sec)
                      ------------------
--------------
SCF ITERATIONS
--------------
ITER       Energy         Delta-E        Max-DP      RMS-DP      [F,P]     Damp
               ***  Starting incremental Fock matrix formation  ***
  0    -99.4154871605   0.000000000000 0.00127337  0.00005309  0.0326339 0.7000
  1    -99.4156015184  -0.000114357947 0.00097194  0.00003962  0.0228451 0.7000
                               ***Turning on DIIS***
  2    -99.4156840305  -0.000082512112 0.00243123  0.00009754  0.0159873 0.0000
  3    -99.4159646056  -0.000280575048 0.00038198  0.00001414  0.0004944 0.0000
  4    -99.4159029368   0.000061668780 0.00006049  0.00000271  0.0001791 0.0000
  5    -99.4158205913   0.000082345448 0.00001768  0.00000104  0.0000719 0.0000
  6    -99.4159122124  -0.000091621029 0.00000991  0.00000059  0.0000204 0.0000
  7    -99.4158882691   0.000023943232 0.00000444  0.00000026  0.0000071 0.0000
  8    -99.4158867095   0.000001559668 0.00000133  0.00000007  0.0000013 0.0000
  9    -99.4158868753  -0.000000165804 0.00000038  0.00000002  0.0000002 0.0000
 10    -99.4158869929  -0.000000117631 0.00000013  0.00000001  0.0000001 0.0000
                            ***DIIS convergence achieved***

               *****************************************************
               *                     SUCCESS                       *
               *           SCF CONVERGED AFTER  11 CYCLES          *
               *****************************************************


----------------
TOTAL SCF ENERGY
----------------

Total Energy       :          -99.41588698 Eh           -2705.24382 eV

Components:
Nuclear Repulsion  :            0.00000000 Eh               0.00000 eV
Electronic Energy  :          -99.41588698 Eh           -2705.24382 eV
One Electron Energy:         -139.25135711 Eh           -3789.22207 eV
Two Electron Energy:           39.83547013 Eh            1083.97825 eV

Virial components:
Potential Energy   :         -198.83276573 Eh           -5410.51462 eV
Kinetic Energy     :           99.41687875 Eh            2705.27080 eV
Virial Ratio       :            1.99999002


---------------
SCF CONVERGENCE
---------------

  Last Energy change         ...    9.2105e-09  Tolerance :   1.0000e-09
  Last MAX-Density change    ...    2.5522e-08  Tolerance :   1.0000e-08
  Last RMS-Density change    ...    1.6342e-09  Tolerance :   1.0000e-09
  Last DIIS Error            ...    1.2675e-08  Tolerance :   1.0000e-08

             **** THE GBW FILE WAS UPDATED (72_F.gbw) ****
             **** DENSITY FILE WAS UPDATED (72_F.scfp) ****
             **** ENERGY FILE WAS UPDATED (72_F.en.tmp) ****
----------------------
UHF SPIN CONTAMINATION
----------------------

Expectation value of <S**2>     :     0.754034
Ideal value S*(S+1) for S=0.5   :     0.750000
Deviation                       :     0.004034

             **** THE GBW FILE WAS UPDATED (72_F.gbw) ****
             **** DENSITY FILE WAS UPDATED (72_F.scfp) ****
----------------
ORBITAL ENERGIES
----------------
                 SPIN UP ORBITALS
  NO   OCC          E(Eh)            E(eV) 
   0   1.0000     -26.406332      -718.5528 
   1   1.0000      -1.672072       -45.4994 
   2   1.0000      -0.845017       -22.9941 
   3   1.0000      -0.731296       -19.8996 
   4   1.0000      -0.731296       -19.8996 
   5   0.0000       0.407839        11.0979 
   6   0.0000       0.430796        11.7226 
   7   0.0000       0.430796        11.7226 
   8   0.0000       0.645313        17.5599 
   9   0.0000       1.533350        41.7246 
  10   0.0000       1.546109        42.0718 
  11   0.0000       1.546109        42.0718 
  12   0.0000       1.586679        43.1757 
  13   0.0000       1.586679        43.1757 
  14   0.0000       1.832174        49.8560 
  15   0.0000       1.892381        51.4943 
  16   0.0000       1.892381        51.4943 
  17   0.0000       3.747893       101.9853 
  18   0.0000       4.435959       120.7086 
  19   0.0000       4.444138       120.9312 
  20   0.0000       4.444138       120.9312 
  21   0.0000       4.468735       121.6005 
  22   0.0000       4.468735       121.6005 
  23   0.0000       4.510080       122.7255 
  24   0.0000       4.510080       122.7255 
  25   0.0000       5.235499       142.4652 
  26   0.0000       5.258373       143.0876 
  27   0.0000       5.258373       143.0876 
  28   0.0000       5.330674       145.0550 
  29   0.0000       5.330674       145.0550 
  30   0.0000       6.547961       178.1791 
  31   0.0000       6.632122       180.4692 
  32   0.0000       6.632122       180.4692 
  33   0.0000      11.837377       322.1114 
  34   0.0000      11.843624       322.2814 
  35   0.0000      11.843624       322.2814 
  36   0.0000      11.862422       322.7929 
  37   0.0000      11.862422       322.7929 
  38   0.0000      11.893951       323.6509 
  39   0.0000      11.893951       323.6509 
  40   0.0000      11.938530       324.8639 
  41   0.0000      11.938530       324.8639 
  42   0.0000      15.048457       409.4893 
  43   0.0000      15.070003       410.0756 
  44   0.0000      15.082242       410.4087 
  45   0.0000      15.082242       410.4087 
  46   0.0000      15.119092       411.4114 
  47   0.0000      15.119092       411.4114 
  48   0.0000      15.180983       413.0955 
  49   0.0000      15.180983       413.0955 
  50   0.0000      16.291511       443.3146 
  51   0.0000      16.314561       443.9418 
  52   0.0000      16.314561       443.9418 
  53   0.0000      16.389603       445.9838 
  54   0.0000      16.389603       445.9838 
  55   0.0000      54.721325      1489.0429 
  56   0.0000     287.428411      7821.3247 

                 SPIN DOWN ORBITALS
  NO   OCC          E(Eh)            E(eV) 
   0   1.0000     -26.358378      -717.2479 
   1   1.0000      -1.476758       -40.1846 
   2   1.0000      -0.679634       -18.4938 
   3   1.0000      -0.679634       -18.4938 
   4   0.0000       0.048733         1.3261 
   5   0.0000       0.436982        11.8909 
   6   0.0000       0.436982        11.8909 
   7   0.0000       0.506735        13.7890 
   8   0.0000       0.671024        18.2595 
   9   0.0000       1.587975        43.2110 
  10   0.0000       1.587975        43.2110 
  11   0.0000       1.606172        43.7062 
  12   0.0000       1.606172        43.7062 
  13   0.0000       1.613341        43.9012 
  14   0.0000       1.910235        51.9801 
  15   0.0000       1.910235        51.9801 
  16   0.0000       1.979127        53.8548 
  17   0.0000       3.799357       103.3858 
  18   0.0000       4.489152       122.1560 
  19   0.0000       4.491682       122.2249 
  20   0.0000       4.491682       122.2249 
  21   0.0000       4.499212       122.4298 
  22   0.0000       4.499212       122.4298 
  23   0.0000       4.511579       122.7663 
  24   0.0000       4.511579       122.7663 
  25   0.0000       5.348378       145.5368 
  26   0.0000       5.348378       145.5368 
  27   0.0000       5.368467       146.0834 
  28   0.0000       5.368467       146.0834 
  29   0.0000       5.375851       146.2843 
  30   0.0000       6.656226       181.1251 
  31   0.0000       6.656226       181.1251 
  32   0.0000       6.697668       182.2528 
  33   0.0000      11.886810       323.4565 
  34   0.0000      11.890232       323.5497 
  35   0.0000      11.890232       323.5497 
  36   0.0000      11.900505       323.8292 
  37   0.0000      11.900505       323.8292 
  38   0.0000      11.917644       324.2956 
  39   0.0000      11.917644       324.2956 
  40   0.0000      11.941667       324.9493 
  41   0.0000      11.941667       324.9493 
  42   0.0000      15.095517       410.7699 
  43   0.0000      15.152294       412.3149 
  44   0.0000      15.156700       412.4348 
  45   0.0000      15.156700       412.4348 
  46   0.0000      15.169903       412.7940 
  47   0.0000      15.169903       412.7940 
  48   0.0000      15.191863       413.3916 
  49   0.0000      15.191863       413.3916 
  50   0.0000      16.395792       446.1522 
  51   0.0000      16.398675       446.2306 
  52   0.0000      16.398675       446.2306 
  53   0.0000      16.407716       446.4767 
  54   0.0000      16.407716       446.4767 
  55   0.0000      54.743675      1489.6511 
  56   0.0000     287.434397      7821.4876 

                    ********************************
                    * MULLIKEN POPULATION ANALYSIS *
                    ********************************

--------------------------------------------
MULLIKEN ATOMIC CHARGES AND SPIN POPULATIONS
--------------------------------------------
   0 F :   -0.000000    1.000000
Sum of atomic charges         :   -0.0000000
Sum of atomic spin populations:    1.0000000

-----------------------------------------------------
MULLIKEN REDUCED ORBITAL CHARGES AND SPIN POPULATIONS
-----------------------------------------------------
CHARGE
  0 F s       :     3.998881  s :     3.998881
      pz      :     1.999930  p :     4.999759
      px      :     1.999930
      py      :     0.999900
      dz2     :     0.000280  d :     0.001119
      dxz     :     0.000000
      dyz     :     0.000000
      dx2y2   :     0.000839
      dxy     :     0.000000
      f0      :     0.000026  f :     0.000241
      f+1     :     0.000004
      f-1     :     0.000038
      f+2     :     0.000044
      f-2     :     0.000000
      f+3     :     0.000066
      f-3     :     0.000063
      g0      :     0.000000  g :     0.000000
      g+1     :     0.000000
      g-1     :     0.000000
      g+2     :     0.000000
      g-2     :     0.000000
      g+3     :     0.000000
      g-3     :     0.000000
      g+4     :     0.000000
      g-4     :     0.000000

SPIN
  0 F s       :     0.000302  s :     0.000302
      pz      :    -0.000068  p :     0.999764
      px      :    -0.000068
      py      :     0.999900
      dz2     :    -0.000075  d :    -0.000302
      dxz     :     0.000000
      dyz     :    -0.000000
      dx2y2   :    -0.000226
      dxy     :    -0.000000
      f0      :     0.000025  f :     0.000236
      f+1     :     0.000004
      f-1     :     0.000038
      f+2     :     0.000042
      f-2     :     0.000000
      f+3     :     0.000064
      f-3     :     0.000063
      g0      :     0.000000  g :     0.000000
      g+1     :     0.000000
      g-1     :     0.000000
      g+2     :     0.000000
      g-2     :     0.000000
      g+3     :     0.000000
      g-3     :     0.000000
      g+4     :     0.000000
      g-4     :     0.000000


                     *******************************
                     * LOEWDIN POPULATION ANALYSIS *
                     *******************************

-------------------------------------------
LOEWDIN ATOMIC CHARGES AND SPIN POPULATIONS
-------------------------------------------
   0 F :   -0.000000    1.000000

----------------------------------------------------
LOEWDIN REDUCED ORBITAL CHARGES AND SPIN POPULATIONS
----------------------------------------------------
CHARGE
  0 F s       :     3.998881  s :     3.998881
      pz      :     1.999930  p :     4.999759
      px      :     1.999930
      py      :     0.999900
      dz2     :     0.000280  d :     0.001119
      dxz     :     0.000000
      dyz     :     0.000000
      dx2y2   :     0.000839
      dxy     :     0.000000
      f0      :     0.000026  f :     0.000241
      f+1     :     0.000004
      f-1     :     0.000038
      f+2     :     0.000044
      f-2     :     0.000000
      f+3     :     0.000066
      f-3     :     0.000063
      g0      :     0.000000  g :     0.000000
      g+1     :     0.000000
      g-1     :     0.000000
      g+2     :     0.000000
      g-2     :     0.000000
      g+3     :     0.000000
      g-3     :     0.000000
      g+4     :     0.000000
      g-4     :     0.000000

SPIN
  0 F s       :     0.000302  s :     0.000302
      pz      :    -0.000068  p :     0.999764
      px      :    -0.000068
      py      :     0.999900
      dz2     :    -0.000075  d :    -0.000302
      dxz     :     0.000000
      dyz     :    -0.000000
      dx2y2   :    -0.000226
      dxy     :    -0.000000
      f0      :     0.000025  f :     0.000236
      f+1     :     0.000004
      f-1     :     0.000038
      f+2     :     0.000042
      f-2     :     0.000000
      f+3     :     0.000064
      f-3     :     0.000063
      g0      :     0.000000  g :     0.000000
      g+1     :     0.000000
      g-1     :     0.000000
      g+2     :     0.000000
      g-2     :     0.000000
      g+3     :     0.000000
      g-3     :     0.000000
      g+4     :     0.000000
      g-4     :     0.000000


                      *****************************
                      * MAYER POPULATION ANALYSIS *
                      *****************************

  NA   - Mulliken gross atomic population
  ZA   - Total nuclear charge
  QA   - Mulliken gross atomic charge
  VA   - Mayer's total valence
  BVA  - Mayer's bonded valence
  FA   - Mayer's free valence

  ATOM       NA         ZA         QA         VA         BVA        FA
  0 F      9.0000     9.0000    -0.0000     1.0081     0.0000     1.0081

  Mayer bond orders larger than 0.100000


-------
TIMINGS
-------

Total SCF time: 0 days 0 hours 0 min 1 sec 

Total time                  ....       1.302 sec
Sum of individual times     ....       1.089 sec  ( 83.7%)

Fock matrix formation       ....       1.059 sec  ( 81.3%)
Diagonalization             ....       0.012 sec  (  0.9%)
Density matrix formation    ....       0.003 sec  (  0.2%)
Population analysis         ....       0.003 sec  (  0.3%)
Initial guess               ....       0.005 sec  (  0.4%)
Orbital Transformation      ....       0.000 sec  (  0.0%)
Orbital Orthonormalization  ....       0.000 sec  (  0.0%)
DIIS solution               ....       0.007 sec  (  0.6%)


           ************************************************************
           *        Program running with 21 parallel MPI-processes    *
           *              working on a common directory               *
           ************************************************************


------------------------------------------------------------------------------- 
                              ORCA-MATRIX DRIVEN CI                            
------------------------------------------------------------------------------- 

--------------------------------
AUTOMATIC CHOICE OF INCORE LEVEL
--------------------------------

Memory available                           ...   2500.00 MB
Memory needed for S+T                      ...      0.62 MB
Memory needed for J+K                      ...      1.25 MB
Memory needed for DIIS                     ...      8.66 MB
Memory needed for 3-ext                    ...      4.29 MB
Memory needed for 4-ext                    ...     28.43 MB
Memory needed for triples                  ...      5.36 MB
 -> Final InCoreLevel    ... 5
 -> check shows that triples correction can be computed


Wavefunction type
-----------------
Correlation treatment                      ...      CCSD     
Single excitations                         ... ON
Orbital optimization                       ... OFF
Calculation of Z vector                    ... OFF
Calculation of Brueckner orbitals          ... OFF
Perturbative triple excitations            ... ON
Calculation of F12 correction              ... OFF
Frozen core treatment                      ... chemical core (2 el)
Reference Wavefunction                     ... UHF
  Alpha-MOs occ    :     1 ...    4 (  4 MO's/  4 electrons)
  Beta-MOs occ     :     1 ...    3 (  3 MO's/  3 electrons)
  Alpha-MOs virt   :     5 ...   56 ( 52 MO's              )
  Beta-MOs virt    :     4 ...   56 ( 53 MO's              )
Number of AO's                             ...     57
Number of electrons                        ...      9
Number of correlated electrons             ...      7

Algorithmic settings
--------------------
Integral transformation                    ... AO direct full transformation
K(C) Formation                             ... FULL-MO TRAFO
Maximum number of iterations               ...        50
Convergence tolerance (max. residuum)      ... 1.000e-06
Level shift for amplitude update           ... 2.000e-01
Maximum number of DIIS vectors             ...         7
DIIS turned on at iteration                ...         0
Damping before turning on DIIS             ...     0.500
Damping after turning on DIIS              ...     0.000
Pair specific amplitude update             ... OFF
Natural orbital iterations                 ... OFF
Perturbative natural orbital generation    ... OFF
Printlevel                                 ... 2

Memory handling:
----------------
Maximum memory for working arrays          ...   2500 MB
Data storage in matrix containers          ... UNCOMPRESSED
Data type for integral storage             ... DOUBLE
In-Core Storage of quantities:
   Amplitudes+Sigma Vector      ... YES
   J+K operators                ... YES
   DIIS vectors                 ... YES
   3-external integrals         ... YES
   4-external integrals         ... YES


Initializing the integral package          ... done
Warning: reference  - re-canonicalizations have been set to INT 1 VIRT 1

--------------------------
UNRESTRICTED FOCK OPERATOR
--------------------------

<ss|ss>:          406 b            0 skpd (  0.0%)    0.000 s ( 0.001 ms/b)
<ss|sp>:          784 b            0 skpd (  0.0%)    0.001 s ( 0.001 ms/b)
<ss|sd>:          588 b            0 skpd (  0.0%)    0.000 s ( 0.000 ms/b)
<ss|sf>:          392 b            0 skpd (  0.0%)    0.000 s ( 0.001 ms/b)
<ss|sg>:          196 b            0 skpd (  0.0%)    0.000 s ( 0.001 ms/b)
<ss|pp>:          280 b            0 skpd (  0.0%)    0.000 s ( 0.001 ms/b)
<ss|pd>:          336 b            0 skpd (  0.0%)    0.000 s ( 0.000 ms/b)
<ss|pf>:          224 b            0 skpd (  0.0%)    0.000 s ( 0.001 ms/b)
<ss|pg>:          112 b            0 skpd (  0.0%)    0.000 s ( 0.002 ms/b)
<ss|dd>:          168 b            0 skpd (  0.0%)    0.000 s ( 0.000 ms/b)
<ss|df>:          168 b            0 skpd (  0.0%)    0.000 s ( 0.001 ms/b)
<ss|dg>:           84 b            0 skpd (  0.0%)    0.000 s ( 0.001 ms/b)
<ss|ff>:           84 b            0 skpd (  0.0%)    0.000 s ( 0.002 ms/b)
<ss|fg>:           56 b            0 skpd (  0.0%)    0.000 s ( 0.003 ms/b)
<ss|gg>:           28 b            0 skpd (  0.0%)    0.000 s ( 0.009 ms/b)
<sp|sp>:          406 b            0 skpd (  0.0%)    0.000 s ( 0.001 ms/b)
<sp|sd>:          588 b            0 skpd (  0.0%)    0.000 s ( 0.001 ms/b)
<sp|sf>:          392 b            0 skpd (  0.0%)    0.001 s ( 0.001 ms/b)
<sp|sg>:          196 b            0 skpd (  0.0%)    0.000 s ( 0.002 ms/b)
<sp|pp>:          280 b            0 skpd (  0.0%)    0.000 s ( 0.001 ms/b)
<sp|pd>:          336 b            0 skpd (  0.0%)    0.000 s ( 0.001 ms/b)
<sp|pf>:          224 b            0 skpd (  0.0%)    0.000 s ( 0.001 ms/b)
<sp|pg>:          112 b            0 skpd (  0.0%)    0.000 s ( 0.004 ms/b)
<sp|dd>:          168 b            0 skpd (  0.0%)    0.000 s ( 0.001 ms/b)
<sp|df>:          168 b            0 skpd (  0.0%)    0.000 s ( 0.001 ms/b)
<sp|dg>:           84 b            0 skpd (  0.0%)    0.000 s ( 0.003 ms/b)
<sp|ff>:           84 b            0 skpd (  0.0%)    0.000 s ( 0.003 ms/b)
<sp|fg>:           56 b            0 skpd (  0.0%)    0.000 s ( 0.007 ms/b)
<sp|gg>:           28 b            0 skpd (  0.0%)    0.001 s ( 0.019 ms/b)
<sd|sd>:          231 b            0 skpd (  0.0%)    0.000 s ( 0.001 ms/b)
<sd|sf>:          294 b            0 skpd (  0.0%)    0.001 s ( 0.002 ms/b)
<sd|sg>:          147 b            0 skpd (  0.0%)    0.000 s ( 0.002 ms/b)
<sd|pp>:          210 b            0 skpd (  0.0%)    0.000 s ( 0.002 ms/b)
<sd|pd>:          252 b            0 skpd (  0.0%)    0.000 s ( 0.001 ms/b)
[...]
N(IJ)-pairs Skipped                        ...         0 
TOTAL TIME for half transformation         ...     0.181 sec
AO-integral generation                     ...     0.000 sec
Half transformation                        ...     0.000 sec
K-integral sorting                         ...     0.084 sec
<ss|**>: 
------------------------------
PARTIAL COULOMB TRANSFORMATION
------------------------------

Transformation type                        ... two-operators
Dimension of the basis                     ...   57
Number of internal alpha-MOs               ...    4 (1-4)
Number of internal beta-MOs                ...    3 (1-3)
Pair cutoff                                ... 0.000e+00 Eh
Number of AO pairs included in the trafo   ... 1653
Total Number of distinct AO pairs          ... 1653
Memory devoted for trafo                   ... 2500.0 MB 
Max. Number of MO pairs treated together   ... 198233      
Max. Number of MOs treated per batch       ... 3477      
Number Format for Storage                  ... Double (8 Byte)
AO-integral source                         ... DIRECT
Integral package used                      ... LIBINT

Starting integral evaluation:
<sp|**>:         4284 b        0 skpd     0.001 s (  0.000 ms/b)
<sd|**>:         4284 b        0 skpd     0.003 s (  0.001 ms/b)
<sf|**>:         3213 b        0 skpd     0.001 s (  0.000 ms/b)
<sg|**>:         2142 b        0 skpd     0.003 s (  0.001 ms/b)
<pp|**>:         1071 b        0 skpd     0.005 s (  0.005 ms/b)
<pd|**>:         1530 b        0 skpd     0.005 s (  0.003 ms/b)
<pf|**>:         1836 b        0 skpd     0.002 s (  0.001 ms/b)
        1224 b        0 skpd     0.004 s (  0.003 ms/b)
<pg|**>: <dd|**>:          612 b        0 skpd     0.007 s (  0.012 ms/b)
         918 b        0 skpd     0.002 s (  0.002 ms/b)
<df|**>:          918 b        0 skpd     0.003 s (  0.004 ms/b)
<dg|**>:          459 b        0 skpd     0.005 s (  0.010 ms/b)
<ff|**>:          459 b        0 skpd     0.006 s (  0.013 ms/b)
<fg|**>:          306 b        0 skpd     0.008 s (  0.027 ms/b)
<gg|**>:          153 b        0 skpd     0.012 s (  0.078 ms/b)
Closing buffer AOJ[aa] ( 0.00 GB; CompressionRatio= 0.87)
Closing buffer AOJ[bb] ( 0.00 GB; CompressionRatio= 0.00)
Collecting buffer AOJ 
    ... done with AO integral generation
Number of Alpha-MO pairs included          ...   10
Number of Beta-MO pairs included           ...    6
    ... Now sorting integrals
SORTING ALPHA/ALPHA PAIRS
IBATCH = 1 of  1
Closing buffer JAO[aa] ( 0.00 GB; CompressionRatio= 1.00)
SORTING BETA/BETA PAIRS
IBATCH = 1 of  1
Closing buffer JAO[bb] ( 0.00 GB; CompressionRatio= 1.00)
Collecting buffer JAO 
TOTAL TIME for half transformation         ...     0.080 sec
AO-integral generation                     ...     0.067 sec
Half transformation                        ...     0.001 sec
J-integral sorting                         ...     0.010 sec

-------------------------- SECOND HALF TRANSFORMATION -------------------------
Formation of (ij|kl),(ij|ka), (ij|ab)      ... ok (     0.009 sec)
Formation of (ik|jl),(ik|ja), (ia|jb)      ... ok (     0.012 sec)


-----------------------
SPIN UNRESTRICTED GUESS
-----------------------

Entering MDCI_UHF_Guess, Tailored=0
Spin-components of the MP2 energy:
EMP2(aa)=     -0.034886892
EMP2(bb)=     -0.016563110
EMP2(ab)=     -0.168746760

Initial guess performed in     0.002 sec
E(0)                                       ...    -99.415886982
E(MP2)                                     ...     -0.220196762
Initial E(tot)                             ...    -99.636083744
<T|T>                                      ...      0.033176656
Number of pairs included                   ... 21

------------------------------------------------
                  UHF COUPLED CLUSTER ITERATIONS
------------------------------------------------

Number of amplitudes to be optimized       ...        45579

Iter       E(tot)           E(Corr)          Delta-E          Residual     Time      <S|S>**1/2
  0    -99.636083744     -0.220196762      0.000000000      0.017597812    0.10      0.000000025
                           *** Turning on DIIS ***
  1    -99.643023443     -0.227136461     -0.006939699      0.005885848    0.12      0.012055380
  2    -99.645898298     -0.230011316     -0.002874855      0.002450692    0.12      0.015017342
  3    -99.646401821     -0.230514839     -0.000503523      0.001180126    0.12      0.016769593
  4    -99.646518765     -0.230631783     -0.000116944      0.000507150    0.13      0.017271083
  5    -99.646535749     -0.230648767     -0.000016984      0.000125071    0.13      0.017361586
  6    -99.646539331     -0.230652349     -0.000003582      0.000027581    0.12      0.017333351
  7    -99.646538552     -0.230651570      0.000000779      0.000006721    0.12      0.017317695
  8    -99.646538672     -0.230651690     -0.000000121      0.000002688    0.12      0.017315842
  9    -99.646538715     -0.230651732     -0.000000042      0.000000661    0.12      0.017315962
               --- The Coupled-Cluster iterations have converged ---

----------------------
COUPLED CLUSTER ENERGY
----------------------

E(0)                                       ...    -99.415886982
E(CORR)                                    ...     -0.230651732
E(TOT)                                     ...    -99.646538715
Singles norm <S|S>**1/2                    ...      0.017315962 ( 0.011090390, 0.006225572)  
T1 diagnostic                              ...      0.006544818                              

------------------
LARGEST AMPLITUDES
------------------
   2a->  9a   1b->  4b       0.026658
   3a-> 10a   1b->  4b       0.018749
   4a-> 11a   1b->  4b       0.018749
   4a->  6a   3b->  6b       0.016829
   3a->  7a   2b->  5b       0.016829
   3a-> 15a   3b-> 14b       0.016750
   4a-> 16a   2b-> 15b       0.016750
   3b->  9b   2b-> 10b       0.016615
   3b-> 10b   2b->  9b       0.016615
   3a-> 15a   2b-> 14b       0.016356
   4a-> 16a   3b-> 15b       0.016356
   4a-> 13a   3a-> 12a       0.016235
   4a-> 12a   3a-> 13a       0.016235
   2a-> 14a   1b->  8b       0.015577
   3a->  7a   3b->  6b       0.015253
   4a->  6a   2b->  5b       0.015253

----------------------
UHF TRIPLES CORRECTION (Algorithm 1)
----------------------

Multiplier for the singles contribution    ...      1.000000000

SPIN-CASE Alpha-Alpha-Alpha:
10% done
20% done
30% done
40% done
50% done
60% done
70% done
80% done
90% done


SPIN-CASE Beta-Beta-Beta:
10% done
20% done
30% done
40% done
50% done
60% done
70% done
80% done
90% done


SPIN-CASE Alpha-Alpha-Beta:
10% done
20% done
30% done
40% done
50% done
60% done
70% done
80% done
90% done


SPIN-CASE Beta-Beta-Alpha:
10% done
20% done
30% done
40% done
50% done
60% done
70% done
80% done
90% done


Triples Correction (T)                     ...     -0.004640851
    alpha-alpha-alpha ... -0.000167799 (  3.6%)
    alpha-alpha-beta  ... -0.002708245 ( 58.4%)
    alpha-beta -beta  ... -0.001729663 ( 37.3%)
    beta -beta -beta  ... -0.000035144 (  0.8%)
Scaling of triples based on CCSD energies (Peterson et al. Molecular Physics 113, 1551 (2015))
E(T*) = f*E(T) where f = E(F12-CCSD)/E(CCSD) 
f = CCSD (with F12)/ CCSD (without F12)    ...      1.000000000
Scaled triples correction (T)              ...     -0.004640851

Final correlation energy                   ...     -0.235292583
E(CCSD)                                    ...    -99.646538715
E(CCSD(T))                                 ...    -99.651179565



        !!!!!!!!!!!!!!!!!!!!!!!!!!!!!!!!!!!!!!!!!!!!!!!!!!!!!!!!!!!!!!!!!!!!!!!!!! 
        !  Warning: Densities are linearized densities                           !
        !!!!!!!!!!!!!!!!!!!!!!!!!!!!!!!!!!!!!!!!!!!!!!!!!!!!!!!!!!!!!!!!!!!!!!!!!! 

NORM  =      1.038524553 sqrt=     1.019080249
W(HF) =      0.962904533
------------------------------------------------------------------------------
                           ORCA POPULATION ANALYSIS
------------------------------------------------------------------------------
Input electron density              ... 72_F.mdcip
Input spin density                  ... 72_F.mdcir
BaseName (.gbw .S,...)              ... 72_F

                    ********************************
                    * MULLIKEN POPULATION ANALYSIS *
                    ********************************

------------------------------------------
MULLIKEN ATOMIC CHARGES AND SPIN DENSITIES
------------------------------------------
   0 F :    0.000000    1.000000
Sum of atomic charges       :    0.0000000
Sum of atomic spin densities:    1.0000000

---------------------------------------------------
MULLIKEN REDUCED ORBITAL CHARGES AND SPIN DENSITIES
---------------------------------------------------
CHARGE
  0 F s       :     3.991446  s :     3.991446
      pz      :     1.989488  p :     4.980214
      px      :     1.989488
      py      :     1.001237
      dz2     :     0.005020  d :     0.024701
      dxz     :     0.005086
      dyz     :     0.004853
      dx2y2   :     0.004888
      dxy     :     0.004853
      f0      :     0.000472  f :     0.003244
      f+1     :     0.000483
      f-1     :     0.000457
      f+2     :     0.000464
      f-2     :     0.000462
      f+3     :     0.000453
      f-3     :     0.000454
      g0      :     0.000050  g :     0.000395
      g+1     :     0.000058
      g-1     :     0.000040
      g+2     :     0.000046
      g-2     :     0.000046
      g+3     :     0.000042
      g-3     :     0.000042
      g+4     :     0.000035
      g-4     :     0.000035

SPIN
  0 F s       :     0.004564  s :     0.004564
      pz      :     0.000315  p :     0.989306
      px      :     0.000315
      py      :     0.988676
      dz2     :     0.000459  d :     0.005332
      dxz     :    -0.000151
      dyz     :     0.001672
      dx2y2   :     0.001680
      dxy     :     0.001672
      f0      :     0.000066  f :     0.000791
      f+1     :     0.000007
      f-1     :     0.000148
      f+2     :     0.000113
      f-2     :     0.000112
      f+3     :     0.000172
      f-3     :     0.000172
      g0      :     0.000000  g :     0.000008
      g+1     :    -0.000000
      g-1     :     0.000001
      g+2     :     0.000001
      g-2     :     0.000001
      g+3     :     0.000001
      g-3     :     0.000001
      g+4     :     0.000001
      g-4     :     0.000001


                     *******************************
                     * LOEWDIN POPULATION ANALYSIS *
                     *******************************

-----------------------------------------
LOEWDIN ATOMIC CHARGES AND SPIN DENSITIES
-----------------------------------------
   0 F :   -0.000000    1.000000

--------------------------------------------------
LOEWDIN REDUCED ORBITAL CHARGES AND SPIN DENSITIES
--------------------------------------------------
CHARGE
  0 F s       :     3.991446  s :     3.991446
      pz      :     1.989488  p :     4.980214
      px      :     1.989488
      py      :     1.001237
      dz2     :     0.005020  d :     0.024701
      dxz     :     0.005086
      dyz     :     0.004853
      dx2y2   :     0.004888
      dxy     :     0.004853
      f0      :     0.000472  f :     0.003244
      f+1     :     0.000483
      f-1     :     0.000457
      f+2     :     0.000464
      f-2     :     0.000462
      f+3     :     0.000453
      f-3     :     0.000454
      g0      :     0.000050  g :     0.000395
      g+1     :     0.000058
      g-1     :     0.000040
      g+2     :     0.000046
      g-2     :     0.000046
      g+3     :     0.000042
      g-3     :     0.000042
      g+4     :     0.000035
      g-4     :     0.000035

SPIN
  0 F s       :     0.004564  s :     0.004564
      pz      :     0.000315  p :     0.989306
      px      :     0.000315
      py      :     0.988676
      dz2     :     0.000459  d :     0.005332
      dxz     :    -0.000151
      dyz     :     0.001672
      dx2y2   :     0.001680
      dxy     :     0.001672
      f0      :     0.000066  f :     0.000791
      f+1     :     0.000007
      f-1     :     0.000148
      f+2     :     0.000113
      f-2     :     0.000112
      f+3     :     0.000172
      f-3     :     0.000172
      g0      :     0.000000  g :     0.000008
      g+1     :    -0.000000
      g-1     :     0.000001
      g+2     :     0.000001
      g-2     :     0.000001
      g+3     :     0.000001
      g-3     :     0.000001
      g+4     :     0.000001
      g-4     :     0.000001


                      *****************************
                      * MAYER POPULATION ANALYSIS *
                      *****************************

  NA   - Mulliken gross atomic population
  ZA   - Total nuclear charge
  QA   - Mulliken gross atomic charge
  VA   - Mayer's total valence
  BVA  - Mayer's bonded valence
  FA   - Mayer's free valence

  ATOM       NA         ZA         QA         VA         BVA        FA
  0 F      9.0000     9.0000     0.0000     1.2743     0.0000     1.2743





------------------------------------------------------------------------------- 
                                     TIMINGS                                   
------------------------------------------------------------------------------- 


Total execution time                   ...        1.810 sec

Fock Matrix Formation                  ...        0.066 sec (  3.7%)
Initial Guess                          ...        0.002 sec (  0.1%)
DIIS Solver                            ...        0.027 sec (  1.5%)
State Vector Update                    ...        0.002 sec (  0.1%)
Sigma-vector construction              ...        1.187 sec ( 65.6%)
  <D|H|D>(2-ext)                       ...        0.003 sec (  0.3% of sigma)
  <D|H|D>(4-ext)                       ...        0.607 sec ( 51.1% of sigma)
  <S|H|0>                              ...        0.007 sec (  0.6% of sigma)
  <D|H|S>(1-ext)                       ...        0.004 sec (  0.3% of sigma)
  Fock-dressing                        ...        0.378 sec ( 31.8% of sigma)
  (ij|ab),(ia|jb)-dressing             ...        0.119 sec ( 10.0% of sigma)
Total Time for computing (T)           ...        0.058 sec (  3.2% of ALL)
  I/O of integral and amplitudes       ...        0.018 sec ( 32.0% of (T))
  External N**7 contributions          ...        0.012 sec ( 20.7% of (T))
  Internal N**7 contributions          ...        0.004 sec (  6.2% of (T))
  N**6 triples energy contributions    ...        0.019 sec ( 33.0% of (T))


-------------------
EXTRAPOLATED ENERGY
-------------------


-----------------------------------------------------------------
                      EP1 - MDCI extrapolation:
-----------------------------------------------------------------
NOTE: We use as reference SCF energy, for the extrapolation, the one from the MDCI module and not the one 
from the SCF calculation. In case the first step is a DFT calculation these two might be different.

NOTE: For the SCF part we extrapolate based on the scheme proposed in J. Chem. Phys. 2008, 129, 184116
using the exponents from J. Chem. Theory Comput., 7, 33-43 (2011)

NOTE: For the correlation part we extrapolate based on the scheme proposed in J. Chem. Phys. 1997, 106, 9639
using the exponents from J. Chem. Theory Comput., 7, 33-43 (2011)


Alpha(3/4)     :  7.880 (SCF Extrapolation)
Beta(3/4)      :  2.970 (correlation extrapolation)

SCF energy with basis def2-TZVPP:                       -99.411798500
SCF energy with basis def2-QZVPP:                       -99.415886982
Extrapolated CBS SCF energy (3/4) :                     -99.416450124 (-0.000563142) 

MDCI energy with basis def2-TZVPP:                       -0.213258603
MDCI energy with basis def2-QZVPP:                       -0.235292583
Extrapolated CBS correlation energy (3/4) :              -0.251614038 (-0.016321455)

Estimated CBS total energy (3/4) :                      -99.668064163



-------------------------   --------------------
FINAL SINGLE POINT ENERGY       -99.668064162553
-------------------------   --------------------


                            ***************************************
                            *     ORCA property calculations      *
                            ***************************************

                                    ---------------------
                                    Active property flags
                                    ---------------------
   (+) Dipole Moment


------------------------------------------------------------------------------
                       ORCA ELECTRIC PROPERTIES CALCULATION
------------------------------------------------------------------------------

Dipole Moment Calculation                       ... on
Quadrupole Moment Calculation                   ... off
Polarizability Calculation                      ... off
GBWName                                         ... 72_F.gbw
Electron density file                           ... 72_F.scfp
The origin for moment calculation is the CENTER OF MASS  = ( 0.000000,  0.000000  0.000000)

-------------
DIPOLE MOMENT
-------------
                                X             Y             Z
Electronic contribution:     -0.00000       0.00000      -0.00000
Nuclear contribution   :      0.00000       0.00000       0.00000
                        -----------------------------------------
Total Dipole Moment    :     -0.00000       0.00000      -0.00000
                        -----------------------------------------
Magnitude (a.u.)       :      0.00000
Magnitude (Debye)      :      0.00000



--------------------
Rotational spectrum 
--------------------
 
Rotational constants in cm-1:     0.000000     0.000000     0.000000 
Rotational constants in MHz :     0.000000     0.000000     0.000000 

 Dipole components along the rotational axes: 
x,y,z [a.u.] :    -0.000000     0.000000    -0.000000 
x,y,z [Debye]:    -0.000000     0.000000    -0.000000 

 

                           *** MDCI DENSITY ***

------------------------------------------------------------------------------
                       ORCA ELECTRIC PROPERTIES CALCULATION
------------------------------------------------------------------------------

Dipole Moment Calculation                       ... on
Quadrupole Moment Calculation                   ... off
Polarizability Calculation                      ... off
GBWName                                         ... 72_F.gbw
Electron density file                           ... 72_F.mdcip
The origin for moment calculation is the CENTER OF MASS  = ( 0.000000,  0.000000  0.000000)

-------------
DIPOLE MOMENT
-------------
                                X             Y             Z
Electronic contribution:     -0.00000       0.00000      -0.00000
Nuclear contribution   :      0.00000       0.00000       0.00000
                        -----------------------------------------
Total Dipole Moment    :     -0.00000       0.00000      -0.00000
                        -----------------------------------------
Magnitude (a.u.)       :      0.00000
Magnitude (Debye)      :      0.00000



--------------------
Rotational spectrum 
--------------------
 
Rotational constants in cm-1:     0.000000     0.000000     0.000000 
Rotational constants in MHz :     0.000000     0.000000     0.000000 

 Dipole components along the rotational axes: 
x,y,z [a.u.] :    -0.000000     0.000000    -0.000000 
x,y,z [Debye]:    -0.000000     0.000000    -0.000000 

 

Timings for individual modules:

Sum of individual times         ...        8.120 sec (=   0.135 min)
GTO integral calculation        ...        1.370 sec (=   0.023 min)  16.9 %
SCF iterations                  ...        3.419 sec (=   0.057 min)  42.1 %
MDCI module                     ...        3.331 sec (=   0.056 min)  41.0 %
                             ****ORCA TERMINATED NORMALLY****
TOTAL RUN TIME: 0 days 0 hours 0 minutes 9 seconds 60 msec
