
                                 *****************
                                 * O   R   C   A *
                                 *****************

           --- An Ab Initio, DFT and Semiempirical electronic structure package ---

                  #######################################################
                  #                        -***-                        #
                  #          Department of theory and spectroscopy      #
                  #               Directorship: Frank Neese             #
                  #        Max Planck Institute fuer Kohlenforschung    #
                  #                Kaiser Wilhelm Platz 1               #
                  #                 D-45470 Muelheim/Ruhr               #
                  #                      Germany                        #
                  #                                                     #
                  #                  All rights reserved                #
                  #                        -***-                        #
                  #######################################################


                         Program Version 4.2.0 -  RELEASE  -


 With contributions from (in alphabetic order):
   Daniel Aravena         : Magnetic Suceptibility
   Michael Atanasov       : Ab Initio Ligand Field Theory (pilot matlab implementation)
   Alexander A. Auer      : GIAO ZORA, VPT2
   Ute Becker             : Parallelization
   Giovanni Bistoni       : ED, misc. LED, open-shell LED, HFLED
   Martin Brehm           : Molecular dynamics
   Dmytro Bykov           : SCF Hessian
   Vijay G. Chilkuri      : MRCI spin determinant printing, contributions to CSF-ICE
   Dipayan Datta          : RHF DLPNO-CCSD density
   Achintya Kumar Dutta   : EOM-CC, STEOM-CC
   Dmitry Ganyushin       : Spin-Orbit,Spin-Spin,Magnetic field MRCI
   Miquel Garcia          : C-PCM Hessian, Gaussian charge scheme
   Yang Guo               : DLPNO-NEVPT2, CIM, IAO-localization
   Andreas Hansen         : Spin unrestricted coupled pair/coupled cluster methods
   Benjamin Helmich-Paris : CASSCF linear response (MC-RPA)
   Lee Huntington         : MR-EOM, pCC
   Robert Izsak           : Overlap fitted RIJCOSX, COSX-SCS-MP3, EOM
   Christian Kollmar      : KDIIS, OOCD, Brueckner-CCSD(T), CCSD density
   Simone Kossmann        : Meta GGA functionals, TD-DFT gradient, OOMP2, MP2 Hessian
   Martin Krupicka        : AUTO-CI
   Lucas Lang             : DCDCAS
   Dagmar Lenk            : GEPOL surface, SMD
   Dimitrios Liakos       : Extrapolation schemes; Compound Job, initial MDCI parallelization
   Dimitrios Manganas     : Further ROCIS development; embedding schemes
   Dimitrios Pantazis     : SARC Basis sets
   Taras Petrenko         : DFT Hessian,TD-DFT gradient, ASA, ECA, R-Raman, ABS, FL, XAS/XES, NRVS
   Peter Pinski           : DLPNO-MP2, DLPNO-MP2 Gradient
   Christoph Reimann      : Effective Core Potentials
   Marius Retegan         : Local ZFS, SOC
   Christoph Riplinger    : Optimizer, TS searches, QM/MM, DLPNO-CCSD(T), (RO)-DLPNO pert. Triples
   Tobias Risthaus        : Range-separated hybrids, TD-DFT gradient, RPA, STAB
   Michael Roemelt        : Original ROCIS implementation
   Masaaki Saitow         : Open-shell DLPNO-CCSD energy and density
   Barbara Sandhoefer     : DKH picture change effects
   Avijit Sen             : IP-ROCIS
   Kantharuban Sivalingam : CASSCF convergence, NEVPT2, FIC-MRCI
   Bernardo de Souza      : ESD, SOC TD-DFT
   Georgi Stoychev        : AutoAux, RI-MP2 NMR
   Willem Van den Heuvel  : Paramagnetic NMR
   Boris Wezisla          : Elementary symmetry handling
   Frank Wennmohs         : Technical directorship


 We gratefully acknowledge several colleagues who have allowed us to
 interface, adapt or use parts of their codes:
   Stefan Grimme, W. Hujo, H. Kruse,             : VdW corrections, initial TS optimization,
                  C. Bannwarth                     DFT functionals, gCP, sTDA/sTD-DF
   Ed Valeev, F. Pavosevic, A. Kumar             : LibInt (2-el integral package), F12 methods
   Garnet Chan, S. Sharma, J. Yang, R. Olivares  : DMRG
   Ulf Ekstrom                                   : XCFun DFT Library
   Mihaly Kallay                                 : mrcc  (arbitrary order and MRCC methods)
   Andreas Klamt, Michael Diedenhofen            : otool_cosmo (COSMO solvation model)
   Jiri Pittner, Ondrej Demel                    : Mk-CCSD
   Frank Weinhold                                : gennbo (NPA and NBO analysis)
   Christopher J. Cramer and Donald G. Truhlar   : smd solvation model
   Lars Goerigk                                  : TD-DFT with DH, B97 family of functionals
   V. Asgeirsson, H. Jonsson                     : NEB implementation
   FAccTs GmbH                                   : IRC, NEB, NEB-TS, Multilevel, MM, QM/MM, CI optimization
   S Lehtola, MJT Oliveira, MAL Marques          : LibXC Library


 Your calculation uses the libint2 library for the computation of 2-el integrals
 For citations please refer to: http://libint.valeyev.net

 Your ORCA version has been built with support for libXC version: 4.2.3
 For citations please refer to: https://tddft.org/programs/libxc/

 This ORCA versions uses:
   CBLAS   interface :  Fast vector & matrix operations
   LAPACKE interface :  Fast linear algebra routines
   SCALAPACK package :  Parallel linear algebra routines


Your calculation utilizes the atom-pairwise dispersion correction
with the Becke-Johnson damping scheme (D3BJ)
Cite in your paper:
S.Grimme, S.Ehrlich, L.Goerigk, J Comput Chem, (2011), 32, 1456–1465 
S.Grimme, J.Antony, S.Ehrlich and H.Krieg, J.Chem.Phys., 132, (2010), 154104 
   

----- Orbital basis set information -----
Your calculation utilizes the basis: aug-cc-pVTZ 
    H, B-Ne : Obtained from the ccRepo (grant-hill.group.shef.ac.uk/ccrepo) Feb. 2017
              R. A. Kendall, T. H. Dunning, Jr., R. J. Harrison, J. Chem. Phys. 96, 6796 (1992)
         He : Obtained from the ccRepo (grant-hill.group.shef.ac.uk/ccrepo) Feb. 2017
              D. E. Woon, T. H. Dunning, Jr., J. Chem. Phys. 100, 2975 (1994)
  Li-Be, Na : Obtained from the ccRepo (grant-hill.group.shef.ac.uk/ccrepo) Feb. 2017
              B. P. Prascher, D. E. Woon, K. A. Peterson, T. H. Dunning, Jr., A. K. Wilson, Theor. Chem. Acc. 128, 69 (2011)
         Mg : Obtained from the Peterson Research Group Website (tyr0.chem.wsu.edu/~kipeters) Feb. 2017
              B. P. Prascher, D. E. Woon, K. A. Peterson, T. H. Dunning, Jr., A. K. Wilson, Theor. Chem. Acc. 128, 69 (2011)
      Al-Ar : Obtained from the ccRepo (grant-hill.group.shef.ac.uk/ccrepo) Feb. 2017
              D. E. Woon, T. H. Dunning, Jr., J. Chem. Phys. 98, 1358 (1993)
      Sc-Zn : Obtained from the ccRepo (grant-hill.group.shef.ac.uk/ccrepo) Feb. 2017
              N. B. Balabanov, K. A. Peterson, J. Chem. Phys. 123, 064107 (2005)
              N. B. Balabanov, K. A. Peterson, J. Chem. Phys. 125, 074110 (2006)
      Ga-Kr : Obtained from the ccRepo (grant-hill.group.shef.ac.uk/ccrepo) Feb. 2017
              A. K. Wilson, D. E. Woon, K. A. Peterson, T. H. Dunning, Jr., J. Chem. Phys. 110, 7667 (1999)
     Ag, Au : Obtained from the Peterson Research Group Website (tyr0.chem.wsu.edu/~kipeters) Feb. 2017
              K. A. Peterson, C. Puzzarini, Theor. Chem. Acc. 114, 283 (2005)

----- AuxJK basis set information -----
Your calculation utilizes the auxiliary basis: def2/JK
   H-Ba, Hf-Rn: F. Weigend, J. Comput. Chem. 29, 167 (2008).

================================================================================
                                        WARNINGS
                       Please study these warnings very carefully!
================================================================================


INFO   : the flag for use of LIBINT has been found!

================================================================================
                                       INPUT FILE
================================================================================
NAME = 03_ScCl.in
|  1> #
|  2> # 03_ScCl tpssh/aug-cc-pvtz
|  3> #
|  4> ! tpssh d3bj aug-cc-pvtz def2/jk grid4 nofinalgrid
|  5> 
|  6> *xyz 0 1
|  7>   Sc  0.00000000000000      0.00000000000000     -0.11786902866458
|  8>   Cl  0.00000000000000      0.00000000000000      2.11786902866458
|  9> *
| 10> 
| 11> %pal
| 12> nprocs 24
| 13> end
| 14> 
| 15> 
| 16>                          ****END OF INPUT****
================================================================================

                       ****************************
                       * Single Point Calculation *
                       ****************************

---------------------------------
CARTESIAN COORDINATES (ANGSTROEM)
---------------------------------
  Sc     0.000000    0.000000   -0.117869
  Cl     0.000000    0.000000    2.117869

----------------------------
CARTESIAN COORDINATES (A.U.)
----------------------------
  NO LB      ZA    FRAG     MASS         X           Y           Z
   0 Sc   21.0000    0    44.960    0.000000    0.000000   -0.222740
   1 Cl   17.0000    0    35.453    0.000000    0.000000    4.002192

--------------------------------
INTERNAL COORDINATES (ANGSTROEM)
--------------------------------
 Sc     0   0   0     0.000000000000     0.00000000     0.00000000
 Cl     1   0   0     2.235738057329     0.00000000     0.00000000

---------------------------
INTERNAL COORDINATES (A.U.)
---------------------------
 Sc     0   0   0     0.000000000000     0.00000000     0.00000000
 Cl     1   0   0     4.224932635537     0.00000000     0.00000000

---------------------
BASIS SET INFORMATION
---------------------
There are 2 groups of distinct atoms

 Group   1 Type Sc  : 116s77p23d3f2g contracted to 8s7p5d3f2g pattern {19191919191911/151515151511/77711/111/11}
 Group   2 Type Cl  : 42s17p3d2f contracted to 6s5p3d2f pattern {131313111/77111/111/11}

Atom   0Sc   basis set group =>   1
Atom   1Cl   basis set group =>   2
----------------------------------
AUXILIARY/JK BASIS SET INFORMATION
----------------------------------
There are 2 groups of distinct atoms

 Group   1 Type Sc  : 19s14p12d10f7g3h1i contracted to 16s13p11d9f5g3h1i pattern {4111111111111111/2111111111111/21111111111/211111111/31111/111/1}
 Group   2 Type Cl  : 16s12p10d4f1g contracted to 13s11p9d4f1g pattern {4111111111111/21111111111/211111111/1111/1}

Atom   0Sc   basis set group =>   1
Atom   1Cl   basis set group =>   2


           ************************************************************
           *        Program running with 24 parallel MPI-processes    *
           *              working on a common directory               *
           ************************************************************
------------------------------------------------------------------------------
                           ORCA GTO INTEGRAL CALCULATION
------------------------------------------------------------------------------

                         BASIS SET STATISTICS AND STARTUP INFO

 # of primitive gaussian shells          ...  285
 # of primitive gaussian functions       ...  623
 # of contracted shells                  ...   41
 # of contracted basis functions         ...  143
 Highest angular momentum                ...    4
 Maximum contraction depth               ...   19
 Integral package used                   ... LIBINT
 Integral threshhold            Thresh   ...  1.000e-10
 Primitive cut-off              TCut     ...  1.000e-11


------------------------------ INTEGRAL EVALUATION ----------------------------


 * One electron integrals 
 Pre-screening matrix                    ... done
 Shell pair data                         ... done (   0.001 sec)



           ************************************************************
           *        Program running with 24 parallel MPI-processes    *
           *              working on a common directory               *
           ************************************************************
-------------------------------------------------------------------------------
                                 ORCA SCF
-------------------------------------------------------------------------------

------------
SCF SETTINGS
------------
Hamiltonian:
 Density Functional     Method          .... DFT(GTOs)
 Exchange Functional    Exchange        .... TPSS
 Correlation Functional Correlation     .... TPSS
 LDA part of GGA corr.  LDAOpt          .... PW91-LDA
 Gradients option       PostSCFGGA      .... off
 Hybrid DFT is turned on
   Fraction HF Exchange ScalHFX         ....  0.100000
   Scaling of DF-GGA-X  ScalDFX         ....  0.900000
   Scaling of DF-GGA-C  ScalDFC         ....  1.000000
   Scaling of DF-LDA-C  ScalLDAC        ....  1.000000
   Perturbative correction              ....  0.000000
   Density functional embedding theory  .... OFF
   NL short-range parameter             ....  5.200000


General Settings:
 Integral files         IntName         .... 03_ScCl
 Hartree-Fock type      HFTyp           .... RHF
 Total Charge           Charge          ....    0
 Multiplicity           Mult            ....    1
 Number of Electrons    NEL             ....   38
 Basis Dimension        Dim             ....  143
 Nuclear Repulsion      ENuc            ....     84.4983886837 Eh

Convergence Acceleration:
 DIIS                   CNVDIIS         .... on
   Start iteration      DIISMaxIt       ....    12
   Startup error        DIISStart       ....  0.200000
   # of expansion vecs  DIISMaxEq       ....     5
   Bias factor          DIISBfac        ....   1.050
   Max. coefficient     DIISMaxC        ....  10.000
 Newton-Raphson         CNVNR           .... off
 SOSCF                  CNVSOSCF        .... off
 Level Shifting         CNVShift        .... on
   Level shift para.    LevelShift      ....    0.2500
   Turn off err/grad.   ShiftErr        ....    0.0010
 Zerner damping         CNVZerner       .... off
 Static damping         CNVDamp         .... on
   Fraction old density DampFac         ....    0.7000
   Max. Damping (<1)    DampMax         ....    0.9800
   Min. Damping (>=0)   DampMin         ....    0.0000
   Turn off err/grad.   DampErr         ....    0.1000
 Fernandez-Rico         CNVRico         .... off

SCF Procedure:
 Maximum # iterations   MaxIter         ....   125
 SCF integral mode      SCFMode         .... Direct
   Integral package                     .... LIBINT
 Reset frequency        DirectResetFreq ....    20
 Integral Threshold     Thresh          ....  1.000e-10 Eh
 Primitive CutOff       TCut            ....  1.000e-11 Eh

Convergence Tolerance:
 Convergence Check Mode ConvCheckMode   .... Total+1el-Energy
 Convergence forced     ConvForced      .... 0
 Energy Change          TolE            ....  1.000e-06 Eh
 1-El. energy change                    ....  1.000e-03 Eh
 DIIS Error             TolErr          ....  1.000e-06


Diagonalization of the overlap matrix:
Smallest eigenvalue                        ... 7.146e-05
Time for diagonalization                   ...    0.006 sec
Threshold for overlap eigenvalues          ... 1.000e-08
Number of eigenvalues below threshold      ... 0
Time for construction of square roots      ...    0.002 sec
Total time needed                          ...    0.008 sec

-------------------
DFT GRID GENERATION
-------------------

General Integration Accuracy     IntAcc      ...  4.670
Radial Grid Type                 RadialGrid  ... Gauss-Chebyshev
Angular Grid (max. acc.)         AngularGrid ... Lebedev-302
Angular grid pruning method      GridPruning ... 3 (G Style)
Weight generation scheme         WeightScheme... Becke
Basis function cutoff            BFCut       ...    1.0000e-10
Integration weight cutoff        WCut        ...    1.0000e-14
Grids for H and He will be reduced by one unit

# of grid points (after initial pruning)     ...  16402 (   0.0 sec)
# of grid points (after weights+screening)   ...  16374 (   0.0 sec)
nearest neighbour list constructed           ...    0.0 sec
Grid point re-assignment to atoms done       ...    0.0 sec
Grid point division into batches done        ...    0.1 sec
Reduced shell lists constructed in    0.1 sec

Total number of grid points                  ...    16374
Total number of batches                      ...      256
Average number of points per batch           ...       63
Average number of grid points per atom       ...     8187
Average number of shells per batch           ...    20.50 (50.00%)
Average number of basis functions per batch  ...    65.67 (45.92%)
Average number of large shells per batch     ...    13.42 (65.45%)
Average number of large basis fcns per batch ...    44.25 (67.39%)
Maximum spatial batch extension              ...  26.53, 26.21, 19.04 au
Average spatial batch extension              ...   0.92,  0.91,  0.70 au

Time for grid setup =    0.160 sec

------------------------------
INITIAL GUESS: MODEL POTENTIAL
------------------------------
Loading Hartree-Fock densities                     ... done
Calculating cut-offs                               ... done
Setting up the integral package                    ... done
Initializing the effective Hamiltonian             ... done
Starting the Coulomb interaction                   ... done (   0.0 sec)
Reading the grid                                   ... done
Mapping shells                                     ... done
Starting the XC term evaluation                    ... done (   0.0 sec)
  promolecular density results
     # of electrons  =     37.999999458
     EX              =    -65.248122220
     EC              =     -1.497527614
     EX+EC           =    -66.745649834
Transforming the Hamiltonian                       ... done (   0.0 sec)
Diagonalizing the Hamiltonian                      ... done (   0.0 sec)
Back transforming the eigenvectors                 ... done (   0.0 sec)
Now organizing SCF variables                       ... done
                      ------------------
                      INITIAL GUESS DONE (   0.3 sec)
                      ------------------
--------------
SCF ITERATIONS
--------------
ITER       Energy         Delta-E        Max-DP      RMS-DP      [F,P]     Damp
               ***  Starting incremental Fock matrix formation  ***
  0  -1220.9370913132   0.000000000000 0.09391565  0.00192567  0.0976010 0.7000
  1  -1220.9529280049  -0.015836691703 0.08070232  0.00153177  0.0500425 0.7000
                               ***Turning on DIIS***
  2  -1220.9595240786  -0.006596073716 0.22440470  0.00367721  0.0180545 0.0000
  3  -1220.9687376760  -0.009213597412 0.07094212  0.00120574  0.0299021 0.0000
  4  -1220.9719736322  -0.003235956206 0.07870883  0.00136598  0.0104125 0.0000
  5  -1220.9723398459  -0.000366213679 0.03761446  0.00061752  0.0027470 0.0000
  6  -1220.9724166291  -0.000076783199 0.03918600  0.00050979  0.0018908 0.0000
  7  -1220.9724527795  -0.000036150389 0.02398469  0.00030921  0.0013641 0.0000
  8  -1220.9724712062  -0.000018426734 0.03981393  0.00050616  0.0009533 0.0000
  9  -1220.9724893416  -0.000018135422 0.00601132  0.00011367  0.0012726 0.0000
 10  -1220.9724926214  -0.000003279771 0.00138182  0.00003185  0.0004234 0.0000
                 **** Energy Check signals convergence ****

               *****************************************************
               *                     SUCCESS                       *
               *           SCF CONVERGED AFTER  11 CYCLES          *
               *****************************************************


----------------
TOTAL SCF ENERGY
----------------

Total Energy       :        -1220.97249329 Eh          -33224.35064 eV

Components:
Nuclear Repulsion  :           84.49838868 Eh            2299.31805 eV
Electronic Energy  :        -1305.47088198 Eh          -35523.66869 eV
One Electron Energy:        -1844.44907106 Eh          -50190.01083 eV
Two Electron Energy:          538.97818909 Eh           14666.34215 eV

Virial components:
Potential Energy   :        -2439.56339080 Eh          -66383.89476 eV
Kinetic Energy     :         1218.59089751 Eh           33159.54412 eV
Virial Ratio       :            2.00195439


DFT components:
N(Alpha)           :       18.999992130093 electrons
N(Beta)            :       18.999992130093 electrons
N(Total)           :       37.999984260186 electrons
E(X)               :      -59.149265077851 Eh       
E(C)               :       -1.512044685289 Eh       
E(XC)              :      -60.661309763140 Eh       
DFET-embed. en.    :        0.000000000000 Eh       

---------------
SCF CONVERGENCE
---------------

  Last Energy change         ...   -6.7254e-07  Tolerance :   1.0000e-06
  Last MAX-Density change    ...    7.0397e-04  Tolerance :   1.0000e-05
  Last RMS-Density change    ...    1.3990e-05  Tolerance :   1.0000e-06
  Last DIIS Error            ...    1.1954e-04  Tolerance :   1.0000e-06

             **** THE GBW FILE WAS UPDATED (03_ScCl.gbw) ****
             **** DENSITY FILE WAS UPDATED (03_ScCl.scfp) ****
             **** ENERGY FILE WAS UPDATED (03_ScCl.en.tmp) ****
             **** THE GBW FILE WAS UPDATED (03_ScCl.gbw) ****
             **** DENSITY FILE WAS UPDATED (03_ScCl.scfp) ****
----------------
ORBITAL ENERGIES
----------------

  NO   OCC          E(Eh)            E(eV) 
   0   2.0000    -161.578393     -4396.7716 
   1   2.0000    -101.388975     -2758.9343 
   2   2.0000     -17.565891      -477.9922 
   3   2.0000     -14.474319      -393.8663 
   4   2.0000     -14.474319      -393.8663 
   5   2.0000     -14.459326      -393.4583 
   6   2.0000      -9.368591      -254.9323 
   7   2.0000      -7.111777      -193.5213 
   8   2.0000      -7.110904      -193.4975 
   9   2.0000      -7.110904      -193.4975 
  10   2.0000      -2.121410       -57.7265 
  11   2.0000      -1.321843       -35.9692 
  12   2.0000      -1.321843       -35.9692 
  13   2.0000      -1.308551       -35.6075 
  14   2.0000      -0.770612       -20.9694 
  15   2.0000      -0.343614        -9.3502 
  16   2.0000      -0.316398        -8.6096 
  17   2.0000      -0.316398        -8.6096 
  18   2.0000      -0.165911        -4.5147 
  19   0.0000      -0.123929        -3.3723 
  20   0.0000      -0.123925        -3.3722 
  21   0.0000      -0.102081        -2.7778 
  22   0.0000      -0.102081        -2.7778 
  23   0.0000      -0.091354        -2.4859 
  24   0.0000      -0.038482        -1.0472 
  25   0.0000      -0.038482        -1.0472 
  26   0.0000       0.001109         0.0302 
  27   0.0000       0.002925         0.0796 
  28   0.0000       0.018480         0.5029 
  29   0.0000       0.018480         0.5029 
  30   0.0000       0.023388         0.6364 
  31   0.0000       0.023391         0.6365 
  32   0.0000       0.025514         0.6943 
  33   0.0000       0.025625         0.6973 
  34   0.0000       0.025625         0.6973 
  35   0.0000       0.045441         1.2365 
  36   0.0000       0.077004         2.0954 
  37   0.0000       0.085258         2.3200 
  38   0.0000       0.085261         2.3201 
  39   0.0000       0.091561         2.4915 
  40   0.0000       0.091684         2.4948 
  41   0.0000       0.091684         2.4948 
  42   0.0000       0.101266         2.7556 
  43   0.0000       0.101266         2.7556 
  44   0.0000       0.109187         2.9711 
  45   0.0000       0.111623         3.0374 
  46   0.0000       0.111624         3.0374 
  47   0.0000       0.119261         3.2453 
  48   0.0000       0.119261         3.2453 
  49   0.0000       0.122055         3.3213 
  50   0.0000       0.122055         3.3213 
  51   0.0000       0.148059         4.0289 
  52   0.0000       0.163349         4.4450 
  53   0.0000       0.163349         4.4450 
  54   0.0000       0.184689         5.0256 
  55   0.0000       0.260064         7.0767 
  56   0.0000       0.274677         7.4743 
  57   0.0000       0.274678         7.4744 
  58   0.0000       0.309982         8.4350 
  59   0.0000       0.309982         8.4350 
  60   0.0000       0.333437         9.0733 
  61   0.0000       0.333441         9.0734 
  62   0.0000       0.349485         9.5100 
  63   0.0000       0.357845         9.7375 
  64   0.0000       0.372818        10.1449 
  65   0.0000       0.372818        10.1449 
  66   0.0000       0.394357        10.7310 
  67   0.0000       0.394357        10.7310 
  68   0.0000       0.399562        10.8726 
  69   0.0000       0.399568        10.8728 
  70   0.0000       0.406196        11.0531 
  71   0.0000       0.413607        11.2548 
  72   0.0000       0.413610        11.2549 
  73   0.0000       0.422668        11.5014 
  74   0.0000       0.422668        11.5014 
  75   0.0000       0.451685        12.2910 
  76   0.0000       0.460639        12.5346 
  77   0.0000       0.460639        12.5346 
  78   0.0000       0.496069        13.4987 
  79   0.0000       0.496069        13.4987 
  80   0.0000       0.569182        15.4882 
  81   0.0000       0.569182        15.4882 
  82   0.0000       0.575383        15.6570 
  83   0.0000       0.575384        15.6570 
  84   0.0000       0.583735        15.8842 
  85   0.0000       0.726284        19.7632 
  86   0.0000       0.726284        19.7632 
  87   0.0000       0.762146        20.7390 
  88   0.0000       0.772971        21.0336 
  89   0.0000       0.772975        21.0337 
  90   0.0000       0.850038        23.1307 
  91   0.0000       0.911201        24.7950 
  92   0.0000       0.911201        24.7950 
  93   0.0000       0.970841        26.4179 
  94   0.0000       1.054743        28.7010 
  95   0.0000       1.054743        28.7010 
  96   0.0000       1.178771        32.0760 
  97   0.0000       1.198454        32.6116 
  98   0.0000       1.198475        32.6121 
  99   0.0000       1.226397        33.3720 
 100   0.0000       1.226397        33.3720 
 101   0.0000       1.301374        35.4122 
 102   0.0000       1.301380        35.4123 
 103   0.0000       1.322435        35.9853 
 104   0.0000       1.514812        41.2201 
 105   0.0000       1.514812        41.2201 
 106   0.0000       1.603748        43.6402 
 107   0.0000       1.603748        43.6402 
 108   0.0000       1.633764        44.4570 
 109   0.0000       1.797007        48.8991 
 110   0.0000       1.797011        48.8992 
 111   0.0000       1.802482        49.0480 
 112   0.0000       1.802482        49.0480 
 113   0.0000       1.822280        49.5868 
 114   0.0000       1.893700        51.5302 
 115   0.0000       1.893728        51.5310 
 116   0.0000       1.894882        51.5623 
 117   0.0000       2.000403        54.4337 
 118   0.0000       2.000403        54.4337 
 119   0.0000       2.032935        55.3190 
 120   0.0000       2.032943        55.3192 
 121   0.0000       2.033231        55.3270 
 122   0.0000       2.033231        55.3270 
 123   0.0000       2.101012        57.1715 
 124   0.0000       2.143440        58.3260 
 125   0.0000       2.143440        58.3260 
 126   0.0000       2.272412        61.8355 
 127   0.0000       2.272760        61.8449 
 128   0.0000       2.291486        62.3545 
 129   0.0000       2.372451        64.5577 
 130   0.0000       2.372451        64.5577 
 131   0.0000       2.594073        70.5883 
 132   0.0000       2.594073        70.5883 
 133   0.0000       2.628417        71.5229 
 134   0.0000       2.786499        75.8245 
 135   0.0000       2.786499        75.8245 
 136   0.0000       2.880074        78.3708 
 137   0.0000       2.880159        78.3731 
 138   0.0000       2.910017        79.1856 
 139   0.0000       2.997593        81.5687 
 140   0.0000       2.997593        81.5687 
 141   0.0000       3.436133        93.5019 
 142   0.0000       6.211991       169.0369 

                    ********************************
                    * MULLIKEN POPULATION ANALYSIS *
                    ********************************

-----------------------
MULLIKEN ATOMIC CHARGES
-----------------------
   0 Sc:    0.347078
   1 Cl:   -0.347078
Sum of atomic charges:   -0.0000000

--------------------------------
MULLIKEN REDUCED ORBITAL CHARGES
--------------------------------
  0 Scs       :     7.392167  s :     7.392167
      pz      :     4.104391  p :    12.166378
      px      :     4.030993
      py      :     4.030993
      dz2     :     0.792236  d :     1.049456
      dxz     :     0.128610
      dyz     :     0.128610
      dx2y2   :     0.000000
      dxy     :     0.000000
      f0      :     0.007110  f :     0.035759
      f+1     :     0.014325
      f-1     :     0.014325
      f+2     :     0.000000
      f-2     :     0.000000
      f+3     :     0.000000
      f-3     :     0.000000
      g0      :    -0.000438  g :     0.009161
      g+1     :     0.004799
      g-1     :     0.004799
      g+2     :     0.000000
      g-2     :    -0.000000
      g+3     :     0.000000
      g-3     :     0.000000
      g+4     :     0.000000
      g-4     :     0.000000
  1 Cls       :     6.006367  s :     6.006367
      pz      :     3.688751  p :    11.319443
      px      :     3.815346
      py      :     3.815346
      dz2     :     0.006408  d :     0.016183
      dxz     :     0.004888
      dyz     :     0.004888
      dx2y2   :     0.000000
      dxy     :     0.000000
      f0      :     0.003008  f :     0.005085
      f+1     :     0.001039
      f-1     :     0.001039
      f+2     :     0.000000
      f-2     :    -0.000000
      f+3     :     0.000000
      f-3     :     0.000000


                     *******************************
                     * LOEWDIN POPULATION ANALYSIS *
                     *******************************

----------------------
LOEWDIN ATOMIC CHARGES
----------------------
   0 Sc:   -0.153122
   1 Cl:    0.153122

-------------------------------
LOEWDIN REDUCED ORBITAL CHARGES
-------------------------------
  0 Scs       :     7.163368  s :     7.163368
      pz      :     4.166369  p :    12.180245
      px      :     4.006938
      py      :     4.006938
      dz2     :     0.932338  d :     1.306084
      dxz     :     0.186873
      dyz     :     0.186873
      dx2y2   :     0.000000
      dxy     :     0.000000
      f0      :     0.119359  f :     0.293352
      f+1     :     0.086997
      f-1     :     0.086997
      f+2     :     0.000000
      f-2     :     0.000000
      f+3     :     0.000000
      f-3     :     0.000000
      g0      :     0.073698  g :     0.210074
      g+1     :     0.068188
      g-1     :     0.068188
      g+2     :     0.000000
      g-2     :     0.000000
      g+3     :     0.000000
      g-3     :     0.000000
      g+4     :     0.000000
      g-4     :     0.000000
  1 Cls       :     5.564965  s :     5.564965
      pz      :     3.785227  p :    11.003743
      px      :     3.609258
      py      :     3.609258
      dz2     :     0.139583  d :     0.199108
      dxz     :     0.029763
      dyz     :     0.029763
      dx2y2   :     0.000000
      dxy     :     0.000000
      f0      :     0.055093  f :     0.079061
      f+1     :     0.011984
      f-1     :     0.011984
      f+2     :     0.000000
      f-2     :     0.000000
      f+3     :     0.000000
      f-3     :     0.000000


                      *****************************
                      * MAYER POPULATION ANALYSIS *
                      *****************************

  NA   - Mulliken gross atomic population
  ZA   - Total nuclear charge
  QA   - Mulliken gross atomic charge
  VA   - Mayer's total valence
  BVA  - Mayer's bonded valence
  FA   - Mayer's free valence

  ATOM       NA         ZA         QA         VA         BVA        FA
  0 Sc    20.6529    21.0000     0.3471     1.3654     1.3654    -0.0000
  1 Cl    17.3471    17.0000    -0.3471     1.3654     1.3654    -0.0000

  Mayer bond orders larger than 0.100000
B(  0-Sc,  1-Cl) :   1.3654 

-------
TIMINGS
-------

Total SCF time: 0 days 0 hours 1 min 35 sec 

Total time                  ....      95.984 sec
Sum of individual times     ....      95.652 sec  ( 99.7%)

Fock matrix formation       ....      95.335 sec  ( 99.3%)
  XC integration            ....       0.310 sec  (  0.3% of F)
    Basis function eval.    ....       0.062 sec  ( 20.0% of XC)
    Density eval.           ....       0.044 sec  ( 14.2% of XC)
    XC-Functional eval.     ....       0.016 sec  (  5.0% of XC)
    XC-Potential eval.      ....       0.109 sec  ( 35.3% of XC)
Diagonalization             ....       0.034 sec  (  0.0%)
Density matrix formation    ....       0.004 sec  (  0.0%)
Population analysis         ....       0.003 sec  (  0.0%)
Initial guess               ....       0.100 sec  (  0.1%)
Orbital Transformation      ....       0.000 sec  (  0.0%)
Orbital Orthonormalization  ....       0.000 sec  (  0.0%)
DIIS solution               ....       0.016 sec  (  0.0%)
Grid generation             ....       0.160 sec  (  0.2%)


-------------------------------------------------------------------------------
                          DFT DISPERSION CORRECTION                            
                                                                               
                              DFTD3 V3.1  Rev 1                                
                          USING Becke-Johnson damping                          
-------------------------------------------------------------------------------
The TPSSH functional is recognized
Active option DFTDOPT                   ...         4   

molecular C6(AA) [au] = 1033.068606 


            DFT-D V3
 parameters
 s6 scaling factor         :     1.0000 
 a1 scaling factor         :     0.4529 
 s8 scaling factor         :     2.2382 
 a2 scaling factor         :     4.6550 
 ad hoc parameters k1-k3   :    16.0000     1.3333    -4.0000 

 Edisp/kcal,au: -1.035615446844  -0.001650358089 
 E6   /kcal   :  -0.314881427 
 E8   /kcal   :  -0.720734020 
 % E8         :  69.594753729 

-------------------------   ----------------
Dispersion correction           -0.001650358
-------------------------   ----------------


-------------------------   --------------------
FINAL SINGLE POINT ENERGY     -1220.974143652032
-------------------------   --------------------


                            ***************************************
                            *     ORCA property calculations      *
                            ***************************************

                                    ---------------------
                                    Active property flags
                                    ---------------------
   (+) Dipole Moment


------------------------------------------------------------------------------
                       ORCA ELECTRIC PROPERTIES CALCULATION
------------------------------------------------------------------------------

Dipole Moment Calculation                       ... on
Quadrupole Moment Calculation                   ... off
Polarizability Calculation                      ... off
GBWName                                         ... 03_ScCl.gbw
Electron density file                           ... 03_ScCl.scfp
The origin for moment calculation is the CENTER OF MASS  = ( 0.000000,  0.000000  1.639975)

-------------
DIPOLE MOMENT
-------------
                                X             Y             Z
Electronic contribution:      0.00000      -0.00000      -2.16232
Nuclear contribution   :      0.00000       0.00000       1.04067
                        -----------------------------------------
Total Dipole Moment    :      0.00000      -0.00000      -1.12165
                        -----------------------------------------
Magnitude (a.u.)       :      1.12165
Magnitude (Debye)      :      2.85100



--------------------
Rotational spectrum 
--------------------
 
Rotational constants in cm-1:     0.000000     0.170138     0.170138 
Rotational constants in MHz :     0.000000  5100.617263  5100.617263 

 Dipole components along the rotational axes: 
x,y,z [a.u.] :    -1.121648    -0.000000     0.000000 
x,y,z [Debye]:    -2.851002    -0.000000     0.000000 

 

Timings for individual modules:

Sum of individual times         ...       99.997 sec (=   1.667 min)
GTO integral calculation        ...        3.606 sec (=   0.060 min)   3.6 %
SCF iterations                  ...       96.391 sec (=   1.607 min)  96.4 %
                             ****ORCA TERMINATED NORMALLY****
TOTAL RUN TIME: 0 days 0 hours 1 minutes 40 seconds 646 msec
