
                                 *****************
                                 * O   R   C   A *
                                 *****************

           --- An Ab Initio, DFT and Semiempirical electronic structure package ---

                  #######################################################
                  #                        -***-                        #
                  #          Department of theory and spectroscopy      #
                  #               Directorship: Frank Neese             #
                  #        Max Planck Institute fuer Kohlenforschung    #
                  #                Kaiser Wilhelm Platz 1               #
                  #                 D-45470 Muelheim/Ruhr               #
                  #                      Germany                        #
                  #                                                     #
                  #                  All rights reserved                #
                  #                        -***-                        #
                  #######################################################


                         Program Version 4.2.0 -  RELEASE  -


 With contributions from (in alphabetic order):
   Daniel Aravena         : Magnetic Suceptibility
   Michael Atanasov       : Ab Initio Ligand Field Theory (pilot matlab implementation)
   Alexander A. Auer      : GIAO ZORA, VPT2
   Ute Becker             : Parallelization
   Giovanni Bistoni       : ED, misc. LED, open-shell LED, HFLED
   Martin Brehm           : Molecular dynamics
   Dmytro Bykov           : SCF Hessian
   Vijay G. Chilkuri      : MRCI spin determinant printing, contributions to CSF-ICE
   Dipayan Datta          : RHF DLPNO-CCSD density
   Achintya Kumar Dutta   : EOM-CC, STEOM-CC
   Dmitry Ganyushin       : Spin-Orbit,Spin-Spin,Magnetic field MRCI
   Miquel Garcia          : C-PCM Hessian, Gaussian charge scheme
   Yang Guo               : DLPNO-NEVPT2, CIM, IAO-localization
   Andreas Hansen         : Spin unrestricted coupled pair/coupled cluster methods
   Benjamin Helmich-Paris : CASSCF linear response (MC-RPA)
   Lee Huntington         : MR-EOM, pCC
   Robert Izsak           : Overlap fitted RIJCOSX, COSX-SCS-MP3, EOM
   Christian Kollmar      : KDIIS, OOCD, Brueckner-CCSD(T), CCSD density
   Simone Kossmann        : Meta GGA functionals, TD-DFT gradient, OOMP2, MP2 Hessian
   Martin Krupicka        : AUTO-CI
   Lucas Lang             : DCDCAS
   Dagmar Lenk            : GEPOL surface, SMD
   Dimitrios Liakos       : Extrapolation schemes; Compound Job, initial MDCI parallelization
   Dimitrios Manganas     : Further ROCIS development; embedding schemes
   Dimitrios Pantazis     : SARC Basis sets
   Taras Petrenko         : DFT Hessian,TD-DFT gradient, ASA, ECA, R-Raman, ABS, FL, XAS/XES, NRVS
   Peter Pinski           : DLPNO-MP2, DLPNO-MP2 Gradient
   Christoph Reimann      : Effective Core Potentials
   Marius Retegan         : Local ZFS, SOC
   Christoph Riplinger    : Optimizer, TS searches, QM/MM, DLPNO-CCSD(T), (RO)-DLPNO pert. Triples
   Tobias Risthaus        : Range-separated hybrids, TD-DFT gradient, RPA, STAB
   Michael Roemelt        : Original ROCIS implementation
   Masaaki Saitow         : Open-shell DLPNO-CCSD energy and density
   Barbara Sandhoefer     : DKH picture change effects
   Avijit Sen             : IP-ROCIS
   Kantharuban Sivalingam : CASSCF convergence, NEVPT2, FIC-MRCI
   Bernardo de Souza      : ESD, SOC TD-DFT
   Georgi Stoychev        : AutoAux, RI-MP2 NMR
   Willem Van den Heuvel  : Paramagnetic NMR
   Boris Wezisla          : Elementary symmetry handling
   Frank Wennmohs         : Technical directorship


 We gratefully acknowledge several colleagues who have allowed us to
 interface, adapt or use parts of their codes:
   Stefan Grimme, W. Hujo, H. Kruse,             : VdW corrections, initial TS optimization,
                  C. Bannwarth                     DFT functionals, gCP, sTDA/sTD-DF
   Ed Valeev, F. Pavosevic, A. Kumar             : LibInt (2-el integral package), F12 methods
   Garnet Chan, S. Sharma, J. Yang, R. Olivares  : DMRG
   Ulf Ekstrom                                   : XCFun DFT Library
   Mihaly Kallay                                 : mrcc  (arbitrary order and MRCC methods)
   Andreas Klamt, Michael Diedenhofen            : otool_cosmo (COSMO solvation model)
   Jiri Pittner, Ondrej Demel                    : Mk-CCSD
   Frank Weinhold                                : gennbo (NPA and NBO analysis)
   Christopher J. Cramer and Donald G. Truhlar   : smd solvation model
   Lars Goerigk                                  : TD-DFT with DH, B97 family of functionals
   V. Asgeirsson, H. Jonsson                     : NEB implementation
   FAccTs GmbH                                   : IRC, NEB, NEB-TS, Multilevel, MM, QM/MM, CI optimization
   S Lehtola, MJT Oliveira, MAL Marques          : LibXC Library


 Your calculation uses the libint2 library for the computation of 2-el integrals
 For citations please refer to: http://libint.valeyev.net

 Your ORCA version has been built with support for libXC version: 4.2.3
 For citations please refer to: https://tddft.org/programs/libxc/

 This ORCA versions uses:
   CBLAS   interface :  Fast vector & matrix operations
   LAPACKE interface :  Fast linear algebra routines
   SCALAPACK package :  Parallel linear algebra routines


Your calculation utilizes the atom-pairwise dispersion correction
with the Becke-Johnson damping scheme (D3BJ)
Cite in your paper:
S.Grimme, S.Ehrlich, L.Goerigk, J Comput Chem, (2011), 32, 1456–1465 
S.Grimme, J.Antony, S.Ehrlich and H.Krieg, J.Chem.Phys., 132, (2010), 154104 
   

----- Orbital basis set information -----
Your calculation utilizes the basis: aug-cc-pVTZ 
    H, B-Ne : Obtained from the ccRepo (grant-hill.group.shef.ac.uk/ccrepo) Feb. 2017
              R. A. Kendall, T. H. Dunning, Jr., R. J. Harrison, J. Chem. Phys. 96, 6796 (1992)
         He : Obtained from the ccRepo (grant-hill.group.shef.ac.uk/ccrepo) Feb. 2017
              D. E. Woon, T. H. Dunning, Jr., J. Chem. Phys. 100, 2975 (1994)
  Li-Be, Na : Obtained from the ccRepo (grant-hill.group.shef.ac.uk/ccrepo) Feb. 2017
              B. P. Prascher, D. E. Woon, K. A. Peterson, T. H. Dunning, Jr., A. K. Wilson, Theor. Chem. Acc. 128, 69 (2011)
         Mg : Obtained from the Peterson Research Group Website (tyr0.chem.wsu.edu/~kipeters) Feb. 2017
              B. P. Prascher, D. E. Woon, K. A. Peterson, T. H. Dunning, Jr., A. K. Wilson, Theor. Chem. Acc. 128, 69 (2011)
      Al-Ar : Obtained from the ccRepo (grant-hill.group.shef.ac.uk/ccrepo) Feb. 2017
              D. E. Woon, T. H. Dunning, Jr., J. Chem. Phys. 98, 1358 (1993)
      Sc-Zn : Obtained from the ccRepo (grant-hill.group.shef.ac.uk/ccrepo) Feb. 2017
              N. B. Balabanov, K. A. Peterson, J. Chem. Phys. 123, 064107 (2005)
              N. B. Balabanov, K. A. Peterson, J. Chem. Phys. 125, 074110 (2006)
      Ga-Kr : Obtained from the ccRepo (grant-hill.group.shef.ac.uk/ccrepo) Feb. 2017
              A. K. Wilson, D. E. Woon, K. A. Peterson, T. H. Dunning, Jr., J. Chem. Phys. 110, 7667 (1999)
     Ag, Au : Obtained from the Peterson Research Group Website (tyr0.chem.wsu.edu/~kipeters) Feb. 2017
              K. A. Peterson, C. Puzzarini, Theor. Chem. Acc. 114, 283 (2005)

----- AuxJK basis set information -----
Your calculation utilizes the auxiliary basis: def2/JK
   H-Ba, Hf-Rn: F. Weigend, J. Comput. Chem. 29, 167 (2008).

================================================================================
                                        WARNINGS
                       Please study these warnings very carefully!
================================================================================


WARNING: your system is open-shell and RHF/RKS was chosen
  ===> : WILL SWITCH to UHF/UKS


INFO   : the flag for use of LIBINT has been found!

================================================================================
                                       INPUT FILE
================================================================================
NAME = 05_ScO.in
|  1> #
|  2> # 05_ScO tpssh/aug-cc-pvtz
|  3> #
|  4> ! tpssh d3bj aug-cc-pvtz def2/jk grid4 nofinalgrid
|  5> 
|  6> *xyz 0 2
|  7>   Sc  0.00000000000000      0.00000000000000      0.16492994527036
|  8>   O   0.00000000000000      0.00000000000000      1.83507005472964
|  9> *
| 10> 
| 11> %pal
| 12> nprocs 24
| 13> end
| 14> 
| 15> 
| 16>                          ****END OF INPUT****
================================================================================

                       ****************************
                       * Single Point Calculation *
                       ****************************

---------------------------------
CARTESIAN COORDINATES (ANGSTROEM)
---------------------------------
  Sc     0.000000    0.000000    0.164930
  O      0.000000    0.000000    1.835070

----------------------------
CARTESIAN COORDINATES (A.U.)
----------------------------
  NO LB      ZA    FRAG     MASS         X           Y           Z
   0 Sc   21.0000    0    44.960    0.000000    0.000000    0.311672
   1 O     8.0000    0    15.999    0.000000    0.000000    3.467780

--------------------------------
INTERNAL COORDINATES (ANGSTROEM)
--------------------------------
 Sc     0   0   0     0.000000000000     0.00000000     0.00000000
 O      1   0   0     1.670140109459     0.00000000     0.00000000

---------------------------
INTERNAL COORDINATES (A.U.)
---------------------------
 Sc     0   0   0     0.000000000000     0.00000000     0.00000000
 O      1   0   0     3.156107412155     0.00000000     0.00000000

---------------------
BASIS SET INFORMATION
---------------------
There are 2 groups of distinct atoms

 Group   1 Type Sc  : 116s77p23d3f2g contracted to 8s7p5d3f2g pattern {19191919191911/151515151511/77711/111/11}
 Group   2 Type O   : 19s6p3d2f contracted to 5s4p3d2f pattern {88111/3111/111/11}

Atom   0Sc   basis set group =>   1
Atom   1O    basis set group =>   2
----------------------------------
AUXILIARY/JK BASIS SET INFORMATION
----------------------------------
There are 2 groups of distinct atoms

 Group   1 Type Sc  : 19s14p12d10f7g3h1i contracted to 16s13p11d9f5g3h1i pattern {4111111111111111/2111111111111/21111111111/211111111/31111/111/1}
 Group   2 Type O   : 14s10p6d2f1g contracted to 10s8p4d2f1g pattern {5111111111/31111111/3111/11/1}

Atom   0Sc   basis set group =>   1
Atom   1O    basis set group =>   2


           ************************************************************
           *        Program running with 24 parallel MPI-processes    *
           *              working on a common directory               *
           ************************************************************
------------------------------------------------------------------------------
                           ORCA GTO INTEGRAL CALCULATION
------------------------------------------------------------------------------

                         BASIS SET STATISTICS AND STARTUP INFO

 # of primitive gaussian shells          ...  251
 # of primitive gaussian functions       ...  567
 # of contracted shells                  ...   39
 # of contracted basis functions         ...  139
 Highest angular momentum                ...    4
 Maximum contraction depth               ...   19
 Integral package used                   ... LIBINT
 Integral threshhold            Thresh   ...  1.000e-10
 Primitive cut-off              TCut     ...  1.000e-11


------------------------------ INTEGRAL EVALUATION ----------------------------


 * One electron integrals 
 Pre-screening matrix                    ... done
 Shell pair data                         ... done (   0.001 sec)



           ************************************************************
           *        Program running with 24 parallel MPI-processes    *
           *              working on a common directory               *
           ************************************************************
-------------------------------------------------------------------------------
                                 ORCA SCF
-------------------------------------------------------------------------------

------------
SCF SETTINGS
------------
Hamiltonian:
 Density Functional     Method          .... DFT(GTOs)
 Exchange Functional    Exchange        .... TPSS
 Correlation Functional Correlation     .... TPSS
 LDA part of GGA corr.  LDAOpt          .... PW91-LDA
 Gradients option       PostSCFGGA      .... off
 Hybrid DFT is turned on
   Fraction HF Exchange ScalHFX         ....  0.100000
   Scaling of DF-GGA-X  ScalDFX         ....  0.900000
   Scaling of DF-GGA-C  ScalDFC         ....  1.000000
   Scaling of DF-LDA-C  ScalLDAC        ....  1.000000
   Perturbative correction              ....  0.000000
   Density functional embedding theory  .... OFF
   NL short-range parameter             ....  5.200000


General Settings:
 Integral files         IntName         .... 05_ScO
 Hartree-Fock type      HFTyp           .... UHF
 Total Charge           Charge          ....    0
 Multiplicity           Mult            ....    2
 Number of Electrons    NEL             ....   29
 Basis Dimension        Dim             ....  139
 Nuclear Repulsion      ENuc            ....     53.2301275150 Eh

Convergence Acceleration:
 DIIS                   CNVDIIS         .... on
   Start iteration      DIISMaxIt       ....    12
   Startup error        DIISStart       ....  0.200000
   # of expansion vecs  DIISMaxEq       ....     5
   Bias factor          DIISBfac        ....   1.050
   Max. coefficient     DIISMaxC        ....  10.000
 Newton-Raphson         CNVNR           .... off
 SOSCF                  CNVSOSCF        .... off
 Level Shifting         CNVShift        .... on
   Level shift para.    LevelShift      ....    0.2500
   Turn off err/grad.   ShiftErr        ....    0.0010
 Zerner damping         CNVZerner       .... off
 Static damping         CNVDamp         .... on
   Fraction old density DampFac         ....    0.7000
   Max. Damping (<1)    DampMax         ....    0.9800
   Min. Damping (>=0)   DampMin         ....    0.0000
   Turn off err/grad.   DampErr         ....    0.1000
 Fernandez-Rico         CNVRico         .... off

SCF Procedure:
 Maximum # iterations   MaxIter         ....   125
 SCF integral mode      SCFMode         .... Direct
   Integral package                     .... LIBINT
 Reset frequency        DirectResetFreq ....    20
 Integral Threshold     Thresh          ....  1.000e-10 Eh
 Primitive CutOff       TCut            ....  1.000e-11 Eh

Convergence Tolerance:
 Convergence Check Mode ConvCheckMode   .... Total+1el-Energy
 Convergence forced     ConvForced      .... 0
 Energy Change          TolE            ....  1.000e-06 Eh
 1-El. energy change                    ....  1.000e-03 Eh
 DIIS Error             TolErr          ....  1.000e-06


Diagonalization of the overlap matrix:
Smallest eigenvalue                        ... 5.912e-05
Time for diagonalization                   ...    0.005 sec
Threshold for overlap eigenvalues          ... 1.000e-08
Number of eigenvalues below threshold      ... 0
Time for construction of square roots      ...    0.002 sec
Total time needed                          ...    0.008 sec

-------------------
DFT GRID GENERATION
-------------------

General Integration Accuracy     IntAcc      ...  4.670
Radial Grid Type                 RadialGrid  ... Gauss-Chebyshev
Angular Grid (max. acc.)         AngularGrid ... Lebedev-302
Angular grid pruning method      GridPruning ... 3 (G Style)
Weight generation scheme         WeightScheme... Becke
Basis function cutoff            BFCut       ...    1.0000e-10
Integration weight cutoff        WCut        ...    1.0000e-14
Grids for H and He will be reduced by one unit

# of grid points (after initial pruning)     ...  15876 (   0.0 sec)
# of grid points (after weights+screening)   ...  15826 (   0.0 sec)
nearest neighbour list constructed           ...    0.0 sec
Grid point re-assignment to atoms done       ...    0.0 sec
Grid point division into batches done        ...    0.1 sec
Reduced shell lists constructed in    0.1 sec

Total number of grid points                  ...    15826
Total number of batches                      ...      248
Average number of points per batch           ...       63
Average number of grid points per atom       ...     7913
Average number of shells per batch           ...    20.67 (52.99%)
Average number of basis functions per batch  ...    66.50 (47.84%)
Average number of large shells per batch     ...    13.58 (65.73%)
Average number of large basis fcns per batch ...    45.08 (67.79%)
Maximum spatial batch extension              ...  30.95, 34.02, 18.21 au
Average spatial batch extension              ...   0.97,  1.03,  0.71 au

Time for grid setup =    0.163 sec

------------------------------
INITIAL GUESS: MODEL POTENTIAL
------------------------------
Loading Hartree-Fock densities                     ... done
Calculating cut-offs                               ... done
Setting up the integral package                    ... done
Initializing the effective Hamiltonian             ... done
Starting the Coulomb interaction                   ... done (   0.0 sec)
Reading the grid                                   ... done
Mapping shells                                     ... done
Starting the XC term evaluation                    ... done (   0.0 sec)
  promolecular density results
     # of electrons  =     29.000005899
     EX              =    -45.958536868
     EC              =     -1.098558406
     EX+EC           =    -47.057095275
Transforming the Hamiltonian                       ... done (   0.0 sec)
Diagonalizing the Hamiltonian                      ... done (   0.0 sec)
Back transforming the eigenvectors                 ... done (   0.0 sec)
Now organizing SCF variables                       ... done
                      ------------------
                      INITIAL GUESS DONE (   0.3 sec)
                      ------------------
--------------
SCF ITERATIONS
--------------
ITER       Energy         Delta-E        Max-DP      RMS-DP      [F,P]     Damp
               ***  Starting incremental Fock matrix formation  ***
  0   -835.6128492124   0.000000000000 0.15709665  0.00268261  0.5619994 0.7000
  1   -835.7279632157  -0.115114003369 0.17189080  0.00321674  0.1165043 0.7000
                               ***Turning on DIIS***
  2   -835.8029528783  -0.074989662555 0.07587589  0.00167487  0.1219947 0.7000
  3   -835.8696538378  -0.066700959547 0.09086516  0.00191121  0.0501287 0.0000
  4   -835.9582881080  -0.088634270170 0.01362565  0.00019028  0.1386922 0.7000
  5   -835.9661182821  -0.007830174100 0.02010560  0.00021464  0.1212912 0.7000
  6   -835.9739820638  -0.007863781740 0.02519062  0.00023909  0.1008377 0.7000
  7   -835.9801312457  -0.006149181865 0.10225440  0.00093016  0.0819612 0.0000
  8   -835.9920176723  -0.011886426576 0.04292426  0.00037485  0.0251581 0.0000
  9   -835.9930637509  -0.001046078597 0.02114817  0.00025778  0.0109237 0.0000
 10   -835.9932660362  -0.000202285340 0.02765632  0.00022771  0.0028329 0.0000
 11   -835.9933172168  -0.000051180609 0.01466305  0.00011512  0.0014572 0.0000
 12   -835.9933428045  -0.000025587717 0.01129333  0.00008891  0.0010271 0.0000
 13   -835.9933573471  -0.000014542572 0.02410093  0.00017153  0.0007919 0.0000
 14   -835.9933737904  -0.000016443329 0.00423434  0.00003572  0.0004228 0.0000
 15   -835.9933743401  -0.000000549660 0.00194437  0.00001531  0.0001509 0.0000
 16   -835.9933742891   0.000000050970 0.00081985  0.00000720  0.0002876 0.0000
                 **** Energy Check signals convergence ****

               *****************************************************
               *                     SUCCESS                       *
               *           SCF CONVERGED AFTER  17 CYCLES          *
               *****************************************************


----------------
TOTAL SCF ENERGY
----------------

Total Energy       :         -835.99337441 Eh          -22748.53623 eV

Components:
Nuclear Repulsion  :           53.23012751 Eh            1448.46541 eV
Electronic Energy  :         -889.22350192 Eh          -24197.00164 eV
One Electron Energy:        -1251.75438385 Eh          -34061.96846 eV
Two Electron Energy:          362.53088192 Eh            9864.96682 eV

Virial components:
Potential Energy   :        -1670.43739501 Eh          -45454.91240 eV
Kinetic Energy     :          834.44402060 Eh           22706.37617 eV
Virial Ratio       :            2.00185675


DFT components:
N(Alpha)           :       14.999995260692 electrons
N(Beta)            :       13.999995926220 electrons
N(Total)           :       28.999991186912 electrons
E(X)               :      -41.877186455399 Eh       
E(C)               :       -1.118483162754 Eh       
E(XC)              :      -42.995669618154 Eh       
DFET-embed. en.    :        0.000000000000 Eh       

---------------
SCF CONVERGENCE
---------------

  Last Energy change         ...   -1.2043e-07  Tolerance :   1.0000e-06
  Last MAX-Density change    ...    8.1413e-05  Tolerance :   1.0000e-05
  Last RMS-Density change    ...    1.5722e-06  Tolerance :   1.0000e-06
  Last DIIS Error            ...    2.5730e-05  Tolerance :   1.0000e-06

             **** THE GBW FILE WAS UPDATED (05_ScO.gbw) ****
             **** DENSITY FILE WAS UPDATED (05_ScO.scfp) ****
             **** ENERGY FILE WAS UPDATED (05_ScO.en.tmp) ****
----------------------
UHF SPIN CONTAMINATION
----------------------

Warning: in a DFT calculation there is little theoretical justification to 
         calculate <S**2> as in Hartree-Fock theory. We will do it anyways
         but you should keep in mind that the values have only limited relevance

Expectation value of <S**2>     :     0.751377
Ideal value S*(S+1) for S=0.5   :     0.750000
Deviation                       :     0.001377

             **** THE GBW FILE WAS UPDATED (05_ScO.gbw) ****
             **** DENSITY FILE WAS UPDATED (05_ScO.scfp) ****
----------------
ORBITAL ENERGIES
----------------
                 SPIN UP ORBITALS
  NO   OCC          E(Eh)            E(eV) 
   0   1.0000    -161.511199     -4394.9432 
   1   1.0000     -19.000758      -517.0369 
   2   1.0000     -17.490125      -475.9305 
   3   1.0000     -14.397244      -391.7689 
   4   1.0000     -14.397244      -391.7689 
   5   1.0000     -14.388433      -391.5292 
   6   1.0000      -2.059566       -56.0436 
   7   1.0000      -1.271568       -34.6011 
   8   1.0000      -1.263152       -34.3721 
   9   1.0000      -1.263152       -34.3721 
  10   1.0000      -0.798930       -21.7400 
  11   1.0000      -0.274112        -7.4590 
  12   1.0000      -0.274112        -7.4590 
  13   1.0000      -0.267421        -7.2769 
  14   1.0000      -0.158249        -4.3062 
  15   0.0000      -0.084110        -2.2887 
  16   0.0000      -0.084109        -2.2887 
  17   0.0000      -0.068439        -1.8623 
  18   0.0000      -0.068439        -1.8623 
  19   0.0000      -0.043015        -1.1705 
  20   0.0000      -0.000077        -0.0021 
  21   0.0000       0.001442         0.0392 
  22   0.0000       0.001442         0.0392 
  23   0.0000       0.013249         0.3605 
  24   0.0000       0.021174         0.5762 
  25   0.0000       0.021175         0.5762 
  26   0.0000       0.024374         0.6632 
  27   0.0000       0.024374         0.6632 
  28   0.0000       0.029867         0.8127 
  29   0.0000       0.030021         0.8169 
  30   0.0000       0.030021         0.8169 
  31   0.0000       0.068435         1.8622 
  32   0.0000       0.077064         2.0970 
  33   0.0000       0.084698         2.3047 
  34   0.0000       0.084699         2.3048 
  35   0.0000       0.088364         2.4045 
  36   0.0000       0.088364         2.4045 
  37   0.0000       0.097540         2.6542 
  38   0.0000       0.106872         2.9081 
  39   0.0000       0.106872         2.9081 
  40   0.0000       0.113805         3.0968 
  41   0.0000       0.113805         3.0968 
  42   0.0000       0.121779         3.3138 
  43   0.0000       0.122649         3.3374 
  44   0.0000       0.122649         3.3375 
  45   0.0000       0.125957         3.4275 
  46   0.0000       0.125957         3.4275 
  47   0.0000       0.214449         5.8355 
  48   0.0000       0.260397         7.0858 
  49   0.0000       0.260397         7.0858 
  50   0.0000       0.282601         7.6900 
  51   0.0000       0.335309         9.1242 
  52   0.0000       0.335309         9.1242 
  53   0.0000       0.336277         9.1506 
  54   0.0000       0.357715         9.7339 
  55   0.0000       0.361507         9.8371 
  56   0.0000       0.361507         9.8371 
  57   0.0000       0.379013        10.3135 
  58   0.0000       0.379014        10.3135 
  59   0.0000       0.384655        10.4670 
  60   0.0000       0.391463        10.6523 
  61   0.0000       0.391464        10.6523 
  62   0.0000       0.392124        10.6702 
  63   0.0000       0.392124        10.6702 
  64   0.0000       0.395293        10.7565 
  65   0.0000       0.395293        10.7565 
  66   0.0000       0.473997        12.8981 
  67   0.0000       0.473997        12.8981 
  68   0.0000       0.488428        13.2908 
  69   0.0000       0.488428        13.2908 
  70   0.0000       0.499454        13.5908 
  71   0.0000       0.499454        13.5908 
  72   0.0000       0.554310        15.0835 
  73   0.0000       0.686597        18.6833 
  74   0.0000       0.686597        18.6833 
  75   0.0000       0.687932        18.7196 
  76   0.0000       0.801852        21.8195 
  77   0.0000       0.801852        21.8195 
  78   0.0000       0.817822        22.2541 
  79   0.0000       0.857699        23.3392 
  80   0.0000       0.857702        23.3393 
  81   0.0000       1.041204        28.3326 
  82   0.0000       1.174254        31.9531 
  83   0.0000       1.174254        31.9531 
  84   0.0000       1.308225        35.5986 
  85   0.0000       1.324291        36.0358 
  86   0.0000       1.324294        36.0359 
  87   0.0000       1.521561        41.4038 
  88   0.0000       1.521561        41.4038 
  89   0.0000       1.551235        42.2113 
  90   0.0000       1.620423        44.0939 
  91   0.0000       1.630836        44.3773 
  92   0.0000       1.630836        44.3773 
  93   0.0000       1.703654        46.3588 
  94   0.0000       1.703655        46.3588 
  95   0.0000       1.734643        47.2020 
  96   0.0000       1.734643        47.2020 
  97   0.0000       1.804534        49.1039 
  98   0.0000       1.804545        49.1042 
  99   0.0000       1.814542        49.3762 
 100   0.0000       1.814542        49.3762 
 101   0.0000       1.912372        52.0383 
 102   0.0000       1.937865        52.7320 
 103   0.0000       1.957856        53.2760 
 104   0.0000       1.957856        53.2760 
 105   0.0000       1.993428        54.2439 
 106   0.0000       1.993431        54.2440 
 107   0.0000       2.023045        55.0498 
 108   0.0000       2.023045        55.0498 
 109   0.0000       2.059319        56.0369 
 110   0.0000       2.059319        56.0369 
 111   0.0000       2.177469        59.2519 
 112   0.0000       2.177474        59.2521 
 113   0.0000       2.222124        60.4671 
 114   0.0000       2.392485        65.1028 
 115   0.0000       2.433598        66.2216 
 116   0.0000       2.433598        66.2216 
 117   0.0000       2.564155        69.7742 
 118   0.0000       2.564157        69.7743 
 119   0.0000       2.731266        74.3215 
 120   0.0000       3.223642        87.7198 
 121   0.0000       3.223642        87.7198 
 122   0.0000       3.553292        96.6900 
 123   0.0000       4.154627       113.0531 
 124   0.0000       4.154627       113.0531 
 125   0.0000       4.961428       135.0073 
 126   0.0000       6.199673       168.7017 
 127   0.0000       6.199673       168.7017 
 128   0.0000       6.306746       171.6153 
 129   0.0000       6.306887       171.6191 
 130   0.0000       6.410407       174.4360 
 131   0.0000       6.410407       174.4360 
 132   0.0000       6.543108       178.0470 
 133   0.0000       6.702262       182.3778 
 134   0.0000       6.702470       182.3835 
 135   0.0000       6.873450       187.0361 
 136   0.0000       6.873450       187.0361 
 137   0.0000       7.088724       192.8940 
 138   0.0000      11.421848       310.8043 

                 SPIN DOWN ORBITALS
  NO   OCC          E(Eh)            E(eV) 
   0   1.0000    -161.510389     -4394.9211 
   1   1.0000     -19.001891      -517.0678 
   2   1.0000     -17.488517      -475.8867 
   3   1.0000     -14.396098      -391.7377 
   4   1.0000     -14.396098      -391.7377 
   5   1.0000     -14.386739      -391.4831 
   6   1.0000      -2.053874       -55.8888 
   7   1.0000      -1.263077       -34.3701 
   8   1.0000      -1.258648       -34.2496 
   9   1.0000      -1.258648       -34.2496 
  10   1.0000      -0.800596       -21.7853 
  11   1.0000      -0.274549        -7.4709 
  12   1.0000      -0.274549        -7.4709 
  13   1.0000      -0.267461        -7.2780 
  14   0.0000      -0.107339        -2.9208 
  15   0.0000      -0.070815        -1.9270 
  16   0.0000      -0.070798        -1.9265 
  17   0.0000      -0.043994        -1.1971 
  18   0.0000      -0.043994        -1.1971 
  19   0.0000      -0.028304        -0.7702 
  20   0.0000       0.013995         0.3808 
  21   0.0000       0.013995         0.3808 
  22   0.0000       0.014775         0.4020 
  23   0.0000       0.021356         0.5811 
  24   0.0000       0.033805         0.9199 
  25   0.0000       0.033816         0.9202 
  26   0.0000       0.033852         0.9212 
  27   0.0000       0.033852         0.9212 
  28   0.0000       0.036930         1.0049 
  29   0.0000       0.039781         1.0825 
  30   0.0000       0.039781         1.0825 
  31   0.0000       0.073824         2.0088 
  32   0.0000       0.096857         2.6356 
  33   0.0000       0.096857         2.6356 
  34   0.0000       0.099655         2.7117 
  35   0.0000       0.107107         2.9145 
  36   0.0000       0.107274         2.9191 
  37   0.0000       0.114260         3.1092 
  38   0.0000       0.122654         3.3376 
  39   0.0000       0.122654         3.3376 
  40   0.0000       0.134840         3.6692 
  41   0.0000       0.136684         3.7194 
  42   0.0000       0.136737         3.7208 
  43   0.0000       0.141489         3.8501 
  44   0.0000       0.141489         3.8501 
  45   0.0000       0.148577         4.0430 
  46   0.0000       0.148577         4.0430 
  47   0.0000       0.220143         5.9904 
  48   0.0000       0.266259         7.2453 
  49   0.0000       0.266260         7.2453 
  50   0.0000       0.287794         7.8313 
  51   0.0000       0.337847         9.1933 
  52   0.0000       0.352863         9.6019 
  53   0.0000       0.352924         9.6035 
  54   0.0000       0.370963        10.0944 
  55   0.0000       0.370963        10.0944 
  56   0.0000       0.375503        10.2180 
  57   0.0000       0.383437        10.4339 
  58   0.0000       0.383574        10.4376 
  59   0.0000       0.390621        10.6293 
  60   0.0000       0.398497        10.8436 
  61   0.0000       0.398497        10.8436 
  62   0.0000       0.403667        10.9843 
  63   0.0000       0.403667        10.9843 
  64   0.0000       0.414636        11.2828 
  65   0.0000       0.414655        11.2833 
  66   0.0000       0.489526        13.3207 
  67   0.0000       0.489527        13.3207 
  68   0.0000       0.496820        13.5192 
  69   0.0000       0.496872        13.5206 
  70   0.0000       0.516341        14.0504 
  71   0.0000       0.516341        14.0504 
  72   0.0000       0.560514        15.2524 
  73   0.0000       0.688722        18.7411 
  74   0.0000       0.691799        18.8248 
  75   0.0000       0.691799        18.8248 
  76   0.0000       0.803386        21.8612 
  77   0.0000       0.803386        21.8612 
  78   0.0000       0.819776        22.3072 
  79   0.0000       0.859249        23.3813 
  80   0.0000       0.859256        23.3816 
  81   0.0000       1.043227        28.3877 
  82   0.0000       1.171010        31.8648 
  83   0.0000       1.171010        31.8648 
  84   0.0000       1.311366        35.6841 
  85   0.0000       1.329501        36.1776 
  86   0.0000       1.329542        36.1787 
  87   0.0000       1.524653        41.4879 
  88   0.0000       1.524653        41.4879 
  89   0.0000       1.556180        42.3458 
  90   0.0000       1.626901        44.2702 
  91   0.0000       1.638053        44.5737 
  92   0.0000       1.638053        44.5737 
  93   0.0000       1.704960        46.3943 
  94   0.0000       1.704966        46.3945 
  95   0.0000       1.737066        47.2680 
  96   0.0000       1.737066        47.2680 
  97   0.0000       1.809474        49.2383 
  98   0.0000       1.809482        49.2385 
  99   0.0000       1.818673        49.4886 
 100   0.0000       1.818673        49.4886 
 101   0.0000       1.914831        52.1052 
 102   0.0000       1.939327        52.7718 
 103   0.0000       1.955163        53.2027 
 104   0.0000       1.955163        53.2027 
 105   0.0000       1.993891        54.2565 
 106   0.0000       1.993918        54.2573 
 107   0.0000       2.029184        55.2169 
 108   0.0000       2.029184        55.2169 
 109   0.0000       2.061181        56.0876 
 110   0.0000       2.061181        56.0876 
 111   0.0000       2.176394        59.2227 
 112   0.0000       2.176395        59.2227 
 113   0.0000       2.218905        60.3795 
 114   0.0000       2.391997        65.0895 
 115   0.0000       2.432134        66.1817 
 116   0.0000       2.432134        66.1817 
 117   0.0000       2.562656        69.7334 
 118   0.0000       2.562668        69.7337 
 119   0.0000       2.730782        74.3083 
 120   0.0000       3.221492        87.6613 
 121   0.0000       3.221493        87.6613 
 122   0.0000       3.550965        96.6267 
 123   0.0000       4.152060       112.9833 
 124   0.0000       4.152060       112.9833 
 125   0.0000       4.958402       134.9250 
 126   0.0000       6.197576       168.6446 
 127   0.0000       6.197576       168.6446 
 128   0.0000       6.304693       171.5594 
 129   0.0000       6.304823       171.5629 
 130   0.0000       6.408737       174.3906 
 131   0.0000       6.408737       174.3906 
 132   0.0000       6.541436       178.0015 
 133   0.0000       6.699211       182.2948 
 134   0.0000       6.699414       182.3003 
 135   0.0000       6.870271       186.9496 
 136   0.0000       6.870271       186.9496 
 137   0.0000       7.085302       192.8009 
 138   0.0000      11.419674       310.7451 

                    ********************************
                    * MULLIKEN POPULATION ANALYSIS *
                    ********************************

--------------------------------------------
MULLIKEN ATOMIC CHARGES AND SPIN POPULATIONS
--------------------------------------------
   0 Sc:    0.883368    1.002578
   1 O :   -0.883368   -0.002578
Sum of atomic charges         :   -0.0000000
Sum of atomic spin populations:    1.0000000

-----------------------------------------------------
MULLIKEN REDUCED ORBITAL CHARGES AND SPIN POPULATIONS
-----------------------------------------------------
CHARGE
  0 Scs       :     6.831493  s :     6.831493
      pz      :     4.122055  p :    12.101193
      px      :     3.989569
      py      :     3.989569
      dz2     :     0.570022  d :     1.193201
      dxz     :     0.311589
      dyz     :     0.311589
      dx2y2   :     0.000000
      dxy     :     0.000000
      f0      :     0.007321  f :    -0.004955
      f+1     :    -0.006138
      f-1     :    -0.006138
      f+2     :     0.000000
      f-2     :     0.000000
      f+3     :     0.000000
      f-3     :     0.000000
      g0      :    -0.000259  g :    -0.004300
      g+1     :    -0.002020
      g-1     :    -0.002020
      g+2     :     0.000000
      g-2     :     0.000000
      g+3     :     0.000000
      g-3     :     0.000000
      g+4     :     0.000000
      g-4     :     0.000000
  1 O s       :     3.971706  s :     3.971706
      pz      :     1.490531  p :     4.864700
      px      :     1.687084
      py      :     1.687084
      dz2     :     0.006153  d :     0.041036
      dxz     :     0.017441
      dyz     :     0.017441
      dx2y2   :     0.000000
      dxy     :    -0.000000
      f0      :     0.000979  f :     0.005927
      f+1     :     0.002474
      f-1     :     0.002474
      f+2     :     0.000000
      f-2     :     0.000000
      f+3     :     0.000000
      f-3     :     0.000000

SPIN
  0 Scs       :     0.772212  s :     0.772212
      pz      :     0.133191  p :     0.134504
      px      :     0.000657
      py      :     0.000657
      dz2     :     0.077565  d :     0.099702
      dxz     :     0.011068
      dyz     :     0.011068
      dx2y2   :     0.000000
      dxy     :     0.000000
      f0      :     0.000009  f :    -0.003094
      f+1     :    -0.001552
      f-1     :    -0.001552
      f+2     :     0.000000
      f-2     :     0.000000
      f+3     :    -0.000000
      f-3     :    -0.000000
      g0      :     0.000020  g :    -0.000745
      g+1     :    -0.000382
      g-1     :    -0.000382
      g+2     :     0.000000
      g-2     :    -0.000000
      g+3     :    -0.000000
      g-3     :    -0.000000
      g+4     :    -0.000000
      g-4     :    -0.000000
  1 O s       :     0.026683  s :     0.026683
      pz      :    -0.011100  p :    -0.031391
      px      :    -0.010145
      py      :    -0.010145
      dz2     :     0.000904  d :     0.001672
      dxz     :     0.000384
      dyz     :     0.000384
      dx2y2   :     0.000000
      dxy     :    -0.000000
      f0      :     0.000516  f :     0.000458
      f+1     :    -0.000029
      f-1     :    -0.000029
      f+2     :     0.000000
      f-2     :    -0.000000
      f+3     :    -0.000000
      f-3     :    -0.000000


                     *******************************
                     * LOEWDIN POPULATION ANALYSIS *
                     *******************************

-------------------------------------------
LOEWDIN ATOMIC CHARGES AND SPIN POPULATIONS
-------------------------------------------
   0 Sc:    0.695646    0.946103
   1 O :   -0.695646    0.053897

----------------------------------------------------
LOEWDIN REDUCED ORBITAL CHARGES AND SPIN POPULATIONS
----------------------------------------------------
CHARGE
  0 Scs       :     6.431958  s :     6.431958
      pz      :     4.141513  p :    11.944819
      px      :     3.901653
      py      :     3.901653
      dz2     :     0.738497  d :     1.546841
      dxz     :     0.404172
      dyz     :     0.404172
      dx2y2   :     0.000000
      dxy     :     0.000000
      f0      :     0.120728  f :     0.249582
      f+1     :     0.064427
      f-1     :     0.064427
      f+2     :     0.000000
      f-2     :     0.000000
      f+3     :     0.000000
      f-3     :     0.000000
      g0      :     0.056556  g :     0.131154
      g+1     :     0.037299
      g-1     :     0.037299
      g+2     :     0.000000
      g-2     :     0.000000
      g+3     :     0.000000
      g-3     :     0.000000
      g+4     :     0.000000
      g-4     :     0.000000
  1 O s       :     3.557742  s :     3.557742
      pz      :     1.679711  p :     4.642879
      px      :     1.481584
      py      :     1.481584
      dz2     :     0.202106  d :     0.361062
      dxz     :     0.079478
      dyz     :     0.079478
      dx2y2   :     0.000000
      dxy     :     0.000000
      f0      :     0.071189  f :     0.133963
      f+1     :     0.031387
      f-1     :     0.031387
      f+2     :     0.000000
      f-2     :     0.000000
      f+3     :     0.000000
      f-3     :     0.000000

SPIN
  0 Scs       :     0.729469  s :     0.729469
      pz      :     0.127781  p :     0.127073
      px      :    -0.000354
      py      :    -0.000354
      dz2     :     0.073307  d :     0.094721
      dxz     :     0.010707
      dyz     :     0.010707
      dx2y2   :     0.000000
      dxy     :     0.000000
      f0      :     0.000305  f :    -0.003512
      f+1     :    -0.001908
      f-1     :    -0.001908
      f+2     :     0.000000
      f-2     :     0.000000
      f+3     :    -0.000000
      f-3     :    -0.000000
      g0      :    -0.000228  g :    -0.001648
      g+1     :    -0.000710
      g-1     :    -0.000710
      g+2     :     0.000000
      g-2     :    -0.000000
      g+3     :    -0.000000
      g-3     :    -0.000000
      g+4     :    -0.000000
      g-4     :    -0.000000
  1 O s       :     0.029462  s :     0.029462
      pz      :     0.037813  p :     0.020770
      px      :    -0.008522
      py      :    -0.008522
      dz2     :     0.000565  d :     0.001978
      dxz     :     0.000706
      dyz     :     0.000706
      dx2y2   :     0.000000
      dxy     :    -0.000000
      f0      :     0.001525  f :     0.001686
      f+1     :     0.000081
      f-1     :     0.000081
      f+2     :     0.000000
      f-2     :    -0.000000
      f+3     :    -0.000000
      f-3     :    -0.000000


                      *****************************
                      * MAYER POPULATION ANALYSIS *
                      *****************************

  NA   - Mulliken gross atomic population
  ZA   - Total nuclear charge
  QA   - Mulliken gross atomic charge
  VA   - Mayer's total valence
  BVA  - Mayer's bonded valence
  FA   - Mayer's free valence

  ATOM       NA         ZA         QA         VA         BVA        FA
  0 Sc    20.1166    21.0000     0.8834     2.8779     1.9535     0.9244
  1 O      8.8834     8.0000    -0.8834     1.9559     1.9535     0.0024

  Mayer bond orders larger than 0.100000
B(  0-Sc,  1-O ) :   1.9535 

-------
TIMINGS
-------

Total SCF time: 0 days 0 hours 1 min 58 sec 

Total time                  ....     118.131 sec
Sum of individual times     ....     117.764 sec  ( 99.7%)

Fock matrix formation       ....     117.362 sec  ( 99.3%)
  XC integration            ....       0.654 sec  (  0.6% of F)
    Basis function eval.    ....       0.090 sec  ( 13.7% of XC)
    Density eval.           ....       0.107 sec  ( 16.3% of XC)
    XC-Functional eval.     ....       0.025 sec  (  3.9% of XC)
    XC-Potential eval.      ....       0.308 sec  ( 47.0% of XC)
Diagonalization             ....       0.087 sec  (  0.1%)
Density matrix formation    ....       0.012 sec  (  0.0%)
Population analysis         ....       0.006 sec  (  0.0%)
Initial guess               ....       0.100 sec  (  0.1%)
Orbital Transformation      ....       0.000 sec  (  0.0%)
Orbital Orthonormalization  ....       0.000 sec  (  0.0%)
DIIS solution               ....       0.033 sec  (  0.0%)
Grid generation             ....       0.163 sec  (  0.1%)


-------------------------------------------------------------------------------
                          DFT DISPERSION CORRECTION                            
                                                                               
                              DFTD3 V3.1  Rev 1                                
                          USING Becke-Johnson damping                          
-------------------------------------------------------------------------------
The TPSSH functional is recognized
Active option DFTDOPT                   ...         4   

molecular C6(AA) [au] = 688.943414 


            DFT-D V3
 parameters
 s6 scaling factor         :     1.0000 
 a1 scaling factor         :     0.4529 
 s8 scaling factor         :     2.2382 
 a2 scaling factor         :     4.6550 
 ad hoc parameters k1-k3   :    16.0000     1.3333    -4.0000 

 Edisp/kcal,au: -0.499837130729  -0.000796541085 
 E6   /kcal   :  -0.175436867 
 E8   /kcal   :  -0.324400264 
 % E8         :  64.901193560 

-------------------------   ----------------
Dispersion correction           -0.000796541
-------------------------   ----------------


-------------------------   --------------------
FINAL SINGLE POINT ENERGY      -835.994170950638
-------------------------   --------------------


                            ***************************************
                            *     ORCA property calculations      *
                            ***************************************

                                    ---------------------
                                    Active property flags
                                    ---------------------
   (+) Dipole Moment


------------------------------------------------------------------------------
                       ORCA ELECTRIC PROPERTIES CALCULATION
------------------------------------------------------------------------------

Dipole Moment Calculation                       ... on
Quadrupole Moment Calculation                   ... off
Polarizability Calculation                      ... off
GBWName                                         ... 05_ScO.gbw
Electron density file                           ... 05_ScO.scfp
The origin for moment calculation is the CENTER OF MASS  = ( 0.000000,  0.000000  1.140009)

-------------
DIPOLE MOMENT
-------------
                                X             Y             Z
Electronic contribution:      0.00000      -0.00000      -2.63584
Nuclear contribution   :      0.00000       0.00000       1.22710
                        -----------------------------------------
Total Dipole Moment    :      0.00000      -0.00000      -1.40873
                        -----------------------------------------
Magnitude (a.u.)       :      1.40873
Magnitude (Debye)      :      3.58072



--------------------
Rotational spectrum 
--------------------
 
Rotational constants in cm-1:     0.000000     0.512165     0.512165 
Rotational constants in MHz :     0.000000 15354.316375 15354.316375 

 Dipole components along the rotational axes: 
x,y,z [a.u.] :    -1.408735    -0.000000     0.000000 
x,y,z [Debye]:    -3.580719    -0.000000     0.000000 

 

Timings for individual modules:

Sum of individual times         ...      121.771 sec (=   2.030 min)
GTO integral calculation        ...        3.162 sec (=   0.053 min)   2.6 %
SCF iterations                  ...      118.609 sec (=   1.977 min)  97.4 %
                             ****ORCA TERMINATED NORMALLY****
TOTAL RUN TIME: 0 days 0 hours 2 minutes 2 seconds 431 msec
