
                                 *****************
                                 * O   R   C   A *
                                 *****************

           --- An Ab Initio, DFT and Semiempirical electronic structure package ---

                  #######################################################
                  #                        -***-                        #
                  #          Department of theory and spectroscopy      #
                  #               Directorship: Frank Neese             #
                  #        Max Planck Institute fuer Kohlenforschung    #
                  #                Kaiser Wilhelm Platz 1               #
                  #                 D-45470 Muelheim/Ruhr               #
                  #                      Germany                        #
                  #                                                     #
                  #                  All rights reserved                #
                  #                        -***-                        #
                  #######################################################


                         Program Version 4.2.0 -  RELEASE  -


 With contributions from (in alphabetic order):
   Daniel Aravena         : Magnetic Suceptibility
   Michael Atanasov       : Ab Initio Ligand Field Theory (pilot matlab implementation)
   Alexander A. Auer      : GIAO ZORA, VPT2
   Ute Becker             : Parallelization
   Giovanni Bistoni       : ED, misc. LED, open-shell LED, HFLED
   Martin Brehm           : Molecular dynamics
   Dmytro Bykov           : SCF Hessian
   Vijay G. Chilkuri      : MRCI spin determinant printing, contributions to CSF-ICE
   Dipayan Datta          : RHF DLPNO-CCSD density
   Achintya Kumar Dutta   : EOM-CC, STEOM-CC
   Dmitry Ganyushin       : Spin-Orbit,Spin-Spin,Magnetic field MRCI
   Miquel Garcia          : C-PCM Hessian, Gaussian charge scheme
   Yang Guo               : DLPNO-NEVPT2, CIM, IAO-localization
   Andreas Hansen         : Spin unrestricted coupled pair/coupled cluster methods
   Benjamin Helmich-Paris : CASSCF linear response (MC-RPA)
   Lee Huntington         : MR-EOM, pCC
   Robert Izsak           : Overlap fitted RIJCOSX, COSX-SCS-MP3, EOM
   Christian Kollmar      : KDIIS, OOCD, Brueckner-CCSD(T), CCSD density
   Simone Kossmann        : Meta GGA functionals, TD-DFT gradient, OOMP2, MP2 Hessian
   Martin Krupicka        : AUTO-CI
   Lucas Lang             : DCDCAS
   Dagmar Lenk            : GEPOL surface, SMD
   Dimitrios Liakos       : Extrapolation schemes; Compound Job, initial MDCI parallelization
   Dimitrios Manganas     : Further ROCIS development; embedding schemes
   Dimitrios Pantazis     : SARC Basis sets
   Taras Petrenko         : DFT Hessian,TD-DFT gradient, ASA, ECA, R-Raman, ABS, FL, XAS/XES, NRVS
   Peter Pinski           : DLPNO-MP2, DLPNO-MP2 Gradient
   Christoph Reimann      : Effective Core Potentials
   Marius Retegan         : Local ZFS, SOC
   Christoph Riplinger    : Optimizer, TS searches, QM/MM, DLPNO-CCSD(T), (RO)-DLPNO pert. Triples
   Tobias Risthaus        : Range-separated hybrids, TD-DFT gradient, RPA, STAB
   Michael Roemelt        : Original ROCIS implementation
   Masaaki Saitow         : Open-shell DLPNO-CCSD energy and density
   Barbara Sandhoefer     : DKH picture change effects
   Avijit Sen             : IP-ROCIS
   Kantharuban Sivalingam : CASSCF convergence, NEVPT2, FIC-MRCI
   Bernardo de Souza      : ESD, SOC TD-DFT
   Georgi Stoychev        : AutoAux, RI-MP2 NMR
   Willem Van den Heuvel  : Paramagnetic NMR
   Boris Wezisla          : Elementary symmetry handling
   Frank Wennmohs         : Technical directorship


 We gratefully acknowledge several colleagues who have allowed us to
 interface, adapt or use parts of their codes:
   Stefan Grimme, W. Hujo, H. Kruse,             : VdW corrections, initial TS optimization,
                  C. Bannwarth                     DFT functionals, gCP, sTDA/sTD-DF
   Ed Valeev, F. Pavosevic, A. Kumar             : LibInt (2-el integral package), F12 methods
   Garnet Chan, S. Sharma, J. Yang, R. Olivares  : DMRG
   Ulf Ekstrom                                   : XCFun DFT Library
   Mihaly Kallay                                 : mrcc  (arbitrary order and MRCC methods)
   Andreas Klamt, Michael Diedenhofen            : otool_cosmo (COSMO solvation model)
   Jiri Pittner, Ondrej Demel                    : Mk-CCSD
   Frank Weinhold                                : gennbo (NPA and NBO analysis)
   Christopher J. Cramer and Donald G. Truhlar   : smd solvation model
   Lars Goerigk                                  : TD-DFT with DH, B97 family of functionals
   V. Asgeirsson, H. Jonsson                     : NEB implementation
   FAccTs GmbH                                   : IRC, NEB, NEB-TS, Multilevel, MM, QM/MM, CI optimization
   S Lehtola, MJT Oliveira, MAL Marques          : LibXC Library


 Your calculation uses the libint2 library for the computation of 2-el integrals
 For citations please refer to: http://libint.valeyev.net

 Your ORCA version has been built with support for libXC version: 4.2.3
 For citations please refer to: https://tddft.org/programs/libxc/

 This ORCA versions uses:
   CBLAS   interface :  Fast vector & matrix operations
   LAPACKE interface :  Fast linear algebra routines
   SCALAPACK package :  Parallel linear algebra routines


Your calculation utilizes the atom-pairwise dispersion correction
with the Becke-Johnson damping scheme (D3BJ)
Cite in your paper:
S.Grimme, S.Ehrlich, L.Goerigk, J Comput Chem, (2011), 32, 1456–1465 
S.Grimme, J.Antony, S.Ehrlich and H.Krieg, J.Chem.Phys., 132, (2010), 154104 
   

----- Orbital basis set information -----
Your calculation utilizes the basis: aug-cc-pVTZ 
    H, B-Ne : Obtained from the ccRepo (grant-hill.group.shef.ac.uk/ccrepo) Feb. 2017
              R. A. Kendall, T. H. Dunning, Jr., R. J. Harrison, J. Chem. Phys. 96, 6796 (1992)
         He : Obtained from the ccRepo (grant-hill.group.shef.ac.uk/ccrepo) Feb. 2017
              D. E. Woon, T. H. Dunning, Jr., J. Chem. Phys. 100, 2975 (1994)
  Li-Be, Na : Obtained from the ccRepo (grant-hill.group.shef.ac.uk/ccrepo) Feb. 2017
              B. P. Prascher, D. E. Woon, K. A. Peterson, T. H. Dunning, Jr., A. K. Wilson, Theor. Chem. Acc. 128, 69 (2011)
         Mg : Obtained from the Peterson Research Group Website (tyr0.chem.wsu.edu/~kipeters) Feb. 2017
              B. P. Prascher, D. E. Woon, K. A. Peterson, T. H. Dunning, Jr., A. K. Wilson, Theor. Chem. Acc. 128, 69 (2011)
      Al-Ar : Obtained from the ccRepo (grant-hill.group.shef.ac.uk/ccrepo) Feb. 2017
              D. E. Woon, T. H. Dunning, Jr., J. Chem. Phys. 98, 1358 (1993)
      Sc-Zn : Obtained from the ccRepo (grant-hill.group.shef.ac.uk/ccrepo) Feb. 2017
              N. B. Balabanov, K. A. Peterson, J. Chem. Phys. 123, 064107 (2005)
              N. B. Balabanov, K. A. Peterson, J. Chem. Phys. 125, 074110 (2006)
      Ga-Kr : Obtained from the ccRepo (grant-hill.group.shef.ac.uk/ccrepo) Feb. 2017
              A. K. Wilson, D. E. Woon, K. A. Peterson, T. H. Dunning, Jr., J. Chem. Phys. 110, 7667 (1999)
     Ag, Au : Obtained from the Peterson Research Group Website (tyr0.chem.wsu.edu/~kipeters) Feb. 2017
              K. A. Peterson, C. Puzzarini, Theor. Chem. Acc. 114, 283 (2005)

----- AuxJK basis set information -----
Your calculation utilizes the auxiliary basis: def2/JK
   H-Ba, Hf-Rn: F. Weigend, J. Comput. Chem. 29, 167 (2008).

================================================================================
                                        WARNINGS
                       Please study these warnings very carefully!
================================================================================


WARNING: your system is open-shell and RHF/RKS was chosen
  ===> : WILL SWITCH to UHF/UKS


INFO   : the flag for use of LIBINT has been found!

================================================================================
                                       INPUT FILE
================================================================================
NAME = 06_ScS.in
|  1> #
|  2> # 06_ScS tpssh/aug-cc-pvtz
|  3> #
|  4> ! tpssh d3bj aug-cc-pvtz def2/jk grid4 nofinalgrid
|  5> 
|  6> *xyz 0 2
|  7>   Sc  0.00000000000000      0.00000000000000     -0.07079618847288
|  8>   S   0.00000000000000      0.00000000000000      2.07079618847288
|  9> *
| 10> 
| 11> %pal
| 12> nprocs 24
| 13> end
| 14> 
| 15> 
| 16>                          ****END OF INPUT****
================================================================================

                       ****************************
                       * Single Point Calculation *
                       ****************************

---------------------------------
CARTESIAN COORDINATES (ANGSTROEM)
---------------------------------
  Sc     0.000000    0.000000   -0.070796
  S      0.000000    0.000000    2.070796

----------------------------
CARTESIAN COORDINATES (A.U.)
----------------------------
  NO LB      ZA    FRAG     MASS         X           Y           Z
   0 Sc   21.0000    0    44.960    0.000000    0.000000   -0.133785
   1 S    16.0000    0    32.060    0.000000    0.000000    3.913238

--------------------------------
INTERNAL COORDINATES (ANGSTROEM)
--------------------------------
 Sc     0   0   0     0.000000000000     0.00000000     0.00000000
 S      1   0   0     2.141592376946     0.00000000     0.00000000

---------------------------
INTERNAL COORDINATES (A.U.)
---------------------------
 Sc     0   0   0     0.000000000000     0.00000000     0.00000000
 S      1   0   0     4.047023082921     0.00000000     0.00000000

---------------------
BASIS SET INFORMATION
---------------------
There are 2 groups of distinct atoms

 Group   1 Type Sc  : 116s77p23d3f2g contracted to 8s7p5d3f2g pattern {19191919191911/151515151511/77711/111/11}
 Group   2 Type S   : 42s17p3d2f contracted to 6s5p3d2f pattern {131313111/77111/111/11}

Atom   0Sc   basis set group =>   1
Atom   1S    basis set group =>   2
----------------------------------
AUXILIARY/JK BASIS SET INFORMATION
----------------------------------
There are 2 groups of distinct atoms

 Group   1 Type Sc  : 19s14p12d10f7g3h1i contracted to 16s13p11d9f5g3h1i pattern {4111111111111111/2111111111111/21111111111/211111111/31111/111/1}
 Group   2 Type S   : 16s12p10d4f1g contracted to 13s11p9d4f1g pattern {4111111111111/21111111111/211111111/1111/1}

Atom   0Sc   basis set group =>   1
Atom   1S    basis set group =>   2


           ************************************************************
           *        Program running with 24 parallel MPI-processes    *
           *              working on a common directory               *
           ************************************************************
------------------------------------------------------------------------------
                           ORCA GTO INTEGRAL CALCULATION
------------------------------------------------------------------------------

                         BASIS SET STATISTICS AND STARTUP INFO

 # of primitive gaussian shells          ...  285
 # of primitive gaussian functions       ...  623
 # of contracted shells                  ...   41
 # of contracted basis functions         ...  143
 Highest angular momentum                ...    4
 Maximum contraction depth               ...   19
 Integral package used                   ... LIBINT
 Integral threshhold            Thresh   ...  1.000e-10
 Primitive cut-off              TCut     ...  1.000e-11


------------------------------ INTEGRAL EVALUATION ----------------------------


 * One electron integrals 
 Pre-screening matrix                    ... done
 Shell pair data                         ... done (   0.001 sec)



           ************************************************************
           *        Program running with 24 parallel MPI-processes    *
           *              working on a common directory               *
           ************************************************************
-------------------------------------------------------------------------------
                                 ORCA SCF
-------------------------------------------------------------------------------

------------
SCF SETTINGS
------------
Hamiltonian:
 Density Functional     Method          .... DFT(GTOs)
 Exchange Functional    Exchange        .... TPSS
 Correlation Functional Correlation     .... TPSS
 LDA part of GGA corr.  LDAOpt          .... PW91-LDA
 Gradients option       PostSCFGGA      .... off
 Hybrid DFT is turned on
   Fraction HF Exchange ScalHFX         ....  0.100000
   Scaling of DF-GGA-X  ScalDFX         ....  0.900000
   Scaling of DF-GGA-C  ScalDFC         ....  1.000000
   Scaling of DF-LDA-C  ScalLDAC        ....  1.000000
   Perturbative correction              ....  0.000000
   Density functional embedding theory  .... OFF
   NL short-range parameter             ....  5.200000


General Settings:
 Integral files         IntName         .... 06_ScS
 Hartree-Fock type      HFTyp           .... UHF
 Total Charge           Charge          ....    0
 Multiplicity           Mult            ....    2
 Number of Electrons    NEL             ....   37
 Basis Dimension        Dim             ....  143
 Nuclear Repulsion      ENuc            ....     83.0239890200 Eh

Convergence Acceleration:
 DIIS                   CNVDIIS         .... on
   Start iteration      DIISMaxIt       ....    12
   Startup error        DIISStart       ....  0.200000
   # of expansion vecs  DIISMaxEq       ....     5
   Bias factor          DIISBfac        ....   1.050
   Max. coefficient     DIISMaxC        ....  10.000
 Newton-Raphson         CNVNR           .... off
 SOSCF                  CNVSOSCF        .... off
 Level Shifting         CNVShift        .... on
   Level shift para.    LevelShift      ....    0.2500
   Turn off err/grad.   ShiftErr        ....    0.0010
 Zerner damping         CNVZerner       .... off
 Static damping         CNVDamp         .... on
   Fraction old density DampFac         ....    0.7000
   Max. Damping (<1)    DampMax         ....    0.9800
   Min. Damping (>=0)   DampMin         ....    0.0000
   Turn off err/grad.   DampErr         ....    0.1000
 Fernandez-Rico         CNVRico         .... off

SCF Procedure:
 Maximum # iterations   MaxIter         ....   125
 SCF integral mode      SCFMode         .... Direct
   Integral package                     .... LIBINT
 Reset frequency        DirectResetFreq ....    20
 Integral Threshold     Thresh          ....  1.000e-10 Eh
 Primitive CutOff       TCut            ....  1.000e-11 Eh

Convergence Tolerance:
 Convergence Check Mode ConvCheckMode   .... Total+1el-Energy
 Convergence forced     ConvForced      .... 0
 Energy Change          TolE            ....  1.000e-06 Eh
 1-El. energy change                    ....  1.000e-03 Eh
 DIIS Error             TolErr          ....  1.000e-06


Diagonalization of the overlap matrix:
Smallest eigenvalue                        ... 6.249e-05
Time for diagonalization                   ...    0.005 sec
Threshold for overlap eigenvalues          ... 1.000e-08
Number of eigenvalues below threshold      ... 0
Time for construction of square roots      ...    0.003 sec
Total time needed                          ...    0.008 sec

-------------------
DFT GRID GENERATION
-------------------

General Integration Accuracy     IntAcc      ...  4.670
Radial Grid Type                 RadialGrid  ... Gauss-Chebyshev
Angular Grid (max. acc.)         AngularGrid ... Lebedev-302
Angular grid pruning method      GridPruning ... 3 (G Style)
Weight generation scheme         WeightScheme... Becke
Basis function cutoff            BFCut       ...    1.0000e-10
Integration weight cutoff        WCut        ...    1.0000e-14
Grids for H and He will be reduced by one unit

# of grid points (after initial pruning)     ...  16510 (   0.0 sec)
# of grid points (after weights+screening)   ...  16482 (   0.0 sec)
nearest neighbour list constructed           ...    0.0 sec
Grid point re-assignment to atoms done       ...    0.0 sec
Grid point division into batches done        ...    0.1 sec
Reduced shell lists constructed in    0.1 sec

Total number of grid points                  ...    16482
Total number of batches                      ...      259
Average number of points per batch           ...       63
Average number of grid points per atom       ...     8241
Average number of shells per batch           ...    21.33 (52.03%)
Average number of basis functions per batch  ...    68.50 (47.90%)
Average number of large shells per batch     ...    14.00 (65.62%)
Average number of large basis fcns per batch ...    45.50 (66.42%)
Maximum spatial batch extension              ...  26.53, 26.21, 18.83 au
Average spatial batch extension              ...   0.91,  0.90,  0.69 au

Time for grid setup =    0.160 sec

------------------------------
INITIAL GUESS: MODEL POTENTIAL
------------------------------
Loading Hartree-Fock densities                     ... done
Calculating cut-offs                               ... done
Setting up the integral package                    ... done
Initializing the effective Hamiltonian             ... done
Starting the Coulomb interaction                   ... done (   0.0 sec)
Reading the grid                                   ... done
Mapping shells                                     ... done
Starting the XC term evaluation                    ... done (   0.0 sec)
  promolecular density results
     # of electrons  =     37.000027201
     EX              =    -62.742301873
     EC              =     -1.448224405
     EX+EC           =    -64.190526278
Transforming the Hamiltonian                       ... done (   0.0 sec)
Diagonalizing the Hamiltonian                      ... done (   0.0 sec)
Back transforming the eigenvectors                 ... done (   0.0 sec)
Now organizing SCF variables                       ... done
                      ------------------
                      INITIAL GUESS DONE (   0.3 sec)
                      ------------------
--------------
SCF ITERATIONS
--------------
ITER       Energy         Delta-E        Max-DP      RMS-DP      [F,P]     Damp
               ***  Starting incremental Fock matrix formation  ***
  0  -1158.8224608599   0.000000000000 0.07224957  0.00159067  0.1715587 0.7000
  1  -1158.8946724833  -0.072211623409 0.08901982  0.00175807  0.0672910 0.7000
                               ***Turning on DIIS***
  2  -1158.9081741699  -0.013501686571 0.22980678  0.00422103  0.0482708 0.0000
  3  -1158.9515589408  -0.043384770908 0.14276819  0.00262578  0.0557691 0.0000
  4  -1158.9564025872  -0.004843646419 0.03133338  0.00043065  0.0400707 0.0000
  5  -1158.9598521097  -0.003449522502 0.02832098  0.00027967  0.0238438 0.0000
  6  -1158.9611518454  -0.001299735619 0.04621104  0.00038604  0.0126509 0.0000
  7  -1158.9616497114  -0.000497866027 0.04021171  0.00032497  0.0064669 0.0000
  8  -1158.9618719603  -0.000222248886 0.03177091  0.00024825  0.0034408 0.0000
  9  -1158.9619970877  -0.000125127381 0.02577178  0.00020091  0.0018452 0.0000
 10  -1158.9620776869  -0.000080599230 0.02343006  0.00018650  0.0019621 0.0000
 11  -1158.9621451145  -0.000067427649 0.02024077  0.00016247  0.0013168 0.0000
 12  -1158.9621934356  -0.000048321046 0.01443443  0.00010740  0.0011319 0.0000
 13  -1158.9622234177  -0.000029982101 0.05237693  0.00038661  0.0009053 0.0000
 14  -1158.9622751433  -0.000051725581 0.00554148  0.00004900  0.0004837 0.0000
 15  -1158.9622752676  -0.000000124351 0.00466928  0.00003899  0.0006171 0.0000
                 **** Energy Check signals convergence ****

               *****************************************************
               *                     SUCCESS                       *
               *           SCF CONVERGED AFTER  16 CYCLES          *
               *****************************************************


----------------
TOTAL SCF ENERGY
----------------

Total Energy       :        -1158.96227603 Eh          -31536.96684 eV

Components:
Nuclear Repulsion  :           83.02398902 Eh            2259.19760 eV
Electronic Energy  :        -1241.98626505 Eh          -33796.16444 eV
One Electron Energy:        -1757.49186330 Eh          -47823.78491 eV
Two Electron Energy:          515.50559825 Eh           14027.62048 eV

Virial components:
Potential Energy   :        -2315.60157538 Eh          -63010.72227 eV
Kinetic Energy     :         1156.63929934 Eh           31473.75543 eV
Virial Ratio       :            2.00200838


DFT components:
N(Alpha)           :       19.000002631259 electrons
N(Beta)            :       18.000003419436 electrons
N(Total)           :       37.000006050695 electrons
E(X)               :      -56.949829687232 Eh       
E(C)               :       -1.466831597250 Eh       
E(XC)              :      -58.416661284482 Eh       
DFET-embed. en.    :        0.000000000000 Eh       

---------------
SCF CONVERGENCE
---------------

  Last Energy change         ...   -7.6452e-07  Tolerance :   1.0000e-06
  Last MAX-Density change    ...    1.8058e-03  Tolerance :   1.0000e-05
  Last RMS-Density change    ...    1.4007e-05  Tolerance :   1.0000e-06
  Last DIIS Error            ...    2.6325e-04  Tolerance :   1.0000e-06

             **** THE GBW FILE WAS UPDATED (06_ScS.gbw) ****
             **** DENSITY FILE WAS UPDATED (06_ScS.scfp) ****
             **** ENERGY FILE WAS UPDATED (06_ScS.en.tmp) ****
----------------------
UHF SPIN CONTAMINATION
----------------------

Warning: in a DFT calculation there is little theoretical justification to 
         calculate <S**2> as in Hartree-Fock theory. We will do it anyways
         but you should keep in mind that the values have only limited relevance

Expectation value of <S**2>     :     0.754117
Ideal value S*(S+1) for S=0.5   :     0.750000
Deviation                       :     0.004117

             **** THE GBW FILE WAS UPDATED (06_ScS.gbw) ****
             **** DENSITY FILE WAS UPDATED (06_ScS.scfp) ****
----------------
ORBITAL ENERGIES
----------------
                 SPIN UP ORBITALS
  NO   OCC          E(Eh)            E(eV) 
   0   1.0000    -161.542560     -4395.7965 
   1   1.0000     -88.677769     -2413.0448 
   2   1.0000     -17.522641      -476.8153 
   3   1.0000     -14.429638      -392.6504 
   4   1.0000     -14.429638      -392.6504 
   5   1.0000     -14.420793      -392.4097 
   6   1.0000      -7.804954      -212.3836 
   7   1.0000      -5.752248      -156.5266 
   8   1.0000      -5.752248      -156.5266 
   9   1.0000      -5.751296      -156.5007 
  10   1.0000      -2.088027       -56.8181 
  11   1.0000      -1.290440       -35.1147 
  12   1.0000      -1.290440       -35.1147 
  13   1.0000      -1.282061       -34.8867 
  14   1.0000      -0.590450       -16.0670 
  15   1.0000      -0.243403        -6.6233 
  16   1.0000      -0.227712        -6.1964 
  17   1.0000      -0.227712        -6.1964 
  18   1.0000      -0.168854        -4.5947 
  19   0.0000      -0.107526        -2.9259 
  20   0.0000      -0.107526        -2.9259 
  21   0.0000      -0.089369        -2.4319 
  22   0.0000      -0.089369        -2.4319 
  23   0.0000      -0.081669        -2.2223 
  24   0.0000      -0.025005        -0.6804 
  25   0.0000      -0.025005        -0.6804 
  26   0.0000      -0.002604        -0.0709 
  27   0.0000       0.006313         0.1718 
  28   0.0000       0.016339         0.4446 
  29   0.0000       0.016339         0.4446 
  30   0.0000       0.020522         0.5584 
  31   0.0000       0.020525         0.5585 
  32   0.0000       0.025716         0.6998 
  33   0.0000       0.025716         0.6998 
  34   0.0000       0.027142         0.7386 
  35   0.0000       0.054799         1.4912 
  36   0.0000       0.071096         1.9346 
  37   0.0000       0.081388         2.2147 
  38   0.0000       0.081390         2.2147 
  39   0.0000       0.086932         2.3655 
  40   0.0000       0.086932         2.3655 
  41   0.0000       0.088659         2.4125 
  42   0.0000       0.098233         2.6731 
  43   0.0000       0.098233         2.6731 
  44   0.0000       0.109170         2.9707 
  45   0.0000       0.109170         2.9707 
  46   0.0000       0.111090         3.0229 
  47   0.0000       0.112038         3.0487 
  48   0.0000       0.112038         3.0487 
  49   0.0000       0.113084         3.0772 
  50   0.0000       0.113084         3.0772 
  51   0.0000       0.146217         3.9788 
  52   0.0000       0.172436         4.6922 
  53   0.0000       0.172436         4.6922 
  54   0.0000       0.201350         5.4790 
  55   0.0000       0.258332         7.0296 
  56   0.0000       0.259019         7.0483 
  57   0.0000       0.259020         7.0483 
  58   0.0000       0.299723         8.1559 
  59   0.0000       0.299723         8.1559 
  60   0.0000       0.328508         8.9391 
  61   0.0000       0.328508         8.9392 
  62   0.0000       0.333761         9.0821 
  63   0.0000       0.347902         9.4669 
  64   0.0000       0.356139         9.6910 
  65   0.0000       0.356139         9.6910 
  66   0.0000       0.385006        10.4765 
  67   0.0000       0.385006        10.4765 
  68   0.0000       0.387835        10.5535 
  69   0.0000       0.387837        10.5536 
  70   0.0000       0.389848        10.6083 
  71   0.0000       0.389850        10.6084 
  72   0.0000       0.399159        10.8617 
  73   0.0000       0.416098        11.3226 
  74   0.0000       0.416098        11.3226 
  75   0.0000       0.451225        12.2784 
  76   0.0000       0.451225        12.2784 
  77   0.0000       0.454895        12.3783 
  78   0.0000       0.483312        13.1516 
  79   0.0000       0.483312        13.1516 
  80   0.0000       0.557134        15.1604 
  81   0.0000       0.557134        15.1604 
  82   0.0000       0.565037        15.3754 
  83   0.0000       0.565037        15.3754 
  84   0.0000       0.587668        15.9912 
  85   0.0000       0.605743        16.4831 
  86   0.0000       0.605743        16.4831 
  87   0.0000       0.672413        18.2973 
  88   0.0000       0.672424        18.2976 
  89   0.0000       0.690410        18.7870 
  90   0.0000       0.820021        22.3139 
  91   0.0000       0.829876        22.5821 
  92   0.0000       0.829876        22.5821 
  93   0.0000       0.913673        24.8623 
  94   0.0000       0.913673        24.8623 
  95   0.0000       0.964667        26.2499 
  96   0.0000       1.010064        27.4852 
  97   0.0000       1.010065        27.4853 
  98   0.0000       1.068098        29.0644 
  99   0.0000       1.068098        29.0644 
 100   0.0000       1.080495        29.4018 
 101   0.0000       1.313752        35.7490 
 102   0.0000       1.313762        35.7493 
 103   0.0000       1.391163        37.8555 
 104   0.0000       1.439973        39.1837 
 105   0.0000       1.439973        39.1837 
 106   0.0000       1.602334        43.6017 
 107   0.0000       1.602334        43.6017 
 108   0.0000       1.615550        43.9613 
 109   0.0000       1.701431        46.2983 
 110   0.0000       1.786850        48.6227 
 111   0.0000       1.786861        48.6230 
 112   0.0000       1.794232        48.8235 
 113   0.0000       1.794232        48.8235 
 114   0.0000       1.801752        49.0282 
 115   0.0000       1.801765        49.0285 
 116   0.0000       1.909152        51.9507 
 117   0.0000       1.928860        52.4870 
 118   0.0000       1.928913        52.4884 
 119   0.0000       1.937483        52.7216 
 120   0.0000       1.937483        52.7216 
 121   0.0000       2.009532        54.6822 
 122   0.0000       2.009532        54.6822 
 123   0.0000       2.013735        54.7965 
 124   0.0000       2.052378        55.8480 
 125   0.0000       2.052378        55.8480 
 126   0.0000       2.056803        55.9684 
 127   0.0000       2.056818        55.9689 
 128   0.0000       2.130450        57.9725 
 129   0.0000       2.130450        57.9725 
 130   0.0000       2.192046        59.6486 
 131   0.0000       2.192046        59.6486 
 132   0.0000       2.253919        61.3322 
 133   0.0000       2.254152        61.3386 
 134   0.0000       2.254152        61.3386 
 135   0.0000       2.294000        62.4229 
 136   0.0000       2.294001        62.4229 
 137   0.0000       2.423797        65.9549 
 138   0.0000       2.527374        68.7733 
 139   0.0000       2.666103        72.5484 
 140   0.0000       2.666103        72.5484 
 141   0.0000       3.503561        95.3367 
 142   0.0000       5.402417       147.0072 

                 SPIN DOWN ORBITALS
  NO   OCC          E(Eh)            E(eV) 
   0   1.0000    -161.541881     -4395.7781 
   1   1.0000     -88.678079     -2413.0532 
   2   1.0000     -17.519819      -476.7385 
   3   1.0000     -14.427804      -392.6005 
   4   1.0000     -14.427804      -392.6005 
   5   1.0000     -14.417432      -392.3183 
   6   1.0000      -7.805224      -212.3910 
   7   1.0000      -5.752687      -156.5386 
   8   1.0000      -5.752687      -156.5386 
   9   1.0000      -5.751742      -156.5129 
  10   1.0000      -2.077580       -56.5338 
  11   1.0000      -1.283196       -34.9175 
  12   1.0000      -1.283196       -34.9175 
  13   1.0000      -1.262814       -34.3629 
  14   1.0000      -0.592042       -16.1103 
  15   1.0000      -0.240577        -6.5464 
  16   1.0000      -0.227796        -6.1986 
  17   1.0000      -0.227796        -6.1986 
  18   0.0000      -0.119351        -3.2477 
  19   0.0000      -0.091670        -2.4945 
  20   0.0000      -0.091667        -2.4944 
  21   0.0000      -0.076639        -2.0854 
  22   0.0000      -0.076639        -2.0854 
  23   0.0000      -0.062231        -1.6934 
  24   0.0000      -0.013842        -0.3766 
  25   0.0000      -0.013842        -0.3766 
  26   0.0000       0.010158         0.2764 
  27   0.0000       0.013037         0.3548 
  28   0.0000       0.024480         0.6661 
  29   0.0000       0.024481         0.6661 
  30   0.0000       0.029788         0.8106 
  31   0.0000       0.029791         0.8107 
  32   0.0000       0.031087         0.8459 
  33   0.0000       0.031087         0.8459 
  34   0.0000       0.032464         0.8834 
  35   0.0000       0.059891         1.6297 
  36   0.0000       0.084125         2.2892 
  37   0.0000       0.089828         2.4444 
  38   0.0000       0.089834         2.4445 
  39   0.0000       0.095633         2.6023 
  40   0.0000       0.095633         2.6023 
  41   0.0000       0.098790         2.6882 
  42   0.0000       0.107430         2.9233 
  43   0.0000       0.107430         2.9233 
  44   0.0000       0.113274         3.0824 
  45   0.0000       0.116417         3.1679 
  46   0.0000       0.116419         3.1679 
  47   0.0000       0.120470         3.2782 
  48   0.0000       0.120470         3.2782 
  49   0.0000       0.127283         3.4635 
  50   0.0000       0.127283         3.4635 
  51   0.0000       0.155367         4.2278 
  52   0.0000       0.182546         4.9673 
  53   0.0000       0.182546         4.9673 
  54   0.0000       0.210163         5.7188 
  55   0.0000       0.262118         7.1326 
  56   0.0000       0.262120         7.1326 
  57   0.0000       0.267339         7.2747 
  58   0.0000       0.299639         8.1536 
  59   0.0000       0.299639         8.1536 
  60   0.0000       0.334077         9.0907 
  61   0.0000       0.340795         9.2735 
  62   0.0000       0.340812         9.2740 
  63   0.0000       0.353812         9.6277 
  64   0.0000       0.371692        10.1143 
  65   0.0000       0.371692        10.1143 
  66   0.0000       0.379103        10.3159 
  67   0.0000       0.379103        10.3159 
  68   0.0000       0.392851        10.6900 
  69   0.0000       0.392853        10.6901 
  70   0.0000       0.393512        10.7080 
  71   0.0000       0.393515        10.7081 
  72   0.0000       0.407599        11.0913 
  73   0.0000       0.414389        11.2761 
  74   0.0000       0.414389        11.2761 
  75   0.0000       0.456209        12.4141 
  76   0.0000       0.457328        12.4445 
  77   0.0000       0.457329        12.4445 
  78   0.0000       0.499438        13.5904 
  79   0.0000       0.499438        13.5904 
  80   0.0000       0.559444        15.2233 
  81   0.0000       0.559455        15.2236 
  82   0.0000       0.566904        15.4262 
  83   0.0000       0.566904        15.4262 
  84   0.0000       0.588942        16.0259 
  85   0.0000       0.607451        16.5296 
  86   0.0000       0.607451        16.5296 
  87   0.0000       0.672449        18.2983 
  88   0.0000       0.672460        18.2986 
  89   0.0000       0.691982        18.8298 
  90   0.0000       0.821343        22.3499 
  91   0.0000       0.829690        22.5770 
  92   0.0000       0.829690        22.5770 
  93   0.0000       0.914402        24.8821 
  94   0.0000       0.914402        24.8821 
  95   0.0000       0.965083        26.2612 
  96   0.0000       1.011783        27.5320 
  97   0.0000       1.011789        27.5322 
  98   0.0000       1.063502        28.9394 
  99   0.0000       1.063502        28.9394 
 100   0.0000       1.083616        29.4867 
 101   0.0000       1.320254        35.9260 
 102   0.0000       1.320262        35.9262 
 103   0.0000       1.399695        38.0876 
 104   0.0000       1.444059        39.2948 
 105   0.0000       1.444059        39.2948 
 106   0.0000       1.611621        43.8544 
 107   0.0000       1.611621        43.8544 
 108   0.0000       1.625471        44.2313 
 109   0.0000       1.704734        46.3882 
 110   0.0000       1.799222        48.9593 
 111   0.0000       1.799222        48.9593 
 112   0.0000       1.800530        48.9949 
 113   0.0000       1.800541        48.9952 
 114   0.0000       1.802078        49.0370 
 115   0.0000       1.802087        49.0373 
 116   0.0000       1.915318        52.1185 
 117   0.0000       1.928532        52.4780 
 118   0.0000       1.928595        52.4797 
 119   0.0000       1.941877        52.8412 
 120   0.0000       1.941877        52.8412 
 121   0.0000       2.020318        54.9756 
 122   0.0000       2.020318        54.9756 
 123   0.0000       2.021207        54.9998 
 124   0.0000       2.051390        55.8212 
 125   0.0000       2.051390        55.8212 
 126   0.0000       2.058203        56.0066 
 127   0.0000       2.058212        56.0068 
 128   0.0000       2.136154        58.1277 
 129   0.0000       2.136154        58.1277 
 130   0.0000       2.190350        59.6025 
 131   0.0000       2.190350        59.6025 
 132   0.0000       2.253630        61.3244 
 133   0.0000       2.253720        61.3268 
 134   0.0000       2.253720        61.3268 
 135   0.0000       2.293212        62.4015 
 136   0.0000       2.293212        62.4015 
 137   0.0000       2.425288        65.9954 
 138   0.0000       2.528087        68.7927 
 139   0.0000       2.666033        72.5465 
 140   0.0000       2.666033        72.5465 
 141   0.0000       3.507402        95.4413 
 142   0.0000       5.401877       146.9926 

                    ********************************
                    * MULLIKEN POPULATION ANALYSIS *
                    ********************************

--------------------------------------------
MULLIKEN ATOMIC CHARGES AND SPIN POPULATIONS
--------------------------------------------
   0 Sc:    0.308639    1.031797
   1 S :   -0.308639   -0.031797
Sum of atomic charges         :   -0.0000000
Sum of atomic spin populations:    1.0000000

-----------------------------------------------------
MULLIKEN REDUCED ORBITAL CHARGES AND SPIN POPULATIONS
-----------------------------------------------------
CHARGE
  0 Scs       :     6.909784  s :     6.909784
      pz      :     4.156941  p :    12.297171
      px      :     4.070115
      py      :     4.070115
      dz2     :     0.615745  d :     1.430352
      dxz     :     0.407303
      dyz     :     0.407303
      dx2y2   :     0.000000
      dxy     :     0.000000
      f0      :     0.005085  f :     0.041626
      f+1     :     0.018271
      f-1     :     0.018271
      f+2     :     0.000000
      f-2     :     0.000000
      f+3     :     0.000000
      f-3     :     0.000000
      g0      :     0.000447  g :     0.012428
      g+1     :     0.005991
      g-1     :     0.005991
      g+2     :     0.000000
      g-2     :     0.000000
      g+3     :     0.000000
      g-3     :     0.000000
      g+4     :     0.000000
      g-4     :     0.000000
  1 S s       :     5.926434  s :     5.926434
      pz      :     3.378044  p :    10.353241
      px      :     3.487599
      py      :     3.487599
      dz2     :     0.005090  d :     0.023822
      dxz     :     0.009366
      dyz     :     0.009366
      dx2y2   :     0.000000
      dxy     :     0.000000
      f0      :     0.002431  f :     0.005142
      f+1     :     0.001355
      f-1     :     0.001355
      f+2     :     0.000000
      f-2     :     0.000000
      f+3     :     0.000000
      f-3     :     0.000000

SPIN
  0 Scs       :     0.630162  s :     0.630162
      pz      :     0.105746  p :     0.114141
      px      :     0.004198
      py      :     0.004198
      dz2     :     0.251229  d :     0.291929
      dxz     :     0.020350
      dyz     :     0.020350
      dx2y2   :     0.000000
      dxy     :     0.000000
      f0      :    -0.000144  f :    -0.003702
      f+1     :    -0.001779
      f-1     :    -0.001779
      f+2     :     0.000000
      f-2     :    -0.000000
      f+3     :    -0.000000
      f-3     :    -0.000000
      g0      :     0.000008  g :    -0.000733
      g+1     :    -0.000371
      g-1     :    -0.000371
      g+2     :     0.000000
      g-2     :    -0.000000
      g+3     :    -0.000000
      g-3     :    -0.000000
      g+4     :    -0.000000
      g-4     :     0.000000
  1 S s       :     0.050364  s :     0.050364
      pz      :    -0.038107  p :    -0.083496
      px      :    -0.022695
      py      :    -0.022695
      dz2     :    -0.000215  d :     0.000494
      dxz     :     0.000355
      dyz     :     0.000355
      dx2y2   :     0.000000
      dxy     :    -0.000000
      f0      :     0.000957  f :     0.000841
      f+1     :    -0.000058
      f-1     :    -0.000058
      f+2     :     0.000000
      f-2     :     0.000000
      f+3     :     0.000000
      f-3     :     0.000000


                     *******************************
                     * LOEWDIN POPULATION ANALYSIS *
                     *******************************

-------------------------------------------
LOEWDIN ATOMIC CHARGES AND SPIN POPULATIONS
-------------------------------------------
   0 Sc:    0.093938    0.945672
   1 S :   -0.093938    0.054328

----------------------------------------------------
LOEWDIN REDUCED ORBITAL CHARGES AND SPIN POPULATIONS
----------------------------------------------------
CHARGE
  0 Scs       :     6.565619  s :     6.565619
      pz      :     4.230081  p :    12.211026
      px      :     3.990472
      py      :     3.990472
      dz2     :     0.772983  d :     1.668464
      dxz     :     0.447740
      dyz     :     0.447740
      dx2y2   :     0.000000
      dxy     :     0.000000
      f0      :     0.119522  f :     0.283427
      f+1     :     0.081953
      f-1     :     0.081953
      f+2     :     0.000000
      f-2     :     0.000000
      f+3     :     0.000000
      f-3     :     0.000000
      g0      :     0.066624  g :     0.177527
      g+1     :     0.055451
      g-1     :     0.055451
      g+2     :     0.000000
      g-2     :     0.000000
      g+3     :     0.000000
      g-3     :     0.000000
      g+4     :     0.000000
      g-4     :     0.000000
  1 S s       :     5.427014  s :     5.427014
      pz      :     3.525841  p :    10.169130
      px      :     3.321644
      py      :     3.321644
      dz2     :     0.187478  d :     0.307422
      dxz     :     0.059972
      dyz     :     0.059972
      dx2y2   :     0.000000
      dxy     :     0.000000
      f0      :     0.104838  f :     0.190373
      f+1     :     0.042768
      f-1     :     0.042768
      f+2     :     0.000000
      f-2     :     0.000000
      f+3     :     0.000000
      f-3     :     0.000000

SPIN
  0 Scs       :     0.605001  s :     0.605001
      pz      :     0.085967  p :     0.088743
      px      :     0.001388
      py      :     0.001388
      dz2     :     0.232522  d :     0.261707
      dxz     :     0.014592
      dyz     :     0.014592
      dx2y2   :     0.000000
      dxy     :     0.000000
      f0      :     0.000356  f :    -0.006878
      f+1     :    -0.003617
      f-1     :    -0.003617
      f+2     :     0.000000
      f-2     :    -0.000000
      f+3     :    -0.000000
      f-3     :    -0.000000
      g0      :    -0.000497  g :    -0.002901
      g+1     :    -0.001202
      g-1     :    -0.001202
      g+2     :     0.000000
      g-2     :    -0.000000
      g+3     :    -0.000000
      g-3     :    -0.000000
      g+4     :    -0.000000
      g-4     :     0.000000
  1 S s       :     0.030031  s :     0.030031
      pz      :     0.037725  p :     0.011137
      px      :    -0.013294
      py      :    -0.013294
      dz2     :     0.007418  d :     0.010785
      dxz     :     0.001684
      dyz     :     0.001684
      dx2y2   :     0.000000
      dxy     :    -0.000000
      f0      :     0.001477  f :     0.002374
      f+1     :     0.000449
      f-1     :     0.000449
      f+2     :     0.000000
      f-2     :     0.000000
      f+3     :    -0.000000
      f-3     :    -0.000000


                      *****************************
                      * MAYER POPULATION ANALYSIS *
                      *****************************

  NA   - Mulliken gross atomic population
  ZA   - Total nuclear charge
  QA   - Mulliken gross atomic charge
  VA   - Mayer's total valence
  BVA  - Mayer's bonded valence
  FA   - Mayer's free valence

  ATOM       NA         ZA         QA         VA         BVA        FA
  0 Sc    20.6914    21.0000     0.3086     3.4481     2.5529     0.8952
  1 S     16.3086    16.0000    -0.3086     2.5602     2.5529     0.0074

  Mayer bond orders larger than 0.100000
B(  0-Sc,  1-S ) :   2.5529 

-------
TIMINGS
-------

Total SCF time: 0 days 0 hours 2 min 17 sec 

Total time                  ....     137.146 sec
Sum of individual times     ....     136.793 sec  ( 99.7%)

Fock matrix formation       ....     136.391 sec  ( 99.4%)
  XC integration            ....       0.796 sec  (  0.6% of F)
    Basis function eval.    ....       0.100 sec  ( 12.5% of XC)
    Density eval.           ....       0.110 sec  ( 13.9% of XC)
    XC-Functional eval.     ....       0.024 sec  (  3.0% of XC)
    XC-Potential eval.      ....       0.316 sec  ( 39.8% of XC)
Diagonalization             ....       0.085 sec  (  0.1%)
Density matrix formation    ....       0.011 sec  (  0.0%)
Population analysis         ....       0.006 sec  (  0.0%)
Initial guess               ....       0.109 sec  (  0.1%)
Orbital Transformation      ....       0.000 sec  (  0.0%)
Orbital Orthonormalization  ....       0.000 sec  (  0.0%)
DIIS solution               ....       0.030 sec  (  0.0%)
Grid generation             ....       0.160 sec  (  0.1%)


-------------------------------------------------------------------------------
                          DFT DISPERSION CORRECTION                            
                                                                               
                              DFTD3 V3.1  Rev 1                                
                          USING Becke-Johnson damping                          
-------------------------------------------------------------------------------
The TPSSH functional is recognized
Active option DFTDOPT                   ...         4   

molecular C6(AA) [au] = 1166.728510 


            DFT-D V3
 parameters
 s6 scaling factor         :     1.0000 
 a1 scaling factor         :     0.4529 
 s8 scaling factor         :     2.2382 
 a2 scaling factor         :     4.6550 
 ad hoc parameters k1-k3   :    16.0000     1.3333    -4.0000 

 Edisp/kcal,au: -1.192419822640  -0.001900241741 
 E6   /kcal   :  -0.352482171 
 E8   /kcal   :  -0.839937651 
 % E8         :  70.439759159 

-------------------------   ----------------
Dispersion correction           -0.001900242
-------------------------   ----------------


-------------------------   --------------------
FINAL SINGLE POINT ENERGY     -1158.964176273869
-------------------------   --------------------


                            ***************************************
                            *     ORCA property calculations      *
                            ***************************************

                                    ---------------------
                                    Active property flags
                                    ---------------------
   (+) Dipole Moment


------------------------------------------------------------------------------
                       ORCA ELECTRIC PROPERTIES CALCULATION
------------------------------------------------------------------------------

Dipole Moment Calculation                       ... on
Quadrupole Moment Calculation                   ... off
Polarizability Calculation                      ... off
GBWName                                         ... 06_ScS.gbw
Electron density file                           ... 06_ScS.scfp
The origin for moment calculation is the CENTER OF MASS  = ( 0.000000,  0.000000  1.550810)

-------------
DIPOLE MOMENT
-------------
                                X             Y             Z
Electronic contribution:      0.00000       0.00000      -4.53329
Nuclear contribution   :      0.00000       0.00000       2.42233
                        -----------------------------------------
Total Dipole Moment    :      0.00000       0.00000      -2.11096
                        -----------------------------------------
Magnitude (a.u.)       :      2.11096
Magnitude (Debye)      :      5.36563



--------------------
Rotational spectrum 
--------------------
 
Rotational constants in cm-1:     0.000000     0.196398     0.196398 
Rotational constants in MHz :     0.000000  5887.862686  5887.862686 

 Dipole components along the rotational axes: 
x,y,z [a.u.] :    -2.110958     0.000000     0.000000 
x,y,z [Debye]:    -5.365630     0.000000     0.000000 

 

Timings for individual modules:

Sum of individual times         ...      141.210 sec (=   2.353 min)
GTO integral calculation        ...        3.599 sec (=   0.060 min)   2.5 %
SCF iterations                  ...      137.611 sec (=   2.294 min)  97.5 %
                             ****ORCA TERMINATED NORMALLY****
TOTAL RUN TIME: 0 days 0 hours 2 minutes 21 seconds 867 msec
