
                                 *****************
                                 * O   R   C   A *
                                 *****************

           --- An Ab Initio, DFT and Semiempirical electronic structure package ---

                  #######################################################
                  #                        -***-                        #
                  #          Department of theory and spectroscopy      #
                  #               Directorship: Frank Neese             #
                  #        Max Planck Institute fuer Kohlenforschung    #
                  #                Kaiser Wilhelm Platz 1               #
                  #                 D-45470 Muelheim/Ruhr               #
                  #                      Germany                        #
                  #                                                     #
                  #                  All rights reserved                #
                  #                        -***-                        #
                  #######################################################


                         Program Version 4.2.0 -  RELEASE  -


 With contributions from (in alphabetic order):
   Daniel Aravena         : Magnetic Suceptibility
   Michael Atanasov       : Ab Initio Ligand Field Theory (pilot matlab implementation)
   Alexander A. Auer      : GIAO ZORA, VPT2
   Ute Becker             : Parallelization
   Giovanni Bistoni       : ED, misc. LED, open-shell LED, HFLED
   Martin Brehm           : Molecular dynamics
   Dmytro Bykov           : SCF Hessian
   Vijay G. Chilkuri      : MRCI spin determinant printing, contributions to CSF-ICE
   Dipayan Datta          : RHF DLPNO-CCSD density
   Achintya Kumar Dutta   : EOM-CC, STEOM-CC
   Dmitry Ganyushin       : Spin-Orbit,Spin-Spin,Magnetic field MRCI
   Miquel Garcia          : C-PCM Hessian, Gaussian charge scheme
   Yang Guo               : DLPNO-NEVPT2, CIM, IAO-localization
   Andreas Hansen         : Spin unrestricted coupled pair/coupled cluster methods
   Benjamin Helmich-Paris : CASSCF linear response (MC-RPA)
   Lee Huntington         : MR-EOM, pCC
   Robert Izsak           : Overlap fitted RIJCOSX, COSX-SCS-MP3, EOM
   Christian Kollmar      : KDIIS, OOCD, Brueckner-CCSD(T), CCSD density
   Simone Kossmann        : Meta GGA functionals, TD-DFT gradient, OOMP2, MP2 Hessian
   Martin Krupicka        : AUTO-CI
   Lucas Lang             : DCDCAS
   Dagmar Lenk            : GEPOL surface, SMD
   Dimitrios Liakos       : Extrapolation schemes; Compound Job, initial MDCI parallelization
   Dimitrios Manganas     : Further ROCIS development; embedding schemes
   Dimitrios Pantazis     : SARC Basis sets
   Taras Petrenko         : DFT Hessian,TD-DFT gradient, ASA, ECA, R-Raman, ABS, FL, XAS/XES, NRVS
   Peter Pinski           : DLPNO-MP2, DLPNO-MP2 Gradient
   Christoph Reimann      : Effective Core Potentials
   Marius Retegan         : Local ZFS, SOC
   Christoph Riplinger    : Optimizer, TS searches, QM/MM, DLPNO-CCSD(T), (RO)-DLPNO pert. Triples
   Tobias Risthaus        : Range-separated hybrids, TD-DFT gradient, RPA, STAB
   Michael Roemelt        : Original ROCIS implementation
   Masaaki Saitow         : Open-shell DLPNO-CCSD energy and density
   Barbara Sandhoefer     : DKH picture change effects
   Avijit Sen             : IP-ROCIS
   Kantharuban Sivalingam : CASSCF convergence, NEVPT2, FIC-MRCI
   Bernardo de Souza      : ESD, SOC TD-DFT
   Georgi Stoychev        : AutoAux, RI-MP2 NMR
   Willem Van den Heuvel  : Paramagnetic NMR
   Boris Wezisla          : Elementary symmetry handling
   Frank Wennmohs         : Technical directorship


 We gratefully acknowledge several colleagues who have allowed us to
 interface, adapt or use parts of their codes:
   Stefan Grimme, W. Hujo, H. Kruse,             : VdW corrections, initial TS optimization,
                  C. Bannwarth                     DFT functionals, gCP, sTDA/sTD-DF
   Ed Valeev, F. Pavosevic, A. Kumar             : LibInt (2-el integral package), F12 methods
   Garnet Chan, S. Sharma, J. Yang, R. Olivares  : DMRG
   Ulf Ekstrom                                   : XCFun DFT Library
   Mihaly Kallay                                 : mrcc  (arbitrary order and MRCC methods)
   Andreas Klamt, Michael Diedenhofen            : otool_cosmo (COSMO solvation model)
   Jiri Pittner, Ondrej Demel                    : Mk-CCSD
   Frank Weinhold                                : gennbo (NPA and NBO analysis)
   Christopher J. Cramer and Donald G. Truhlar   : smd solvation model
   Lars Goerigk                                  : TD-DFT with DH, B97 family of functionals
   V. Asgeirsson, H. Jonsson                     : NEB implementation
   FAccTs GmbH                                   : IRC, NEB, NEB-TS, Multilevel, MM, QM/MM, CI optimization
   S Lehtola, MJT Oliveira, MAL Marques          : LibXC Library


 Your calculation uses the libint2 library for the computation of 2-el integrals
 For citations please refer to: http://libint.valeyev.net

 Your ORCA version has been built with support for libXC version: 4.2.3
 For citations please refer to: https://tddft.org/programs/libxc/

 This ORCA versions uses:
   CBLAS   interface :  Fast vector & matrix operations
   LAPACKE interface :  Fast linear algebra routines
   SCALAPACK package :  Parallel linear algebra routines


Your calculation utilizes the atom-pairwise dispersion correction
with the Becke-Johnson damping scheme (D3BJ)
Cite in your paper:
S.Grimme, S.Ehrlich, L.Goerigk, J Comput Chem, (2011), 32, 1456–1465 
S.Grimme, J.Antony, S.Ehrlich and H.Krieg, J.Chem.Phys., 132, (2010), 154104 
   

----- Orbital basis set information -----
Your calculation utilizes the basis: aug-cc-pVTZ 
    H, B-Ne : Obtained from the ccRepo (grant-hill.group.shef.ac.uk/ccrepo) Feb. 2017
              R. A. Kendall, T. H. Dunning, Jr., R. J. Harrison, J. Chem. Phys. 96, 6796 (1992)
         He : Obtained from the ccRepo (grant-hill.group.shef.ac.uk/ccrepo) Feb. 2017
              D. E. Woon, T. H. Dunning, Jr., J. Chem. Phys. 100, 2975 (1994)
  Li-Be, Na : Obtained from the ccRepo (grant-hill.group.shef.ac.uk/ccrepo) Feb. 2017
              B. P. Prascher, D. E. Woon, K. A. Peterson, T. H. Dunning, Jr., A. K. Wilson, Theor. Chem. Acc. 128, 69 (2011)
         Mg : Obtained from the Peterson Research Group Website (tyr0.chem.wsu.edu/~kipeters) Feb. 2017
              B. P. Prascher, D. E. Woon, K. A. Peterson, T. H. Dunning, Jr., A. K. Wilson, Theor. Chem. Acc. 128, 69 (2011)
      Al-Ar : Obtained from the ccRepo (grant-hill.group.shef.ac.uk/ccrepo) Feb. 2017
              D. E. Woon, T. H. Dunning, Jr., J. Chem. Phys. 98, 1358 (1993)
      Sc-Zn : Obtained from the ccRepo (grant-hill.group.shef.ac.uk/ccrepo) Feb. 2017
              N. B. Balabanov, K. A. Peterson, J. Chem. Phys. 123, 064107 (2005)
              N. B. Balabanov, K. A. Peterson, J. Chem. Phys. 125, 074110 (2006)
      Ga-Kr : Obtained from the ccRepo (grant-hill.group.shef.ac.uk/ccrepo) Feb. 2017
              A. K. Wilson, D. E. Woon, K. A. Peterson, T. H. Dunning, Jr., J. Chem. Phys. 110, 7667 (1999)
     Ag, Au : Obtained from the Peterson Research Group Website (tyr0.chem.wsu.edu/~kipeters) Feb. 2017
              K. A. Peterson, C. Puzzarini, Theor. Chem. Acc. 114, 283 (2005)

----- AuxJK basis set information -----
Your calculation utilizes the auxiliary basis: def2/JK
   H-Ba, Hf-Rn: F. Weigend, J. Comput. Chem. 29, 167 (2008).

================================================================================
                                        WARNINGS
                       Please study these warnings very carefully!
================================================================================


WARNING: your system is open-shell and RHF/RKS was chosen
  ===> : WILL SWITCH to UHF/UKS


INFO   : the flag for use of LIBINT has been found!

================================================================================
                                       INPUT FILE
================================================================================
NAME = 08_TiF.in
|  1> #
|  2> # 08_TiF tpssh/aug-cc-pvtz
|  3> #
|  4> ! tpssh d3bj aug-cc-pvtz def2/jk grid4 nofinalgrid
|  5> 
|  6> *xyz 0 4
|  7>   Ti  0.00000000000000      0.00000000000000      0.11041057480115
|  8>   F   0.00000000000000      0.00000000000000      1.88958942519885
|  9> *
| 10> 
| 11> %pal
| 12> nprocs 24
| 13> end
| 14> 
| 15> 
| 16>                          ****END OF INPUT****
================================================================================

                       ****************************
                       * Single Point Calculation *
                       ****************************

---------------------------------
CARTESIAN COORDINATES (ANGSTROEM)
---------------------------------
  Ti     0.000000    0.000000    0.110411
  F      0.000000    0.000000    1.889589

----------------------------
CARTESIAN COORDINATES (A.U.)
----------------------------
  NO LB      ZA    FRAG     MASS         X           Y           Z
   0 Ti   22.0000    0    47.900    0.000000    0.000000    0.208646
   1 F     9.0000    0    18.998    0.000000    0.000000    3.570807

--------------------------------
INTERNAL COORDINATES (ANGSTROEM)
--------------------------------
 Ti     0   0   0     0.000000000000     0.00000000     0.00000000
 F      1   0   0     1.779178850398     0.00000000     0.00000000

---------------------------
INTERNAL COORDINATES (A.U.)
---------------------------
 Ti     0   0   0     0.000000000000     0.00000000     0.00000000
 F      1   0   0     3.362160770517     0.00000000     0.00000000

---------------------
BASIS SET INFORMATION
---------------------
There are 2 groups of distinct atoms

 Group   1 Type Ti  : 116s77p23d3f2g contracted to 8s7p5d3f2g pattern {19191919191911/151515151511/77711/111/11}
 Group   2 Type F   : 19s6p3d2f contracted to 5s4p3d2f pattern {88111/3111/111/11}

Atom   0Ti   basis set group =>   1
Atom   1F    basis set group =>   2
----------------------------------
AUXILIARY/JK BASIS SET INFORMATION
----------------------------------
There are 2 groups of distinct atoms

 Group   1 Type Ti  : 19s14p12d10f7g3h1i contracted to 16s13p11d9f5g3h1i pattern {4111111111111111/2111111111111/21111111111/211111111/31111/111/1}
 Group   2 Type F   : 14s10p6d2f1g contracted to 10s8p4d2f1g pattern {5111111111/31111111/3111/11/1}

Atom   0Ti   basis set group =>   1
Atom   1F    basis set group =>   2


           ************************************************************
           *        Program running with 24 parallel MPI-processes    *
           *              working on a common directory               *
           ************************************************************
------------------------------------------------------------------------------
                           ORCA GTO INTEGRAL CALCULATION
------------------------------------------------------------------------------

                         BASIS SET STATISTICS AND STARTUP INFO

 # of primitive gaussian shells          ...  251
 # of primitive gaussian functions       ...  567
 # of contracted shells                  ...   39
 # of contracted basis functions         ...  139
 Highest angular momentum                ...    4
 Maximum contraction depth               ...   19
 Integral package used                   ... LIBINT
 Integral threshhold            Thresh   ...  1.000e-10
 Primitive cut-off              TCut     ...  1.000e-11


------------------------------ INTEGRAL EVALUATION ----------------------------


 * One electron integrals 
 Pre-screening matrix                    ... done
 Shell pair data                         ... done (   0.001 sec)



           ************************************************************
           *        Program running with 24 parallel MPI-processes    *
           *              working on a common directory               *
           ************************************************************
-------------------------------------------------------------------------------
                                 ORCA SCF
-------------------------------------------------------------------------------

------------
SCF SETTINGS
------------
Hamiltonian:
 Density Functional     Method          .... DFT(GTOs)
 Exchange Functional    Exchange        .... TPSS
 Correlation Functional Correlation     .... TPSS
 LDA part of GGA corr.  LDAOpt          .... PW91-LDA
 Gradients option       PostSCFGGA      .... off
 Hybrid DFT is turned on
   Fraction HF Exchange ScalHFX         ....  0.100000
   Scaling of DF-GGA-X  ScalDFX         ....  0.900000
   Scaling of DF-GGA-C  ScalDFC         ....  1.000000
   Scaling of DF-LDA-C  ScalLDAC        ....  1.000000
   Perturbative correction              ....  0.000000
   Density functional embedding theory  .... OFF
   NL short-range parameter             ....  5.200000


General Settings:
 Integral files         IntName         .... 08_TiF
 Hartree-Fock type      HFTyp           .... UHF
 Total Charge           Charge          ....    0
 Multiplicity           Mult            ....    4
 Number of Electrons    NEL             ....   31
 Basis Dimension        Dim             ....  139
 Nuclear Repulsion      ENuc            ....     58.8906996168 Eh

Convergence Acceleration:
 DIIS                   CNVDIIS         .... on
   Start iteration      DIISMaxIt       ....    12
   Startup error        DIISStart       ....  0.200000
   # of expansion vecs  DIISMaxEq       ....     5
   Bias factor          DIISBfac        ....   1.050
   Max. coefficient     DIISMaxC        ....  10.000
 Newton-Raphson         CNVNR           .... off
 SOSCF                  CNVSOSCF        .... off
 Level Shifting         CNVShift        .... on
   Level shift para.    LevelShift      ....    0.2500
   Turn off err/grad.   ShiftErr        ....    0.0010
 Zerner damping         CNVZerner       .... off
 Static damping         CNVDamp         .... on
   Fraction old density DampFac         ....    0.7000
   Max. Damping (<1)    DampMax         ....    0.9800
   Min. Damping (>=0)   DampMin         ....    0.0000
   Turn off err/grad.   DampErr         ....    0.1000
 Fernandez-Rico         CNVRico         .... off

SCF Procedure:
 Maximum # iterations   MaxIter         ....   125
 SCF integral mode      SCFMode         .... Direct
   Integral package                     .... LIBINT
 Reset frequency        DirectResetFreq ....    20
 Integral Threshold     Thresh          ....  1.000e-10 Eh
 Primitive CutOff       TCut            ....  1.000e-11 Eh

Convergence Tolerance:
 Convergence Check Mode ConvCheckMode   .... Total+1el-Energy
 Convergence forced     ConvForced      .... 0
 Energy Change          TolE            ....  1.000e-06 Eh
 1-El. energy change                    ....  1.000e-03 Eh
 DIIS Error             TolErr          ....  1.000e-06


Diagonalization of the overlap matrix:
Smallest eigenvalue                        ... 5.754e-05
Time for diagonalization                   ...    0.005 sec
Threshold for overlap eigenvalues          ... 1.000e-08
Number of eigenvalues below threshold      ... 0
Time for construction of square roots      ...    0.002 sec
Total time needed                          ...    0.007 sec

-------------------
DFT GRID GENERATION
-------------------

General Integration Accuracy     IntAcc      ...  4.670
Radial Grid Type                 RadialGrid  ... Gauss-Chebyshev
Angular Grid (max. acc.)         AngularGrid ... Lebedev-302
Angular grid pruning method      GridPruning ... 3 (G Style)
Weight generation scheme         WeightScheme... Becke
Basis function cutoff            BFCut       ...    1.0000e-10
Integration weight cutoff        WCut        ...    1.0000e-14
Grids for H and He will be reduced by one unit

# of grid points (after initial pruning)     ...  15936 (   0.0 sec)
# of grid points (after weights+screening)   ...  15887 (   0.0 sec)
nearest neighbour list constructed           ...    0.0 sec
Grid point re-assignment to atoms done       ...    0.0 sec
Grid point division into batches done        ...    0.1 sec
Reduced shell lists constructed in    0.1 sec

Total number of grid points                  ...    15887
Total number of batches                      ...      250
Average number of points per batch           ...       63
Average number of grid points per atom       ...     7944
Average number of shells per batch           ...    18.42 (47.22%)
Average number of basis functions per batch  ...    52.08 (37.47%)
Average number of large shells per batch     ...    12.25 (66.52%)
Average number of large basis fcns per batch ...    35.42 (68.00%)
Maximum spatial batch extension              ...  28.57, 31.41, 18.49 au
Average spatial batch extension              ...   0.88,  0.94,  0.67 au

Time for grid setup =    0.169 sec

------------------------------
INITIAL GUESS: MODEL POTENTIAL
------------------------------
Loading Hartree-Fock densities                     ... done
Calculating cut-offs                               ... done
Setting up the integral package                    ... done
Initializing the effective Hamiltonian             ... done
Starting the Coulomb interaction                   ... done (   0.0 sec)
Reading the grid                                   ... done
Mapping shells                                     ... done
Starting the XC term evaluation                    ... done (   0.0 sec)
  promolecular density results
     # of electrons  =     31.000007701
     EX              =    -50.800254094
     EC              =     -1.199270240
     EX+EC           =    -51.999524334
Transforming the Hamiltonian                       ... done (   0.0 sec)
Diagonalizing the Hamiltonian                      ... done (   0.0 sec)
Back transforming the eigenvectors                 ... done (   0.0 sec)
Now organizing SCF variables                       ... done
                      ------------------
                      INITIAL GUESS DONE (   0.3 sec)
                      ------------------
--------------
SCF ITERATIONS
--------------
ITER       Energy         Delta-E        Max-DP      RMS-DP      [F,P]     Damp
               ***  Starting incremental Fock matrix formation  ***
  0   -949.2836601213   0.000000000000 0.10905315  0.00219804  0.2765301 0.7000
  1   -949.3191236900  -0.035463568639 0.06040746  0.00124242  0.0793177 0.7000
                               ***Turning on DIIS***
  2   -949.3300810674  -0.010957377415 0.07739836  0.00174560  0.0284551 0.0000
  3   -949.3529199745  -0.022838907133 0.05457115  0.00113567  0.0375913 0.0000
  4   -949.3560293493  -0.003109374795 0.01926398  0.00039609  0.0189064 0.0000
  5   -949.3570343655  -0.001005016236 0.03320957  0.00038623  0.0028041 0.0000
  6   -949.3571855974  -0.000151231884 0.02617086  0.00025158  0.0019736 0.0000
  7   -949.3572639029  -0.000078305437 0.02323211  0.00022277  0.0015540 0.0000
  8   -949.3573170245  -0.000053121655 0.01851292  0.00018856  0.0013039 0.0000
  9   -949.3573539785  -0.000036954000 0.02196005  0.00021796  0.0011051 0.0000
 10   -949.3573813558  -0.000027377320 0.01223795  0.00011782  0.0010094 0.0000
 11   -949.3573977951  -0.000016439287 0.03343595  0.00030203  0.0007631 0.0000
 12   -949.3574210153  -0.000023220214 0.00181055  0.00002035  0.0005836 0.0000
 13   -949.3574220190  -0.000001003686 0.00228134  0.00002344  0.0001472 0.0000
                 **** Energy Check signals convergence ****

               *****************************************************
               *                     SUCCESS                       *
               *           SCF CONVERGED AFTER  14 CYCLES          *
               *****************************************************


----------------
TOTAL SCF ENERGY
----------------

Total Energy       :         -949.35742207 Eh          -25833.32880 eV

Components:
Nuclear Repulsion  :           58.89069962 Eh            1602.49741 eV
Electronic Energy  :        -1008.24812168 Eh          -27435.82620 eV
One Electron Energy:        -1422.27904102 Eh          -38702.18029 eV
Two Electron Energy:          414.03091934 Eh           11266.35409 eV

Virial components:
Potential Energy   :        -1897.00065398 Eh          -51620.01211 eV
Kinetic Energy     :          947.64323191 Eh           25786.68331 eV
Virial Ratio       :            2.00180890


DFT components:
N(Alpha)           :       17.000006254183 electrons
N(Beta)            :       14.000006730489 electrons
N(Total)           :       31.000012984672 electrons
E(X)               :      -46.299949262182 Eh       
E(C)               :       -1.203672149549 Eh       
E(XC)              :      -47.503621411731 Eh       
DFET-embed. en.    :        0.000000000000 Eh       

---------------
SCF CONVERGENCE
---------------

  Last Energy change         ...   -4.7485e-08  Tolerance :   1.0000e-06
  Last MAX-Density change    ...    1.7527e-04  Tolerance :   1.0000e-05
  Last RMS-Density change    ...    2.2537e-06  Tolerance :   1.0000e-06
  Last DIIS Error            ...    5.7299e-05  Tolerance :   1.0000e-06

             **** THE GBW FILE WAS UPDATED (08_TiF.gbw) ****
             **** DENSITY FILE WAS UPDATED (08_TiF.scfp) ****
             **** ENERGY FILE WAS UPDATED (08_TiF.en.tmp) ****
----------------------
UHF SPIN CONTAMINATION
----------------------

Warning: in a DFT calculation there is little theoretical justification to 
         calculate <S**2> as in Hartree-Fock theory. We will do it anyways
         but you should keep in mind that the values have only limited relevance

Expectation value of <S**2>     :     3.754913
Ideal value S*(S+1) for S=1.5   :     3.750000
Deviation                       :     0.004913

             **** THE GBW FILE WAS UPDATED (08_TiF.gbw) ****
             **** DENSITY FILE WAS UPDATED (08_TiF.scfp) ****
----------------
ORBITAL ENERGIES
----------------
                 SPIN UP ORBITALS
  NO   OCC          E(Eh)            E(eV) 
   0   1.0000    -178.624899     -4860.6306 
   1   1.0000     -24.552511      -668.1078 
   2   1.0000     -19.710521      -536.3505 
   3   1.0000     -16.411906      -446.5907 
   4   1.0000     -16.398397      -446.2231 
   5   1.0000     -16.398397      -446.2231 
   6   1.0000      -2.313264       -62.9471 
   7   1.0000      -1.451970       -39.5101 
   8   1.0000      -1.429869       -38.9087 
   9   1.0000      -1.429869       -38.9087 
  10   1.0000      -1.077854       -29.3299 
  11   1.0000      -0.385737       -10.4964 
  12   1.0000      -0.365191        -9.9374 
  13   1.0000      -0.365191        -9.9374 
  14   1.0000      -0.166237        -4.5235 
  15   1.0000      -0.143570        -3.9067 
  16   1.0000      -0.143569        -3.9067 
  17   0.0000      -0.077742        -2.1155 
  18   0.0000      -0.077742        -2.1155 
  19   0.0000      -0.074600        -2.0300 
  20   0.0000      -0.023834        -0.6485 
  21   0.0000      -0.023834        -0.6485 
  22   0.0000       0.002409         0.0656 
  23   0.0000       0.005964         0.1623 
  24   0.0000       0.024365         0.6630 
  25   0.0000       0.024365         0.6630 
  26   0.0000       0.030498         0.8299 
  27   0.0000       0.030500         0.8300 
  28   0.0000       0.034891         0.9494 
  29   0.0000       0.034892         0.9494 
  30   0.0000       0.037303         1.0151 
  31   0.0000       0.057411         1.5622 
  32   0.0000       0.087390         2.3780 
  33   0.0000       0.125103         3.4042 
  34   0.0000       0.125103         3.4042 
  35   0.0000       0.130260         3.5445 
  36   0.0000       0.130261         3.5446 
  37   0.0000       0.134084         3.6486 
  38   0.0000       0.138749         3.7755 
  39   0.0000       0.138749         3.7755 
  40   0.0000       0.196052         5.3349 
  41   0.0000       0.217838         5.9277 
  42   0.0000       0.231464         6.2985 
  43   0.0000       0.231464         6.2985 
  44   0.0000       0.240166         6.5352 
  45   0.0000       0.240166         6.5352 
  46   0.0000       0.242603         6.6016 
  47   0.0000       0.242604         6.6016 
  48   0.0000       0.323241         8.7958 
  49   0.0000       0.323241         8.7958 
  50   0.0000       0.324998         8.8436 
  51   0.0000       0.374659        10.1950 
  52   0.0000       0.480336        13.0706 
  53   0.0000       0.510534        13.8923 
  54   0.0000       0.510535        13.8924 
  55   0.0000       0.515414        14.0251 
  56   0.0000       0.515414        14.0251 
  57   0.0000       0.541712        14.7407 
  58   0.0000       0.541712        14.7407 
  59   0.0000       0.598034        16.2733 
  60   0.0000       0.754914        20.5422 
  61   0.0000       0.784001        21.3337 
  62   0.0000       0.784011        21.3340 
  63   0.0000       0.870280        23.6815 
  64   0.0000       0.870280        23.6815 
  65   0.0000       0.883545        24.0425 
  66   0.0000       0.883545        24.0425 
  67   0.0000       0.885135        24.0858 
  68   0.0000       0.885137        24.0858 
  69   0.0000       0.891165        24.2498 
  70   0.0000       0.891166        24.2498 
  71   0.0000       0.907100        24.6834 
  72   0.0000       0.907100        24.6834 
  73   0.0000       0.922805        25.1108 
  74   0.0000       0.981646        26.7119 
  75   0.0000       0.981646        26.7119 
  76   0.0000       1.021975        27.8093 
  77   0.0000       1.059207        28.8225 
  78   0.0000       1.059207        28.8225 
  79   0.0000       1.155885        31.4532 
  80   0.0000       1.155896        31.4535 
  81   0.0000       1.350469        36.7481 
  82   0.0000       1.485570        40.4244 
  83   0.0000       1.606331        43.7105 
  84   0.0000       1.606331        43.7105 
  85   0.0000       1.858552        50.5738 
  86   0.0000       1.868134        50.8345 
  87   0.0000       1.868134        50.8345 
  88   0.0000       2.040929        55.5365 
  89   0.0000       2.040929        55.5365 
  90   0.0000       2.087857        56.8135 
  91   0.0000       2.087857        56.8135 
  92   0.0000       2.119665        57.6790 
  93   0.0000       2.187937        59.5368 
  94   0.0000       2.495699        67.9114 
  95   0.0000       2.571336        69.9696 
  96   0.0000       2.571487        69.9737 
  97   0.0000       2.627374        71.4945 
  98   0.0000       2.627374        71.4945 
  99   0.0000       2.713298        73.8326 
 100   0.0000       2.713298        73.8326 
 101   0.0000       2.916995        79.3755 
 102   0.0000       2.917041        79.3767 
 103   0.0000       3.007596        81.8408 
 104   0.0000       3.142751        85.5186 
 105   0.0000       3.142751        85.5186 
 106   0.0000       3.232436        87.9590 
 107   0.0000       3.232440        87.9592 
 108   0.0000       3.234413        88.0129 
 109   0.0000       3.234413        88.0129 
 110   0.0000       3.275551        89.1323 
 111   0.0000       3.400876        92.5426 
 112   0.0000       3.400883        92.5427 
 113   0.0000       3.426104        93.2290 
 114   0.0000       3.426104        93.2290 
 115   0.0000       3.468006        94.3693 
 116   0.0000       3.468021        94.3697 
 117   0.0000       3.591434        97.7279 
 118   0.0000       3.591434        97.7279 
 119   0.0000       3.707061       100.8742 
 120   0.0000       3.990827       108.5959 
 121   0.0000       3.990827       108.5959 
 122   0.0000       4.435234       120.6889 
 123   0.0000       4.960162       134.9729 
 124   0.0000       4.960162       134.9729 
 125   0.0000       5.503453       149.7566 
 126   0.0000       8.417128       229.0417 
 127   0.0000       8.417128       229.0417 
 128   0.0000       8.545129       232.5248 
 129   0.0000       8.545875       232.5451 
 130   0.0000       8.824188       240.1184 
 131   0.0000       8.824188       240.1184 
 132   0.0000       8.825141       240.1443 
 133   0.0000       8.825495       240.1539 
 134   0.0000       8.830397       240.2873 
 135   0.0000       8.922427       242.7916 
 136   0.0000       8.922427       242.7916 
 137   0.0000       9.087067       247.2717 
 138   0.0000      13.439342       365.7031 

                 SPIN DOWN ORBITALS
  NO   OCC          E(Eh)            E(eV) 
   0   1.0000    -178.624112     -4860.6092 
   1   1.0000     -24.554651      -668.1660 
   2   1.0000     -19.689385      -535.7754 
   3   1.0000     -16.404400      -446.3864 
   4   1.0000     -16.375728      -445.6062 
   5   1.0000     -16.375728      -445.6062 
   6   1.0000      -2.242858       -61.0313 
   7   1.0000      -1.420871       -38.6639 
   8   1.0000      -1.332630       -36.2627 
   9   1.0000      -1.332630       -36.2627 
  10   1.0000      -1.080173       -29.3930 
  11   1.0000      -0.385037       -10.4774 
  12   1.0000      -0.366549        -9.9743 
  13   1.0000      -0.366549        -9.9743 
  14   0.0000      -0.079977        -2.1763 
  15   0.0000      -0.032087        -0.8731 
  16   0.0000      -0.032087        -0.8731 
  17   0.0000      -0.029318        -0.7978 
  18   0.0000      -0.002507        -0.0682 
  19   0.0000      -0.002467        -0.0671 
  20   0.0000       0.012580         0.3423 
  21   0.0000       0.012580         0.3423 
  22   0.0000       0.018756         0.5104 
  23   0.0000       0.020463         0.5568 
  24   0.0000       0.046718         1.2713 
  25   0.0000       0.046718         1.2713 
  26   0.0000       0.049373         1.3435 
  27   0.0000       0.049373         1.3435 
  28   0.0000       0.049614         1.3501 
  29   0.0000       0.052487         1.4282 
  30   0.0000       0.052492         1.4284 
  31   0.0000       0.074171         2.0183 
  32   0.0000       0.117099         3.1864 
  33   0.0000       0.158910         4.3242 
  34   0.0000       0.158910         4.3242 
  35   0.0000       0.163936         4.4609 
  36   0.0000       0.172842         4.7033 
  37   0.0000       0.172842         4.7033 
  38   0.0000       0.177381         4.8268 
  39   0.0000       0.177399         4.8273 
  40   0.0000       0.221416         6.0250 
  41   0.0000       0.228462         6.2168 
  42   0.0000       0.240634         6.5480 
  43   0.0000       0.240634         6.5480 
  44   0.0000       0.275500         7.4967 
  45   0.0000       0.275551         7.4981 
  46   0.0000       0.286740         7.8026 
  47   0.0000       0.286740         7.8026 
  48   0.0000       0.353341         9.6149 
  49   0.0000       0.353341         9.6149 
  50   0.0000       0.354885         9.6569 
  51   0.0000       0.414705        11.2847 
  52   0.0000       0.496289        13.5047 
  53   0.0000       0.561421        15.2770 
  54   0.0000       0.561421        15.2770 
  55   0.0000       0.569722        15.5029 
  56   0.0000       0.569862        15.5067 
  57   0.0000       0.576693        15.6926 
  58   0.0000       0.576693        15.6926 
  59   0.0000       0.624707        16.9991 
  60   0.0000       0.769327        20.9345 
  61   0.0000       0.797994        21.7145 
  62   0.0000       0.798161        21.7191 
  63   0.0000       0.883617        24.0444 
  64   0.0000       0.883617        24.0444 
  65   0.0000       0.918967        25.0064 
  66   0.0000       0.918967        25.0064 
  67   0.0000       0.922367        25.0989 
  68   0.0000       0.922440        25.1009 
  69   0.0000       0.924291        25.1512 
  70   0.0000       0.924703        25.1624 
  71   0.0000       0.934915        25.4403 
  72   0.0000       0.967935        26.3388 
  73   0.0000       0.967935        26.3388 
  74   0.0000       0.984802        26.7978 
  75   0.0000       0.984802        26.7978 
  76   0.0000       1.034555        28.1517 
  77   0.0000       1.078811        29.3559 
  78   0.0000       1.078811        29.3559 
  79   0.0000       1.175887        31.9975 
  80   0.0000       1.176225        32.0067 
  81   0.0000       1.355837        36.8942 
  82   0.0000       1.504553        40.9410 
  83   0.0000       1.618258        44.0350 
  84   0.0000       1.618258        44.0350 
  85   0.0000       1.894334        51.5474 
  86   0.0000       1.929879        52.5147 
  87   0.0000       1.929879        52.5147 
  88   0.0000       2.071739        56.3749 
  89   0.0000       2.071739        56.3749 
  90   0.0000       2.166834        58.9626 
  91   0.0000       2.166897        58.9643 
  92   0.0000       2.168803        59.0161 
  93   0.0000       2.208147        60.0867 
  94   0.0000       2.503968        68.1364 
  95   0.0000       2.573718        70.0344 
  96   0.0000       2.573898        70.0393 
  97   0.0000       2.639875        71.8347 
  98   0.0000       2.639875        71.8347 
  99   0.0000       2.713609        73.8410 
 100   0.0000       2.713609        73.8410 
 101   0.0000       2.923808        79.5609 
 102   0.0000       2.923847        79.5619 
 103   0.0000       3.029113        82.4264 
 104   0.0000       3.157604        85.9228 
 105   0.0000       3.157604        85.9228 
 106   0.0000       3.280882        89.2773 
 107   0.0000       3.280882        89.2773 
 108   0.0000       3.304274        89.9139 
 109   0.0000       3.304340        89.9157 
 110   0.0000       3.304349        89.9159 
 111   0.0000       3.430729        93.3549 
 112   0.0000       3.430757        93.3557 
 113   0.0000       3.516290        95.6831 
 114   0.0000       3.516294        95.6832 
 115   0.0000       3.524723        95.9126 
 116   0.0000       3.524723        95.9126 
 117   0.0000       3.635840        98.9362 
 118   0.0000       3.635840        98.9362 
 119   0.0000       3.724350       101.3447 
 120   0.0000       4.005338       108.9908 
 121   0.0000       4.005338       108.9908 
 122   0.0000       4.458986       121.3352 
 123   0.0000       4.957149       134.8909 
 124   0.0000       4.957149       134.8909 
 125   0.0000       5.503472       149.7571 
 126   0.0000       8.413683       228.9479 
 127   0.0000       8.413683       228.9479 
 128   0.0000       8.541785       232.4338 
 129   0.0000       8.542558       232.4548 
 130   0.0000       8.820425       240.0160 
 131   0.0000       8.820763       240.0252 
 132   0.0000       8.821042       240.0328 
 133   0.0000       8.821042       240.0328 
 134   0.0000       8.828208       240.2277 
 135   0.0000       8.917777       242.6651 
 136   0.0000       8.917777       242.6651 
 137   0.0000       9.082218       247.1397 
 138   0.0000      13.437289       365.6472 

                    ********************************
                    * MULLIKEN POPULATION ANALYSIS *
                    ********************************

--------------------------------------------
MULLIKEN ATOMIC CHARGES AND SPIN POPULATIONS
--------------------------------------------
   0 Ti:    0.571739    3.043720
   1 F :   -0.571739   -0.043720
Sum of atomic charges         :   -0.0000000
Sum of atomic spin populations:    3.0000000

-----------------------------------------------------
MULLIKEN REDUCED ORBITAL CHARGES AND SPIN POPULATIONS
-----------------------------------------------------
CHARGE
  0 Tis       :     6.800977  s :     6.800977
      pz      :     4.045957  p :    12.058920
      px      :     4.006482
      py      :     4.006482
      dz2     :     0.377208  d :     2.553701
      dxz     :     0.089810
      dyz     :     0.089810
      dx2y2   :     0.998437
      dxy     :     0.998437
      f0      :     0.009115  f :     0.014214
      f+1     :     0.002066
      f-1     :     0.002066
      f+2     :     0.000483
      f-2     :     0.000483
      f+3     :     0.000000
      f-3     :     0.000000
      g0      :     0.001516  g :     0.000448
      g+1     :    -0.000540
      g-1     :    -0.000540
      g+2     :     0.000006
      g-2     :     0.000006
      g+3     :     0.000000
      g-3     :     0.000000
      g+4     :     0.000000
      g-4     :     0.000000
  1 F s       :     3.990464  s :     3.990464
      pz      :     1.770219  p :     5.563078
      px      :     1.896429
      py      :     1.896429
      dz2     :     0.003677  d :     0.015778
      dxz     :     0.005134
      dyz     :     0.005134
      dx2y2   :     0.000916
      dxy     :     0.000916
      f0      :     0.000868  f :     0.002420
      f+1     :     0.000618
      f-1     :     0.000618
      f+2     :     0.000158
      f-2     :     0.000158
      f+3     :     0.000000
      f-3     :     0.000000

SPIN
  0 Tis       :     0.770189  s :     0.770189
      pz      :     0.040168  p :     0.043872
      px      :     0.001852
      py      :     0.001852
      dz2     :     0.205817  d :     2.230961
      dxz     :     0.014135
      dyz     :     0.014135
      dx2y2   :     0.998437
      dxy     :     0.998437
      f0      :    -0.000124  f :     0.000017
      f+1     :    -0.000413
      f-1     :    -0.000413
      f+2     :     0.000483
      f-2     :     0.000483
      f+3     :    -0.000000
      f-3     :    -0.000000
      g0      :    -0.000172  g :    -0.001319
      g+1     :    -0.000579
      g-1     :    -0.000579
      g+2     :     0.000006
      g-2     :     0.000006
      g+3     :    -0.000000
      g-3     :    -0.000000
      g+4     :    -0.000000
      g-4     :    -0.000000
  1 F s       :     0.002815  s :     0.002815
      pz      :    -0.020472  p :    -0.052104
      px      :    -0.015816
      py      :    -0.015816
      dz2     :     0.001491  d :     0.004915
      dxz     :     0.000796
      dyz     :     0.000796
      dx2y2   :     0.000916
      dxy     :     0.000916
      f0      :     0.000288  f :     0.000653
      f+1     :     0.000025
      f-1     :     0.000025
      f+2     :     0.000158
      f-2     :     0.000158
      f+3     :    -0.000000
      f-3     :    -0.000000


                     *******************************
                     * LOEWDIN POPULATION ANALYSIS *
                     *******************************

-------------------------------------------
LOEWDIN ATOMIC CHARGES AND SPIN POPULATIONS
-------------------------------------------
   0 Ti:    0.246270    2.956706
   1 F :   -0.246270    0.043294

----------------------------------------------------
LOEWDIN REDUCED ORBITAL CHARGES AND SPIN POPULATIONS
----------------------------------------------------
CHARGE
  0 Tis       :     6.552339  s :     6.552339
      pz      :     4.051309  p :    12.009588
      px      :     3.979140
      py      :     3.979140
      dz2     :     0.506253  d :     2.773145
      dxz     :     0.143730
      dyz     :     0.143730
      dx2y2   :     0.989716
      dxy     :     0.989716
      f0      :     0.114933  f :     0.243881
      f+1     :     0.063354
      f-1     :     0.063354
      f+2     :     0.001121
      f-2     :     0.001121
      f+3     :     0.000000
      f-3     :     0.000000
      g0      :     0.067861  g :     0.174777
      g+1     :     0.053173
      g-1     :     0.053173
      g+2     :     0.000285
      g-2     :     0.000285
      g+3     :     0.000000
      g-3     :     0.000000
      g+4     :     0.000000
      g-4     :     0.000000
  1 F s       :     3.664703  s :     3.664703
      pz      :     1.893010  p :     5.349500
      px      :     1.728245
      py      :     1.728245
      dz2     :     0.126654  d :     0.197305
      dxz     :     0.027920
      dyz     :     0.027920
      dx2y2   :     0.007405
      dxy     :     0.007405
      f0      :     0.022939  f :     0.034763
      f+1     :     0.004439
      f-1     :     0.004439
      f+2     :     0.001473
      f-2     :     0.001473
      f+3     :     0.000000
      f-3     :     0.000000

SPIN
  0 Tis       :     0.705799  s :     0.705799
      pz      :     0.048618  p :     0.052891
      px      :     0.002136
      py      :     0.002136
      dz2     :     0.198208  d :     2.201890
      dxz     :     0.012125
      dyz     :     0.012125
      dx2y2   :     0.989716
      dxy     :     0.989716
      f0      :    -0.000397  f :    -0.001089
      f+1     :    -0.001467
      f-1     :    -0.001467
      f+2     :     0.001121
      f-2     :     0.001121
      f+3     :    -0.000000
      f-3     :    -0.000000
      g0      :    -0.000302  g :    -0.002785
      g+1     :    -0.001527
      g-1     :    -0.001527
      g+2     :     0.000285
      g-2     :     0.000285
      g+3     :    -0.000000
      g-3     :    -0.000000
      g+4     :    -0.000000
      g-4     :    -0.000000
  1 F s       :     0.022277  s :     0.022277
      pz      :     0.024521  p :     0.001793
      px      :    -0.011364
      py      :    -0.011364
      dz2     :     0.000368  d :     0.015539
      dxz     :     0.000180
      dyz     :     0.000180
      dx2y2   :     0.007405
      dxy     :     0.007405
      f0      :     0.000907  f :     0.003684
      f+1     :    -0.000084
      f-1     :    -0.000084
      f+2     :     0.001473
      f-2     :     0.001473
      f+3     :    -0.000000
      f-3     :    -0.000000


                      *****************************
                      * MAYER POPULATION ANALYSIS *
                      *****************************

  NA   - Mulliken gross atomic population
  ZA   - Total nuclear charge
  QA   - Mulliken gross atomic charge
  VA   - Mayer's total valence
  BVA  - Mayer's bonded valence
  FA   - Mayer's free valence

  ATOM       NA         ZA         QA         VA         BVA        FA
  0 Ti    21.4283    22.0000     0.5717     3.8261     0.8490     2.9771
  1 F      9.5717     9.0000    -0.5717     0.8504     0.8490     0.0014

  Mayer bond orders larger than 0.100000
B(  0-Ti,  1-F ) :   0.8490 

-------
TIMINGS
-------

Total SCF time: 0 days 0 hours 1 min 39 sec 

Total time                  ....      99.024 sec
Sum of individual times     ....      98.666 sec  ( 99.6%)

Fock matrix formation       ....      98.287 sec  ( 99.3%)
  XC integration            ....       0.505 sec  (  0.5% of F)
    Basis function eval.    ....       0.068 sec  ( 13.4% of XC)
    Density eval.           ....       0.079 sec  ( 15.6% of XC)
    XC-Functional eval.     ....       0.019 sec  (  3.8% of XC)
    XC-Potential eval.      ....       0.221 sec  ( 43.7% of XC)
Diagonalization             ....       0.071 sec  (  0.1%)
Density matrix formation    ....       0.010 sec  (  0.0%)
Population analysis         ....       0.007 sec  (  0.0%)
Initial guess               ....       0.098 sec  (  0.1%)
Orbital Transformation      ....       0.000 sec  (  0.0%)
Orbital Orthonormalization  ....       0.000 sec  (  0.0%)
DIIS solution               ....       0.025 sec  (  0.0%)
Grid generation             ....       0.169 sec  (  0.2%)


-------------------------------------------------------------------------------
                          DFT DISPERSION CORRECTION                            
                                                                               
                              DFTD3 V3.1  Rev 1                                
                          USING Becke-Johnson damping                          
-------------------------------------------------------------------------------
The TPSSH functional is recognized
Active option DFTDOPT                   ...         4   

molecular C6(AA) [au] = 561.272477 


            DFT-D V3
 parameters
 s6 scaling factor         :     1.0000 
 a1 scaling factor         :     0.4529 
 s8 scaling factor         :     2.2382 
 a2 scaling factor         :     4.6550 
 ad hoc parameters k1-k3   :    16.0000     1.3333    -4.0000 

 Edisp/kcal,au: -0.356638278587  -0.000568339213 
 E6   /kcal   :  -0.131478084 
 E8   /kcal   :  -0.225160195 
 % E8         :  63.134051664 

-------------------------   ----------------
Dispersion correction           -0.000568339
-------------------------   ----------------


-------------------------   --------------------
FINAL SINGLE POINT ENERGY      -949.357990405723
-------------------------   --------------------


                            ***************************************
                            *     ORCA property calculations      *
                            ***************************************

                                    ---------------------
                                    Active property flags
                                    ---------------------
   (+) Dipole Moment


------------------------------------------------------------------------------
                       ORCA ELECTRIC PROPERTIES CALCULATION
------------------------------------------------------------------------------

Dipole Moment Calculation                       ... on
Quadrupole Moment Calculation                   ... off
Polarizability Calculation                      ... off
GBWName                                         ... 08_TiF.gbw
Electron density file                           ... 08_TiF.scfp
The origin for moment calculation is the CENTER OF MASS  = ( 0.000000,  0.000000  1.163448)

-------------
DIPOLE MOMENT
-------------
                                X             Y             Z
Electronic contribution:      0.00000      -0.00000      -1.94230
Nuclear contribution   :      0.00000       0.00000       0.66059
                        -----------------------------------------
Total Dipole Moment    :      0.00000      -0.00000      -1.28170
                        -----------------------------------------
Magnitude (a.u.)       :      1.28170
Magnitude (Debye)      :      3.25783



--------------------
Rotational spectrum 
--------------------
 
Rotational constants in cm-1:     0.000000     0.391496     0.391496 
Rotational constants in MHz :     0.000000 11736.757371 11736.757371 

 Dipole components along the rotational axes: 
x,y,z [a.u.] :    -1.281704    -0.000000     0.000000 
x,y,z [Debye]:    -3.257832    -0.000000     0.000000 

 

Timings for individual modules:

Sum of individual times         ...      102.644 sec (=   1.711 min)
GTO integral calculation        ...        3.174 sec (=   0.053 min)   3.1 %
SCF iterations                  ...       99.470 sec (=   1.658 min)  96.9 %
                             ****ORCA TERMINATED NORMALLY****
TOTAL RUN TIME: 0 days 0 hours 1 minutes 43 seconds 294 msec
