
                                 *****************
                                 * O   R   C   A *
                                 *****************

           --- An Ab Initio, DFT and Semiempirical electronic structure package ---

                  #######################################################
                  #                        -***-                        #
                  #          Department of theory and spectroscopy      #
                  #               Directorship: Frank Neese             #
                  #        Max Planck Institute fuer Kohlenforschung    #
                  #                Kaiser Wilhelm Platz 1               #
                  #                 D-45470 Muelheim/Ruhr               #
                  #                      Germany                        #
                  #                                                     #
                  #                  All rights reserved                #
                  #                        -***-                        #
                  #######################################################


                         Program Version 4.2.0 -  RELEASE  -


 With contributions from (in alphabetic order):
   Daniel Aravena         : Magnetic Suceptibility
   Michael Atanasov       : Ab Initio Ligand Field Theory (pilot matlab implementation)
   Alexander A. Auer      : GIAO ZORA, VPT2
   Ute Becker             : Parallelization
   Giovanni Bistoni       : ED, misc. LED, open-shell LED, HFLED
   Martin Brehm           : Molecular dynamics
   Dmytro Bykov           : SCF Hessian
   Vijay G. Chilkuri      : MRCI spin determinant printing, contributions to CSF-ICE
   Dipayan Datta          : RHF DLPNO-CCSD density
   Achintya Kumar Dutta   : EOM-CC, STEOM-CC
   Dmitry Ganyushin       : Spin-Orbit,Spin-Spin,Magnetic field MRCI
   Miquel Garcia          : C-PCM Hessian, Gaussian charge scheme
   Yang Guo               : DLPNO-NEVPT2, CIM, IAO-localization
   Andreas Hansen         : Spin unrestricted coupled pair/coupled cluster methods
   Benjamin Helmich-Paris : CASSCF linear response (MC-RPA)
   Lee Huntington         : MR-EOM, pCC
   Robert Izsak           : Overlap fitted RIJCOSX, COSX-SCS-MP3, EOM
   Christian Kollmar      : KDIIS, OOCD, Brueckner-CCSD(T), CCSD density
   Simone Kossmann        : Meta GGA functionals, TD-DFT gradient, OOMP2, MP2 Hessian
   Martin Krupicka        : AUTO-CI
   Lucas Lang             : DCDCAS
   Dagmar Lenk            : GEPOL surface, SMD
   Dimitrios Liakos       : Extrapolation schemes; Compound Job, initial MDCI parallelization
   Dimitrios Manganas     : Further ROCIS development; embedding schemes
   Dimitrios Pantazis     : SARC Basis sets
   Taras Petrenko         : DFT Hessian,TD-DFT gradient, ASA, ECA, R-Raman, ABS, FL, XAS/XES, NRVS
   Peter Pinski           : DLPNO-MP2, DLPNO-MP2 Gradient
   Christoph Reimann      : Effective Core Potentials
   Marius Retegan         : Local ZFS, SOC
   Christoph Riplinger    : Optimizer, TS searches, QM/MM, DLPNO-CCSD(T), (RO)-DLPNO pert. Triples
   Tobias Risthaus        : Range-separated hybrids, TD-DFT gradient, RPA, STAB
   Michael Roemelt        : Original ROCIS implementation
   Masaaki Saitow         : Open-shell DLPNO-CCSD energy and density
   Barbara Sandhoefer     : DKH picture change effects
   Avijit Sen             : IP-ROCIS
   Kantharuban Sivalingam : CASSCF convergence, NEVPT2, FIC-MRCI
   Bernardo de Souza      : ESD, SOC TD-DFT
   Georgi Stoychev        : AutoAux, RI-MP2 NMR
   Willem Van den Heuvel  : Paramagnetic NMR
   Boris Wezisla          : Elementary symmetry handling
   Frank Wennmohs         : Technical directorship


 We gratefully acknowledge several colleagues who have allowed us to
 interface, adapt or use parts of their codes:
   Stefan Grimme, W. Hujo, H. Kruse,             : VdW corrections, initial TS optimization,
                  C. Bannwarth                     DFT functionals, gCP, sTDA/sTD-DF
   Ed Valeev, F. Pavosevic, A. Kumar             : LibInt (2-el integral package), F12 methods
   Garnet Chan, S. Sharma, J. Yang, R. Olivares  : DMRG
   Ulf Ekstrom                                   : XCFun DFT Library
   Mihaly Kallay                                 : mrcc  (arbitrary order and MRCC methods)
   Andreas Klamt, Michael Diedenhofen            : otool_cosmo (COSMO solvation model)
   Jiri Pittner, Ondrej Demel                    : Mk-CCSD
   Frank Weinhold                                : gennbo (NPA and NBO analysis)
   Christopher J. Cramer and Donald G. Truhlar   : smd solvation model
   Lars Goerigk                                  : TD-DFT with DH, B97 family of functionals
   V. Asgeirsson, H. Jonsson                     : NEB implementation
   FAccTs GmbH                                   : IRC, NEB, NEB-TS, Multilevel, MM, QM/MM, CI optimization
   S Lehtola, MJT Oliveira, MAL Marques          : LibXC Library


 Your calculation uses the libint2 library for the computation of 2-el integrals
 For citations please refer to: http://libint.valeyev.net

 Your ORCA version has been built with support for libXC version: 4.2.3
 For citations please refer to: https://tddft.org/programs/libxc/

 This ORCA versions uses:
   CBLAS   interface :  Fast vector & matrix operations
   LAPACKE interface :  Fast linear algebra routines
   SCALAPACK package :  Parallel linear algebra routines


Your calculation utilizes the atom-pairwise dispersion correction
with the Becke-Johnson damping scheme (D3BJ)
Cite in your paper:
S.Grimme, S.Ehrlich, L.Goerigk, J Comput Chem, (2011), 32, 1456–1465 
S.Grimme, J.Antony, S.Ehrlich and H.Krieg, J.Chem.Phys., 132, (2010), 154104 
   

----- Orbital basis set information -----
Your calculation utilizes the basis: aug-cc-pVTZ 
    H, B-Ne : Obtained from the ccRepo (grant-hill.group.shef.ac.uk/ccrepo) Feb. 2017
              R. A. Kendall, T. H. Dunning, Jr., R. J. Harrison, J. Chem. Phys. 96, 6796 (1992)
         He : Obtained from the ccRepo (grant-hill.group.shef.ac.uk/ccrepo) Feb. 2017
              D. E. Woon, T. H. Dunning, Jr., J. Chem. Phys. 100, 2975 (1994)
  Li-Be, Na : Obtained from the ccRepo (grant-hill.group.shef.ac.uk/ccrepo) Feb. 2017
              B. P. Prascher, D. E. Woon, K. A. Peterson, T. H. Dunning, Jr., A. K. Wilson, Theor. Chem. Acc. 128, 69 (2011)
         Mg : Obtained from the Peterson Research Group Website (tyr0.chem.wsu.edu/~kipeters) Feb. 2017
              B. P. Prascher, D. E. Woon, K. A. Peterson, T. H. Dunning, Jr., A. K. Wilson, Theor. Chem. Acc. 128, 69 (2011)
      Al-Ar : Obtained from the ccRepo (grant-hill.group.shef.ac.uk/ccrepo) Feb. 2017
              D. E. Woon, T. H. Dunning, Jr., J. Chem. Phys. 98, 1358 (1993)
      Sc-Zn : Obtained from the ccRepo (grant-hill.group.shef.ac.uk/ccrepo) Feb. 2017
              N. B. Balabanov, K. A. Peterson, J. Chem. Phys. 123, 064107 (2005)
              N. B. Balabanov, K. A. Peterson, J. Chem. Phys. 125, 074110 (2006)
      Ga-Kr : Obtained from the ccRepo (grant-hill.group.shef.ac.uk/ccrepo) Feb. 2017
              A. K. Wilson, D. E. Woon, K. A. Peterson, T. H. Dunning, Jr., J. Chem. Phys. 110, 7667 (1999)
     Ag, Au : Obtained from the Peterson Research Group Website (tyr0.chem.wsu.edu/~kipeters) Feb. 2017
              K. A. Peterson, C. Puzzarini, Theor. Chem. Acc. 114, 283 (2005)

----- AuxJK basis set information -----
Your calculation utilizes the auxiliary basis: def2/JK
   H-Ba, Hf-Rn: F. Weigend, J. Comput. Chem. 29, 167 (2008).

================================================================================
                                        WARNINGS
                       Please study these warnings very carefully!
================================================================================


WARNING: your system is open-shell and RHF/RKS was chosen
  ===> : WILL SWITCH to UHF/UKS


INFO   : the flag for use of LIBINT has been found!

================================================================================
                                       INPUT FILE
================================================================================
NAME = 12_TiS.in
|  1> #
|  2> # 12_TiS tpssh/aug-cc-pvtz
|  3> #
|  4> ! tpssh d3bj aug-cc-pvtz def2/jk grid4 nofinalgrid
|  5> 
|  6> *xyz 0 3
|  7>   Ti  0.00000000000000      0.00000000000000     -0.04354772803913
|  8>   S   0.00000000000000      0.00000000000000      2.04354772803913
|  9> *
| 10> 
| 11> %pal
| 12> nprocs 24
| 13> end
| 14> 
| 15> 
| 16>                          ****END OF INPUT****
================================================================================

                       ****************************
                       * Single Point Calculation *
                       ****************************

---------------------------------
CARTESIAN COORDINATES (ANGSTROEM)
---------------------------------
  Ti     0.000000    0.000000   -0.043548
  S      0.000000    0.000000    2.043548

----------------------------
CARTESIAN COORDINATES (A.U.)
----------------------------
  NO LB      ZA    FRAG     MASS         X           Y           Z
   0 Ti   22.0000    0    47.900    0.000000    0.000000   -0.082293
   1 S    16.0000    0    32.060    0.000000    0.000000    3.861746

--------------------------------
INTERNAL COORDINATES (ANGSTROEM)
--------------------------------
 Ti     0   0   0     0.000000000000     0.00000000     0.00000000
 S      1   0   0     2.087095456078     0.00000000     0.00000000

---------------------------
INTERNAL COORDINATES (A.U.)
---------------------------
 Ti     0   0   0     0.000000000000     0.00000000     0.00000000
 S      1   0   0     3.944038827339     0.00000000     0.00000000

---------------------
BASIS SET INFORMATION
---------------------
There are 2 groups of distinct atoms

 Group   1 Type Ti  : 116s77p23d3f2g contracted to 8s7p5d3f2g pattern {19191919191911/151515151511/77711/111/11}
 Group   2 Type S   : 42s17p3d2f contracted to 6s5p3d2f pattern {131313111/77111/111/11}

Atom   0Ti   basis set group =>   1
Atom   1S    basis set group =>   2
----------------------------------
AUXILIARY/JK BASIS SET INFORMATION
----------------------------------
There are 2 groups of distinct atoms

 Group   1 Type Ti  : 19s14p12d10f7g3h1i contracted to 16s13p11d9f5g3h1i pattern {4111111111111111/2111111111111/21111111111/211111111/31111/111/1}
 Group   2 Type S   : 16s12p10d4f1g contracted to 13s11p9d4f1g pattern {4111111111111/21111111111/211111111/1111/1}

Atom   0Ti   basis set group =>   1
Atom   1S    basis set group =>   2


           ************************************************************
           *        Program running with 24 parallel MPI-processes    *
           *              working on a common directory               *
           ************************************************************
------------------------------------------------------------------------------
                           ORCA GTO INTEGRAL CALCULATION
------------------------------------------------------------------------------

                         BASIS SET STATISTICS AND STARTUP INFO

 # of primitive gaussian shells          ...  285
 # of primitive gaussian functions       ...  623
 # of contracted shells                  ...   41
 # of contracted basis functions         ...  143
 Highest angular momentum                ...    4
 Maximum contraction depth               ...   19
 Integral package used                   ... LIBINT
 Integral threshhold            Thresh   ...  1.000e-10
 Primitive cut-off              TCut     ...  1.000e-11


------------------------------ INTEGRAL EVALUATION ----------------------------


 * One electron integrals 
 Pre-screening matrix                    ... done
 Shell pair data                         ... done (   0.001 sec)



           ************************************************************
           *        Program running with 24 parallel MPI-processes    *
           *              working on a common directory               *
           ************************************************************
-------------------------------------------------------------------------------
                                 ORCA SCF
-------------------------------------------------------------------------------

------------
SCF SETTINGS
------------
Hamiltonian:
 Density Functional     Method          .... DFT(GTOs)
 Exchange Functional    Exchange        .... TPSS
 Correlation Functional Correlation     .... TPSS
 LDA part of GGA corr.  LDAOpt          .... PW91-LDA
 Gradients option       PostSCFGGA      .... off
 Hybrid DFT is turned on
   Fraction HF Exchange ScalHFX         ....  0.100000
   Scaling of DF-GGA-X  ScalDFX         ....  0.900000
   Scaling of DF-GGA-C  ScalDFC         ....  1.000000
   Scaling of DF-LDA-C  ScalLDAC        ....  1.000000
   Perturbative correction              ....  0.000000
   Density functional embedding theory  .... OFF
   NL short-range parameter             ....  5.200000


General Settings:
 Integral files         IntName         .... 12_TiS
 Hartree-Fock type      HFTyp           .... UHF
 Total Charge           Charge          ....    0
 Multiplicity           Mult            ....    3
 Number of Electrons    NEL             ....   38
 Basis Dimension        Dim             ....  143
 Nuclear Repulsion      ENuc            ....     89.2486142783 Eh

Convergence Acceleration:
 DIIS                   CNVDIIS         .... on
   Start iteration      DIISMaxIt       ....    12
   Startup error        DIISStart       ....  0.200000
   # of expansion vecs  DIISMaxEq       ....     5
   Bias factor          DIISBfac        ....   1.050
   Max. coefficient     DIISMaxC        ....  10.000
 Newton-Raphson         CNVNR           .... off
 SOSCF                  CNVSOSCF        .... off
 Level Shifting         CNVShift        .... on
   Level shift para.    LevelShift      ....    0.2500
   Turn off err/grad.   ShiftErr        ....    0.0010
 Zerner damping         CNVZerner       .... off
 Static damping         CNVDamp         .... on
   Fraction old density DampFac         ....    0.7000
   Max. Damping (<1)    DampMax         ....    0.9800
   Min. Damping (>=0)   DampMin         ....    0.0000
   Turn off err/grad.   DampErr         ....    0.1000
 Fernandez-Rico         CNVRico         .... off

SCF Procedure:
 Maximum # iterations   MaxIter         ....   125
 SCF integral mode      SCFMode         .... Direct
   Integral package                     .... LIBINT
 Reset frequency        DirectResetFreq ....    20
 Integral Threshold     Thresh          ....  1.000e-10 Eh
 Primitive CutOff       TCut            ....  1.000e-11 Eh

Convergence Tolerance:
 Convergence Check Mode ConvCheckMode   .... Total+1el-Energy
 Convergence forced     ConvForced      .... 0
 Energy Change          TolE            ....  1.000e-06 Eh
 1-El. energy change                    ....  1.000e-03 Eh
 DIIS Error             TolErr          ....  1.000e-06


Diagonalization of the overlap matrix:
Smallest eigenvalue                        ... 4.133e-05
Time for diagonalization                   ...    0.005 sec
Threshold for overlap eigenvalues          ... 1.000e-08
Number of eigenvalues below threshold      ... 0
Time for construction of square roots      ...    0.002 sec
Total time needed                          ...    0.007 sec

-------------------
DFT GRID GENERATION
-------------------

General Integration Accuracy     IntAcc      ...  4.670
Radial Grid Type                 RadialGrid  ... Gauss-Chebyshev
Angular Grid (max. acc.)         AngularGrid ... Lebedev-302
Angular grid pruning method      GridPruning ... 3 (G Style)
Weight generation scheme         WeightScheme... Becke
Basis function cutoff            BFCut       ...    1.0000e-10
Integration weight cutoff        WCut        ...    1.0000e-14
Grids for H and He will be reduced by one unit

# of grid points (after initial pruning)     ...  16510 (   0.0 sec)
# of grid points (after weights+screening)   ...  16481 (   0.0 sec)
nearest neighbour list constructed           ...    0.0 sec
Grid point re-assignment to atoms done       ...    0.0 sec
Grid point division into batches done        ...    0.1 sec
Reduced shell lists constructed in    0.1 sec

Total number of grid points                  ...    16481
Total number of batches                      ...      259
Average number of points per batch           ...       63
Average number of grid points per atom       ...     8240
Average number of shells per batch           ...    18.58 (45.33%)
Average number of basis functions per batch  ...    53.25 (37.24%)
Average number of large shells per batch     ...    11.33 (60.99%)
Average number of large basis fcns per batch ...    33.33 (62.60%)
Maximum spatial batch extension              ...  24.49, 24.19, 18.13 au
Average spatial batch extension              ...   0.84,  0.83,  0.65 au

Time for grid setup =    0.162 sec

------------------------------
INITIAL GUESS: MODEL POTENTIAL
------------------------------
Loading Hartree-Fock densities                     ... done
Calculating cut-offs                               ... done
Setting up the integral package                    ... done
Initializing the effective Hamiltonian             ... done
Starting the Coulomb interaction                   ... done (   0.0 sec)
Reading the grid                                   ... done
Mapping shells                                     ... done
Starting the XC term evaluation                    ... done (   0.0 sec)
  promolecular density results
     # of electrons  =     38.000009268
     EX              =    -65.720110750
     EC              =     -1.507665425
     EX+EC           =    -67.227776175
Transforming the Hamiltonian                       ... done (   0.0 sec)
Diagonalizing the Hamiltonian                      ... done (   0.0 sec)
Back transforming the eigenvectors                 ... done (   0.0 sec)
Now organizing SCF variables                       ... done
                      ------------------
                      INITIAL GUESS DONE (   0.3 sec)
                      ------------------
--------------
SCF ITERATIONS
--------------
ITER       Energy         Delta-E        Max-DP      RMS-DP      [F,P]     Damp
               ***  Starting incremental Fock matrix formation  ***
  0  -1247.6005576169   0.000000000000 0.07029230  0.00143294  0.1402369 0.7000
  1  -1247.6503225709  -0.049764954040 0.07028705  0.00147296  0.0599257 0.7000
                               ***Turning on DIIS***
  2  -1247.6646510689  -0.014328497992 0.15466200  0.00315386  0.0379747 0.0000
  3  -1247.6920316667  -0.027380597803 0.11356197  0.00223706  0.0569321 0.0000
  4  -1247.6993621524  -0.007330485660 0.01103555  0.00030664  0.0318584 0.0000
  5  -1247.7021429655  -0.002780813131 0.01800339  0.00030368  0.0112538 0.0000
  6  -1247.7027098562  -0.000566890623 0.00945006  0.00017506  0.0042215 0.0000
  7  -1247.7028910487  -0.000181192565 0.00837107  0.00008973  0.0017741 0.0000
  8  -1247.7029723643  -0.000081315612 0.00745191  0.00007777  0.0012365 0.0000
  9  -1247.7030278276  -0.000055463222 0.00881593  0.00008102  0.0010413 0.0000
 10  -1247.7030717182  -0.000043890675 0.01333382  0.00012988  0.0007257 0.0000
 11  -1247.7031262301  -0.000054511891 0.00750624  0.00007470  0.0009299 0.0000
 12  -1247.7031360182  -0.000009788059 0.00460175  0.00004507  0.0005710 0.0000
 13  -1247.7031377473  -0.000001729142 0.00220384  0.00002069  0.0006336 0.0000
 14  -1247.7031388874  -0.000001140066 0.00124569  0.00001137  0.0001090 0.0000
                 **** Energy Check signals convergence ****

               *****************************************************
               *                     SUCCESS                       *
               *           SCF CONVERGED AFTER  15 CYCLES          *
               *****************************************************


----------------
TOTAL SCF ENERGY
----------------

Total Energy       :        -1247.70313901 Eh          -33951.72848 eV

Components:
Nuclear Repulsion  :           89.24861428 Eh            2428.57826 eV
Electronic Energy  :        -1336.95175329 Eh          -36380.30675 eV
One Electron Energy:        -1893.13032562 Eh          -51514.69512 eV
Two Electron Energy:          556.17857234 Eh           15134.38837 eV

Virial components:
Potential Energy   :        -2492.97007687 Eh          -67837.16457 eV
Kinetic Energy     :         1245.26693786 Eh           33885.43608 eV
Virial Ratio       :            2.00195637


DFT components:
N(Alpha)           :       19.999996514285 electrons
N(Beta)            :       17.999996141927 electrons
N(Total)           :       37.999992656212 electrons
E(X)               :      -59.695395487500 Eh       
E(C)               :       -1.521137167255 Eh       
E(XC)              :      -61.216532654755 Eh       
DFET-embed. en.    :        0.000000000000 Eh       

---------------
SCF CONVERGENCE
---------------

  Last Energy change         ...   -1.1971e-07  Tolerance :   1.0000e-06
  Last MAX-Density change    ...    1.2068e-04  Tolerance :   1.0000e-05
  Last RMS-Density change    ...    2.0456e-06  Tolerance :   1.0000e-06
  Last DIIS Error            ...    2.9692e-05  Tolerance :   1.0000e-06

             **** THE GBW FILE WAS UPDATED (12_TiS.gbw) ****
             **** DENSITY FILE WAS UPDATED (12_TiS.scfp) ****
             **** ENERGY FILE WAS UPDATED (12_TiS.en.tmp) ****
----------------------
UHF SPIN CONTAMINATION
----------------------

Warning: in a DFT calculation there is little theoretical justification to 
         calculate <S**2> as in Hartree-Fock theory. We will do it anyways
         but you should keep in mind that the values have only limited relevance

Expectation value of <S**2>     :     2.038101
Ideal value S*(S+1) for S=1.0   :     2.000000
Deviation                       :     0.038101

             **** THE GBW FILE WAS UPDATED (12_TiS.gbw) ****
             **** DENSITY FILE WAS UPDATED (12_TiS.scfp) ****
----------------
ORBITAL ENERGIES
----------------
                 SPIN UP ORBITALS
  NO   OCC          E(Eh)            E(eV) 
   0   1.0000    -178.662371     -4861.6503 
   1   1.0000     -88.683573     -2413.2027 
   2   1.0000     -19.747860      -537.3666 
   3   1.0000     -16.441076      -447.3844 
   4   1.0000     -16.441076      -447.3844 
   5   1.0000     -16.438996      -447.3278 
   6   1.0000      -7.810830      -212.5435 
   7   1.0000      -5.757729      -156.6758 
   8   1.0000      -5.757729      -156.6758 
   9   1.0000      -5.757150      -156.6600 
  10   1.0000      -2.339249       -63.6542 
  11   1.0000      -1.459411       -39.7126 
  12   1.0000      -1.459411       -39.7126 
  13   1.0000      -1.459087       -39.7038 
  14   1.0000      -0.593350       -16.1459 
  15   1.0000      -0.254642        -6.9292 
  16   1.0000      -0.230748        -6.2790 
  17   1.0000      -0.230748        -6.2790 
  18   1.0000      -0.199334        -5.4242 
  19   1.0000      -0.179179        -4.8757 
  20   0.0000      -0.095261        -2.5922 
  21   0.0000      -0.094682        -2.5764 
  22   0.0000      -0.094682        -2.5764 
  23   0.0000      -0.089120        -2.4251 
  24   0.0000      -0.023672        -0.6441 
  25   0.0000      -0.023672        -0.6441 
  26   0.0000      -0.000551        -0.0150 
  27   0.0000       0.007582         0.2063 
  28   0.0000       0.021696         0.5904 
  29   0.0000       0.021696         0.5904 
  30   0.0000       0.028623         0.7789 
  31   0.0000       0.030666         0.8345 
  32   0.0000       0.033601         0.9143 
  33   0.0000       0.033601         0.9143 
  34   0.0000       0.034390         0.9358 
  35   0.0000       0.060355         1.6423 
  36   0.0000       0.078769         2.1434 
  37   0.0000       0.108101         2.9416 
  38   0.0000       0.108101         2.9416 
  39   0.0000       0.111434         3.0323 
  40   0.0000       0.118874         3.2347 
  41   0.0000       0.124837         3.3970 
  42   0.0000       0.124837         3.3970 
  43   0.0000       0.128353         3.4927 
  44   0.0000       0.131564         3.5800 
  45   0.0000       0.139344         3.7918 
  46   0.0000       0.139344         3.7918 
  47   0.0000       0.197933         5.3860 
  48   0.0000       0.200166         5.4468 
  49   0.0000       0.201367         5.4795 
  50   0.0000       0.234631         6.3846 
  51   0.0000       0.234631         6.3846 
  52   0.0000       0.269509         7.3337 
  53   0.0000       0.292901         7.9702 
  54   0.0000       0.294396         8.0109 
  55   0.0000       0.294396         8.0109 
  56   0.0000       0.307118         8.3571 
  57   0.0000       0.307118         8.3571 
  58   0.0000       0.318448         8.6654 
  59   0.0000       0.320634         8.7249 
  60   0.0000       0.364793         9.9265 
  61   0.0000       0.406611        11.0645 
  62   0.0000       0.483268        13.1504 
  63   0.0000       0.495835        13.4923 
  64   0.0000       0.495835        13.4923 
  65   0.0000       0.507426        13.8078 
  66   0.0000       0.522444        14.2164 
  67   0.0000       0.522444        14.2164 
  68   0.0000       0.606887        16.5142 
  69   0.0000       0.610301        16.6071 
  70   0.0000       0.612673        16.6717 
  71   0.0000       0.639525        17.4023 
  72   0.0000       0.639525        17.4023 
  73   0.0000       0.679752        18.4970 
  74   0.0000       0.717862        19.5340 
  75   0.0000       0.717862        19.5340 
  76   0.0000       0.721394        19.6301 
  77   0.0000       0.731677        19.9099 
  78   0.0000       0.731677        19.9099 
  79   0.0000       0.812164        22.1001 
  80   0.0000       0.812716        22.1151 
  81   0.0000       0.820483        22.3265 
  82   0.0000       0.863987        23.5103 
  83   0.0000       0.863987        23.5103 
  84   0.0000       0.873046        23.7568 
  85   0.0000       0.875155        23.8142 
  86   0.0000       0.883689        24.0464 
  87   0.0000       0.883689        24.0464 
  88   0.0000       0.932242        25.3676 
  89   0.0000       0.944137        25.6913 
  90   0.0000       0.961947        26.1759 
  91   0.0000       0.981120        26.6976 
  92   0.0000       0.981120        26.6976 
  93   0.0000       1.089421        29.6446 
  94   0.0000       1.127328        30.6762 
  95   0.0000       1.127328        30.6762 
  96   0.0000       1.223982        33.3062 
  97   0.0000       1.232179        33.5293 
  98   0.0000       1.437559        39.1180 
  99   0.0000       1.437559        39.1180 
 100   0.0000       1.439578        39.1729 
 101   0.0000       1.803642        49.0796 
 102   0.0000       1.844963        50.2040 
 103   0.0000       1.844963        50.2040 
 104   0.0000       1.847917        50.2844 
 105   0.0000       1.848521        50.3008 
 106   0.0000       1.869529        50.8725 
 107   0.0000       1.995736        54.3067 
 108   0.0000       1.995736        54.3067 
 109   0.0000       2.052177        55.8426 
 110   0.0000       2.084110        56.7115 
 111   0.0000       2.100702        57.1630 
 112   0.0000       2.162048        58.8323 
 113   0.0000       2.162048        58.8323 
 114   0.0000       2.166677        58.9583 
 115   0.0000       2.166677        58.9583 
 116   0.0000       2.205912        60.0259 
 117   0.0000       2.209686        60.1286 
 118   0.0000       2.239029        60.9271 
 119   0.0000       2.239029        60.9271 
 120   0.0000       2.248997        61.1983 
 121   0.0000       2.300042        62.5873 
 122   0.0000       2.500475        68.0414 
 123   0.0000       2.500475        68.0414 
 124   0.0000       2.554551        69.5129 
 125   0.0000       3.202311        87.1393 
 126   0.0000       3.206538        87.2543 
 127   0.0000       3.215004        87.4847 
 128   0.0000       3.228648        87.8560 
 129   0.0000       3.228648        87.8560 
 130   0.0000       3.261654        88.7541 
 131   0.0000       3.276229        89.1507 
 132   0.0000       3.392209        92.3067 
 133   0.0000       3.392209        92.3067 
 134   0.0000       3.397879        92.4610 
 135   0.0000       3.397879        92.4610 
 136   0.0000       3.456610        94.0591 
 137   0.0000       3.476976        94.6133 
 138   0.0000       3.707220       100.8786 
 139   0.0000       3.707220       100.8786 
 140   0.0000       3.762541       102.3840 
 141   0.0000       4.062356       110.5423 
 142   0.0000       5.533129       150.5641 

                 SPIN DOWN ORBITALS
  NO   OCC          E(Eh)            E(eV) 
   0   1.0000    -178.661799     -4861.6347 
   1   1.0000     -88.685055     -2413.2430 
   2   1.0000     -19.731876      -536.9316 
   3   1.0000     -16.429197      -447.0612 
   4   1.0000     -16.426125      -446.9776 
   5   1.0000     -16.426125      -446.9776 
   6   1.0000      -7.812210      -212.5810 
   7   1.0000      -5.759747      -156.7307 
   8   1.0000      -5.759747      -156.7307 
   9   1.0000      -5.759372      -156.7205 
  10   1.0000      -2.286100       -62.2080 
  11   1.0000      -1.413463       -38.4623 
  12   1.0000      -1.398102       -38.0443 
  13   1.0000      -1.398102       -38.0443 
  14   1.0000      -0.602118       -16.3845 
  15   1.0000      -0.248726        -6.7682 
  16   1.0000      -0.231309        -6.2942 
  17   1.0000      -0.231309        -6.2942 
  18   0.0000      -0.105146        -2.8612 
  19   0.0000      -0.071924        -1.9572 
  20   0.0000      -0.067504        -1.8369 
  21   0.0000      -0.067504        -1.8369 
  22   0.0000      -0.056511        -1.5377 
  23   0.0000      -0.049487        -1.3466 
  24   0.0000      -0.002006        -0.0546 
  25   0.0000      -0.002006        -0.0546 
  26   0.0000       0.011124         0.3027 
  27   0.0000       0.014705         0.4001 
  28   0.0000       0.031346         0.8530 
  29   0.0000       0.031346         0.8530 
  30   0.0000       0.041453         1.1280 
  31   0.0000       0.041718         1.1352 
  32   0.0000       0.041718         1.1352 
  33   0.0000       0.042140         1.1467 
  34   0.0000       0.042409         1.1540 
  35   0.0000       0.066980         1.8226 
  36   0.0000       0.096132         2.6159 
  37   0.0000       0.112197         3.0530 
  38   0.0000       0.112197         3.0530 
  39   0.0000       0.114611         3.1187 
  40   0.0000       0.139911         3.8072 
  41   0.0000       0.141899         3.8613 
  42   0.0000       0.141899         3.8613 
  43   0.0000       0.142964         3.8903 
  44   0.0000       0.146459         3.9854 
  45   0.0000       0.153238         4.1698 
  46   0.0000       0.153238         4.1698 
  47   0.0000       0.203135         5.5276 
  48   0.0000       0.203725         5.5436 
  49   0.0000       0.208999         5.6871 
  50   0.0000       0.251577         6.8457 
  51   0.0000       0.251577         6.8457 
  52   0.0000       0.280006         7.6193 
  53   0.0000       0.297283         8.0895 
  54   0.0000       0.300960         8.1895 
  55   0.0000       0.300960         8.1895 
  56   0.0000       0.312197         8.4953 
  57   0.0000       0.312197         8.4953 
  58   0.0000       0.326210         8.8766 
  59   0.0000       0.326282         8.8786 
  60   0.0000       0.379685        10.3318 
  61   0.0000       0.425206        11.5704 
  62   0.0000       0.516451        14.0533 
  63   0.0000       0.516451        14.0533 
  64   0.0000       0.527102        14.3432 
  65   0.0000       0.531880        14.4732 
  66   0.0000       0.532599        14.4928 
  67   0.0000       0.532599        14.4928 
  68   0.0000       0.610263        16.6061 
  69   0.0000       0.610911        16.6237 
  70   0.0000       0.610927        16.6242 
  71   0.0000       0.644980        17.5508 
  72   0.0000       0.644980        17.5508 
  73   0.0000       0.691831        18.8257 
  74   0.0000       0.720580        19.6080 
  75   0.0000       0.731468        19.9043 
  76   0.0000       0.731468        19.9043 
  77   0.0000       0.731744        19.9118 
  78   0.0000       0.731744        19.9118 
  79   0.0000       0.823839        22.4178 
  80   0.0000       0.824891        22.4464 
  81   0.0000       0.827576        22.5195 
  82   0.0000       0.871421        23.7126 
  83   0.0000       0.871421        23.7126 
  84   0.0000       0.893512        24.3137 
  85   0.0000       0.896198        24.3868 
  86   0.0000       0.923727        25.1359 
  87   0.0000       0.923727        25.1359 
  88   0.0000       0.954043        25.9608 
  89   0.0000       0.954056        25.9612 
  90   0.0000       0.975995        26.5582 
  91   0.0000       0.999867        27.2078 
  92   0.0000       0.999867        27.2078 
  93   0.0000       1.093505        29.7558 
  94   0.0000       1.131780        30.7973 
  95   0.0000       1.131780        30.7973 
  96   0.0000       1.238855        33.7109 
  97   0.0000       1.240264        33.7493 
  98   0.0000       1.447984        39.4016 
  99   0.0000       1.447984        39.4016 
 100   0.0000       1.449295        39.4373 
 101   0.0000       1.821558        49.5671 
 102   0.0000       1.842327        50.1323 
 103   0.0000       1.842586        50.1393 
 104   0.0000       1.877386        51.0863 
 105   0.0000       1.877386        51.0863 
 106   0.0000       1.890051        51.4309 
 107   0.0000       1.997659        54.3591 
 108   0.0000       1.997659        54.3591 
 109   0.0000       2.102551        57.2133 
 110   0.0000       2.102667        57.2165 
 111   0.0000       2.116825        57.6017 
 112   0.0000       2.154479        58.6264 
 113   0.0000       2.154479        58.6264 
 114   0.0000       2.167758        58.9877 
 115   0.0000       2.167758        58.9877 
 116   0.0000       2.209145        60.1139 
 117   0.0000       2.212981        60.2183 
 118   0.0000       2.257500        61.4297 
 119   0.0000       2.257500        61.4297 
 120   0.0000       2.259268        61.4778 
 121   0.0000       2.329479        63.3883 
 122   0.0000       2.510640        68.3180 
 123   0.0000       2.510640        68.3180 
 124   0.0000       2.578354        70.1606 
 125   0.0000       3.234409        88.0127 
 126   0.0000       3.252994        88.5185 
 127   0.0000       3.252995        88.5185 
 128   0.0000       3.258228        88.6609 
 129   0.0000       3.258228        88.6609 
 130   0.0000       3.289644        89.5158 
 131   0.0000       3.298856        89.7664 
 132   0.0000       3.423550        93.1595 
 133   0.0000       3.423550        93.1595 
 134   0.0000       3.451372        93.9166 
 135   0.0000       3.451372        93.9166 
 136   0.0000       3.488802        94.9351 
 137   0.0000       3.509138        95.4885 
 138   0.0000       3.745765       101.9274 
 139   0.0000       3.745765       101.9274 
 140   0.0000       3.802257       103.4647 
 141   0.0000       4.083209       111.1098 
 142   0.0000       5.531894       150.5305 

                    ********************************
                    * MULLIKEN POPULATION ANALYSIS *
                    ********************************

--------------------------------------------
MULLIKEN ATOMIC CHARGES AND SPIN POPULATIONS
--------------------------------------------
   0 Ti:    0.221674    2.231500
   1 S :   -0.221674   -0.231500
Sum of atomic charges         :   -0.0000000
Sum of atomic spin populations:    2.0000000

-----------------------------------------------------
MULLIKEN REDUCED ORBITAL CHARGES AND SPIN POPULATIONS
-----------------------------------------------------
CHARGE
  0 Tis       :     6.869067  s :     6.869067
      pz      :     4.100621  p :    12.231299
      px      :     4.065339
      py      :     4.065339
      dz2     :     0.802662  d :     2.639821
      dxz     :     0.420058
      dyz     :     0.420058
      dx2y2   :     0.997044
      dxy     :     0.000000
      f0      :     0.002343  f :     0.028631
      f+1     :     0.012960
      f-1     :     0.012960
      f+2     :     0.000208
      f-2     :     0.000000
      f+3     :     0.000081
      f-3     :     0.000081
      g0      :     0.000939  g :     0.009508
      g+1     :     0.004212
      g-1     :     0.004212
      g+2     :    -0.000002
      g-2     :     0.000000
      g+3     :     0.000005
      g-3     :     0.000005
      g+4     :     0.000137
      g-4     :     0.000000
  1 S s       :     5.907810  s :     5.907810
      pz      :     3.313263  p :    10.294287
      px      :     3.490512
      py      :     3.490512
      dz2     :     0.002120  d :     0.018615
      dxz     :     0.007123
      dyz     :     0.007123
      dx2y2   :     0.002248
      dxy     :     0.000000
      f0      :     0.001038  f :     0.000961
      f+1     :    -0.000289
      f-1     :    -0.000289
      f+2     :     0.000502
      f-2     :     0.000000
      f+3     :    -0.000000
      f-3     :    -0.000000

SPIN
  0 Tis       :     0.563979  s :     0.563979
      pz      :     0.025563  p :     0.044281
      px      :     0.009359
      py      :     0.009359
      dz2     :     0.452476  d :     1.628934
      dxz     :     0.089707
      dyz     :     0.089707
      dx2y2   :     0.997044
      dxy     :     0.000000
      f0      :    -0.000126  f :    -0.003411
      f+1     :    -0.001798
      f-1     :    -0.001798
      f+2     :     0.000208
      f-2     :     0.000000
      f+3     :     0.000052
      f-3     :     0.000052
      g0      :     0.000068  g :    -0.002283
      g+1     :    -0.001244
      g-1     :    -0.001244
      g+2     :    -0.000002
      g-2     :     0.000000
      g+3     :     0.000004
      g-3     :     0.000004
      g+4     :     0.000131
      g-4     :     0.000000
  1 S s       :     0.025640  s :     0.025640
      pz      :    -0.071589  p :    -0.267768
      px      :    -0.098089
      py      :    -0.098089
      dz2     :     0.002825  d :     0.008561
      dxz     :     0.001744
      dyz     :     0.001744
      dx2y2   :     0.002248
      dxy     :     0.000000
      f0      :     0.001034  f :     0.002067
      f+1     :     0.000265
      f-1     :     0.000265
      f+2     :     0.000502
      f-2     :     0.000000
      f+3     :    -0.000000
      f-3     :    -0.000000


                     *******************************
                     * LOEWDIN POPULATION ANALYSIS *
                     *******************************

-------------------------------------------
LOEWDIN ATOMIC CHARGES AND SPIN POPULATIONS
-------------------------------------------
   0 Ti:    0.018607    2.045377
   1 S :   -0.018607   -0.045377

----------------------------------------------------
LOEWDIN REDUCED ORBITAL CHARGES AND SPIN POPULATIONS
----------------------------------------------------
CHARGE
  0 Tis       :     6.482943  s :     6.482943
      pz      :     4.195145  p :    12.200156
      px      :     4.002506
      py      :     4.002506
      dz2     :     0.948575  d :     2.864674
      dxz     :     0.472893
      dyz     :     0.472893
      dx2y2   :     0.970313
      dxy     :     0.000000
      f0      :     0.127910  f :     0.300977
      f+1     :     0.085441
      f-1     :     0.085441
      f+2     :     0.002025
      f-2     :     0.000000
      f+3     :     0.000081
      f-3     :     0.000081
      g0      :     0.041946  g :     0.132642
      g+1     :     0.045028
      g-1     :     0.045028
      g+2     :     0.000492
      g-2     :     0.000000
      g+3     :     0.000005
      g-3     :     0.000005
      g+4     :     0.000137
      g-4     :     0.000000
  1 S s       :     5.409735  s :     5.409735
      pz      :     3.503561  p :    10.105342
      px      :     3.300890
      py      :     3.300890
      dz2     :     0.181462  d :     0.293886
      dxz     :     0.049949
      dyz     :     0.049949
      dx2y2   :     0.012525
      dxy     :     0.000000
      f0      :     0.108586  f :     0.209644
      f+1     :     0.043207
      f-1     :     0.043207
      f+2     :     0.014644
      f-2     :     0.000000
      f+3     :     0.000000
      f-3     :     0.000000

SPIN
  0 Tis       :     0.516155  s :     0.516155
      pz      :     0.024545  p :     0.024197
      px      :    -0.000174
      py      :    -0.000174
      dz2     :     0.423929  d :     1.532952
      dxz     :     0.069355
      dyz     :     0.069355
      dx2y2   :     0.970313
      dxy     :     0.000000
      f0      :    -0.002259  f :    -0.019707
      f+1     :    -0.009788
      f-1     :    -0.009788
      f+2     :     0.002025
      f-2     :     0.000000
      f+3     :     0.000052
      f-3     :     0.000052
      g0      :    -0.000121  g :    -0.008220
      g+1     :    -0.004365
      g-1     :    -0.004365
      g+2     :     0.000492
      g-2     :     0.000000
      g+3     :     0.000004
      g-3     :     0.000004
      g+4     :     0.000131
      g-4     :     0.000000
  1 S s       :     0.028946  s :     0.028946
      pz      :    -0.003949  p :    -0.128278
      px      :    -0.062164
      py      :    -0.062164
      dz2     :     0.010017  d :     0.032804
      dxz     :     0.005131
      dyz     :     0.005131
      dx2y2   :     0.012525
      dxy     :     0.000000
      f0      :     0.002608  f :     0.021150
      f+1     :     0.001949
      f-1     :     0.001949
      f+2     :     0.014644
      f-2     :     0.000000
      f+3     :     0.000000
      f-3     :     0.000000


                      *****************************
                      * MAYER POPULATION ANALYSIS *
                      *****************************

  NA   - Mulliken gross atomic population
  ZA   - Total nuclear charge
  QA   - Mulliken gross atomic charge
  VA   - Mayer's total valence
  BVA  - Mayer's bonded valence
  FA   - Mayer's free valence

  ATOM       NA         ZA         QA         VA         BVA        FA
  0 Ti    21.7783    22.0000     0.2217     4.4495     2.5410     1.9085
  1 S     16.2217    16.0000    -0.2217     2.5716     2.5410     0.0306

  Mayer bond orders larger than 0.100000
B(  0-Ti,  1-S ) :   2.5410 

-------
TIMINGS
-------

Total SCF time: 0 days 0 hours 2 min 12 sec 

Total time                  ....     132.136 sec
Sum of individual times     ....     131.782 sec  ( 99.7%)

Fock matrix formation       ....     131.393 sec  ( 99.4%)
  XC integration            ....       0.607 sec  (  0.5% of F)
    Basis function eval.    ....       0.083 sec  ( 13.7% of XC)
    Density eval.           ....       0.099 sec  ( 16.3% of XC)
    XC-Functional eval.     ....       0.022 sec  (  3.6% of XC)
    XC-Potential eval.      ....       0.281 sec  ( 46.3% of XC)
Diagonalization             ....       0.083 sec  (  0.1%)
Density matrix formation    ....       0.011 sec  (  0.0%)
Population analysis         ....       0.007 sec  (  0.0%)
Initial guess               ....       0.098 sec  (  0.1%)
Orbital Transformation      ....       0.000 sec  (  0.0%)
Orbital Orthonormalization  ....       0.000 sec  (  0.0%)
DIIS solution               ....       0.028 sec  (  0.0%)
Grid generation             ....       0.162 sec  (  0.1%)


-------------------------------------------------------------------------------
                          DFT DISPERSION CORRECTION                            
                                                                               
                              DFTD3 V3.1  Rev 1                                
                          USING Becke-Johnson damping                          
-------------------------------------------------------------------------------
The TPSSH functional is recognized
Active option DFTDOPT                   ...         4   

molecular C6(AA) [au] = 1061.633470 


            DFT-D V3
 parameters
 s6 scaling factor         :     1.0000 
 a1 scaling factor         :     0.4529 
 s8 scaling factor         :     2.2382 
 a2 scaling factor         :     4.6550 
 ad hoc parameters k1-k3   :    16.0000     1.3333    -4.0000 

 Edisp/kcal,au: -1.180504648491  -0.001881253704 
 E6   /kcal   :  -0.355711197 
 E8   /kcal   :  -0.824793452 
 % E8         :  69.867869864 

-------------------------   ----------------
Dispersion correction           -0.001881254
-------------------------   ----------------


-------------------------   --------------------
FINAL SINGLE POINT ENERGY     -1247.705020260798
-------------------------   --------------------


                            ***************************************
                            *     ORCA property calculations      *
                            ***************************************

                                    ---------------------
                                    Active property flags
                                    ---------------------
   (+) Dipole Moment


------------------------------------------------------------------------------
                       ORCA ELECTRIC PROPERTIES CALCULATION
------------------------------------------------------------------------------

Dipole Moment Calculation                       ... on
Quadrupole Moment Calculation                   ... off
Polarizability Calculation                      ... off
GBWName                                         ... 12_TiS.gbw
Electron density file                           ... 12_TiS.scfp
The origin for moment calculation is the CENTER OF MASS  = ( 0.000000,  0.000000  1.499071)

-------------
DIPOLE MOMENT
-------------
                                X             Y             Z
Electronic contribution:      0.00000      -0.00000      -5.23198
Nuclear contribution   :      0.00000       0.00000       3.01278
                        -----------------------------------------
Total Dipole Moment    :      0.00000      -0.00000      -2.21920
                        -----------------------------------------
Magnitude (a.u.)       :      2.21920
Magnitude (Debye)      :      5.64075



--------------------
Rotational spectrum 
--------------------
 
Rotational constants in cm-1:     0.000000     0.201505     0.201505 
Rotational constants in MHz :     0.000000  6040.970749  6040.970749 

 Dipole components along the rotational axes: 
x,y,z [a.u.] :    -2.219198    -0.000000     0.000000 
x,y,z [Debye]:    -5.640754    -0.000000     0.000000 

 

Timings for individual modules:

Sum of individual times         ...      136.175 sec (=   2.270 min)
GTO integral calculation        ...        3.595 sec (=   0.060 min)   2.6 %
SCF iterations                  ...      132.580 sec (=   2.210 min)  97.4 %
                             ****ORCA TERMINATED NORMALLY****
TOTAL RUN TIME: 0 days 0 hours 2 minutes 16 seconds 837 msec
