
                                 *****************
                                 * O   R   C   A *
                                 *****************

           --- An Ab Initio, DFT and Semiempirical electronic structure package ---

                  #######################################################
                  #                        -***-                        #
                  #          Department of theory and spectroscopy      #
                  #               Directorship: Frank Neese             #
                  #        Max Planck Institute fuer Kohlenforschung    #
                  #                Kaiser Wilhelm Platz 1               #
                  #                 D-45470 Muelheim/Ruhr               #
                  #                      Germany                        #
                  #                                                     #
                  #                  All rights reserved                #
                  #                        -***-                        #
                  #######################################################


                         Program Version 4.2.0 -  RELEASE  -


 With contributions from (in alphabetic order):
   Daniel Aravena         : Magnetic Suceptibility
   Michael Atanasov       : Ab Initio Ligand Field Theory (pilot matlab implementation)
   Alexander A. Auer      : GIAO ZORA, VPT2
   Ute Becker             : Parallelization
   Giovanni Bistoni       : ED, misc. LED, open-shell LED, HFLED
   Martin Brehm           : Molecular dynamics
   Dmytro Bykov           : SCF Hessian
   Vijay G. Chilkuri      : MRCI spin determinant printing, contributions to CSF-ICE
   Dipayan Datta          : RHF DLPNO-CCSD density
   Achintya Kumar Dutta   : EOM-CC, STEOM-CC
   Dmitry Ganyushin       : Spin-Orbit,Spin-Spin,Magnetic field MRCI
   Miquel Garcia          : C-PCM Hessian, Gaussian charge scheme
   Yang Guo               : DLPNO-NEVPT2, CIM, IAO-localization
   Andreas Hansen         : Spin unrestricted coupled pair/coupled cluster methods
   Benjamin Helmich-Paris : CASSCF linear response (MC-RPA)
   Lee Huntington         : MR-EOM, pCC
   Robert Izsak           : Overlap fitted RIJCOSX, COSX-SCS-MP3, EOM
   Christian Kollmar      : KDIIS, OOCD, Brueckner-CCSD(T), CCSD density
   Simone Kossmann        : Meta GGA functionals, TD-DFT gradient, OOMP2, MP2 Hessian
   Martin Krupicka        : AUTO-CI
   Lucas Lang             : DCDCAS
   Dagmar Lenk            : GEPOL surface, SMD
   Dimitrios Liakos       : Extrapolation schemes; Compound Job, initial MDCI parallelization
   Dimitrios Manganas     : Further ROCIS development; embedding schemes
   Dimitrios Pantazis     : SARC Basis sets
   Taras Petrenko         : DFT Hessian,TD-DFT gradient, ASA, ECA, R-Raman, ABS, FL, XAS/XES, NRVS
   Peter Pinski           : DLPNO-MP2, DLPNO-MP2 Gradient
   Christoph Reimann      : Effective Core Potentials
   Marius Retegan         : Local ZFS, SOC
   Christoph Riplinger    : Optimizer, TS searches, QM/MM, DLPNO-CCSD(T), (RO)-DLPNO pert. Triples
   Tobias Risthaus        : Range-separated hybrids, TD-DFT gradient, RPA, STAB
   Michael Roemelt        : Original ROCIS implementation
   Masaaki Saitow         : Open-shell DLPNO-CCSD energy and density
   Barbara Sandhoefer     : DKH picture change effects
   Avijit Sen             : IP-ROCIS
   Kantharuban Sivalingam : CASSCF convergence, NEVPT2, FIC-MRCI
   Bernardo de Souza      : ESD, SOC TD-DFT
   Georgi Stoychev        : AutoAux, RI-MP2 NMR
   Willem Van den Heuvel  : Paramagnetic NMR
   Boris Wezisla          : Elementary symmetry handling
   Frank Wennmohs         : Technical directorship


 We gratefully acknowledge several colleagues who have allowed us to
 interface, adapt or use parts of their codes:
   Stefan Grimme, W. Hujo, H. Kruse,             : VdW corrections, initial TS optimization,
                  C. Bannwarth                     DFT functionals, gCP, sTDA/sTD-DF
   Ed Valeev, F. Pavosevic, A. Kumar             : LibInt (2-el integral package), F12 methods
   Garnet Chan, S. Sharma, J. Yang, R. Olivares  : DMRG
   Ulf Ekstrom                                   : XCFun DFT Library
   Mihaly Kallay                                 : mrcc  (arbitrary order and MRCC methods)
   Andreas Klamt, Michael Diedenhofen            : otool_cosmo (COSMO solvation model)
   Jiri Pittner, Ondrej Demel                    : Mk-CCSD
   Frank Weinhold                                : gennbo (NPA and NBO analysis)
   Christopher J. Cramer and Donald G. Truhlar   : smd solvation model
   Lars Goerigk                                  : TD-DFT with DH, B97 family of functionals
   V. Asgeirsson, H. Jonsson                     : NEB implementation
   FAccTs GmbH                                   : IRC, NEB, NEB-TS, Multilevel, MM, QM/MM, CI optimization
   S Lehtola, MJT Oliveira, MAL Marques          : LibXC Library


 Your calculation uses the libint2 library for the computation of 2-el integrals
 For citations please refer to: http://libint.valeyev.net

 Your ORCA version has been built with support for libXC version: 4.2.3
 For citations please refer to: https://tddft.org/programs/libxc/

 This ORCA versions uses:
   CBLAS   interface :  Fast vector & matrix operations
   LAPACKE interface :  Fast linear algebra routines
   SCALAPACK package :  Parallel linear algebra routines


Your calculation utilizes the atom-pairwise dispersion correction
with the Becke-Johnson damping scheme (D3BJ)
Cite in your paper:
S.Grimme, S.Ehrlich, L.Goerigk, J Comput Chem, (2011), 32, 1456–1465 
S.Grimme, J.Antony, S.Ehrlich and H.Krieg, J.Chem.Phys., 132, (2010), 154104 
   

----- Orbital basis set information -----
Your calculation utilizes the basis: aug-cc-pVTZ 
    H, B-Ne : Obtained from the ccRepo (grant-hill.group.shef.ac.uk/ccrepo) Feb. 2017
              R. A. Kendall, T. H. Dunning, Jr., R. J. Harrison, J. Chem. Phys. 96, 6796 (1992)
         He : Obtained from the ccRepo (grant-hill.group.shef.ac.uk/ccrepo) Feb. 2017
              D. E. Woon, T. H. Dunning, Jr., J. Chem. Phys. 100, 2975 (1994)
  Li-Be, Na : Obtained from the ccRepo (grant-hill.group.shef.ac.uk/ccrepo) Feb. 2017
              B. P. Prascher, D. E. Woon, K. A. Peterson, T. H. Dunning, Jr., A. K. Wilson, Theor. Chem. Acc. 128, 69 (2011)
         Mg : Obtained from the Peterson Research Group Website (tyr0.chem.wsu.edu/~kipeters) Feb. 2017
              B. P. Prascher, D. E. Woon, K. A. Peterson, T. H. Dunning, Jr., A. K. Wilson, Theor. Chem. Acc. 128, 69 (2011)
      Al-Ar : Obtained from the ccRepo (grant-hill.group.shef.ac.uk/ccrepo) Feb. 2017
              D. E. Woon, T. H. Dunning, Jr., J. Chem. Phys. 98, 1358 (1993)
      Sc-Zn : Obtained from the ccRepo (grant-hill.group.shef.ac.uk/ccrepo) Feb. 2017
              N. B. Balabanov, K. A. Peterson, J. Chem. Phys. 123, 064107 (2005)
              N. B. Balabanov, K. A. Peterson, J. Chem. Phys. 125, 074110 (2006)
      Ga-Kr : Obtained from the ccRepo (grant-hill.group.shef.ac.uk/ccrepo) Feb. 2017
              A. K. Wilson, D. E. Woon, K. A. Peterson, T. H. Dunning, Jr., J. Chem. Phys. 110, 7667 (1999)
     Ag, Au : Obtained from the Peterson Research Group Website (tyr0.chem.wsu.edu/~kipeters) Feb. 2017
              K. A. Peterson, C. Puzzarini, Theor. Chem. Acc. 114, 283 (2005)

----- AuxJK basis set information -----
Your calculation utilizes the auxiliary basis: def2/JK
   H-Ba, Hf-Rn: F. Weigend, J. Comput. Chem. 29, 167 (2008).

================================================================================
                                        WARNINGS
                       Please study these warnings very carefully!
================================================================================


WARNING: your system is open-shell and RHF/RKS was chosen
  ===> : WILL SWITCH to UHF/UKS


INFO   : the flag for use of LIBINT has been found!

================================================================================
                                       INPUT FILE
================================================================================
NAME = 31_FeH.in
|  1> #
|  2> # 31_FeH tpssh/aug-cc-pvtz
|  3> #
|  4> ! tpssh d3bj aug-cc-pvtz def2/jk grid4 nofinalgrid
|  5> 
|  6> *xyz 0 4
|  7>   Fe  0.00000000000000      0.00000000000000      0.22838748047068
|  8>   H   0.00000000000000      0.00000000000000      1.77161251952932
|  9> *
| 10> 
| 11> %pal
| 12> nprocs 24
| 13> end
| 14> 
| 15> 
| 16>                          ****END OF INPUT****
================================================================================

                       ****************************
                       * Single Point Calculation *
                       ****************************

---------------------------------
CARTESIAN COORDINATES (ANGSTROEM)
---------------------------------
  Fe     0.000000    0.000000    0.228387
  H      0.000000    0.000000    1.771613

----------------------------
CARTESIAN COORDINATES (A.U.)
----------------------------
  NO LB      ZA    FRAG     MASS         X           Y           Z
   0 Fe   26.0000    0    55.850    0.000000    0.000000    0.431590
   1 H     1.0000    0     1.008    0.000000    0.000000    3.347862

--------------------------------
INTERNAL COORDINATES (ANGSTROEM)
--------------------------------
 Fe     0   0   0     0.000000000000     0.00000000     0.00000000
 H      1   0   0     1.543225039059     0.00000000     0.00000000

---------------------------
INTERNAL COORDINATES (A.U.)
---------------------------
 Fe     0   0   0     0.000000000000     0.00000000     0.00000000
 H      1   0   0     2.916272686831     0.00000000     0.00000000

---------------------
BASIS SET INFORMATION
---------------------
There are 2 groups of distinct atoms

 Group   1 Type Fe  : 116s77p23d3f2g contracted to 8s7p5d3f2g pattern {19191919191911/151515151511/77711/111/11}
 Group   2 Type H   : 6s3p2d contracted to 4s3p2d pattern {3111/111/11}

Atom   0Fe   basis set group =>   1
Atom   1H    basis set group =>   2
----------------------------------
AUXILIARY/JK BASIS SET INFORMATION
----------------------------------
There are 2 groups of distinct atoms

 Group   1 Type Fe  : 19s14p12d10f7g3h1i contracted to 16s13p11d9f5g3h1i pattern {4111111111111111/2111111111111/21111111111/211111111/31111/111/1}
 Group   2 Type H   : 4s2p2d contracted to 2s2p2d pattern {31/11/11}

Atom   0Fe   basis set group =>   1
Atom   1H    basis set group =>   2


           ************************************************************
           *        Program running with 24 parallel MPI-processes    *
           *              working on a common directory               *
           ************************************************************
------------------------------------------------------------------------------
                           ORCA GTO INTEGRAL CALCULATION
------------------------------------------------------------------------------

                         BASIS SET STATISTICS AND STARTUP INFO

 # of primitive gaussian shells          ...  232
 # of primitive gaussian functions       ...  526
 # of contracted shells                  ...   34
 # of contracted basis functions         ...  116
 Highest angular momentum                ...    4
 Maximum contraction depth               ...   19
 Integral package used                   ... LIBINT
 Integral threshhold            Thresh   ...  1.000e-10
 Primitive cut-off              TCut     ...  1.000e-11


------------------------------ INTEGRAL EVALUATION ----------------------------


 * One electron integrals 
 Pre-screening matrix                    ... done
 Shell pair data                         ... done (   0.001 sec)



           ************************************************************
           *        Program running with 24 parallel MPI-processes    *
           *              working on a common directory               *
           ************************************************************
-------------------------------------------------------------------------------
                                 ORCA SCF
-------------------------------------------------------------------------------

------------
SCF SETTINGS
------------
Hamiltonian:
 Density Functional     Method          .... DFT(GTOs)
 Exchange Functional    Exchange        .... TPSS
 Correlation Functional Correlation     .... TPSS
 LDA part of GGA corr.  LDAOpt          .... PW91-LDA
 Gradients option       PostSCFGGA      .... off
 Hybrid DFT is turned on
   Fraction HF Exchange ScalHFX         ....  0.100000
   Scaling of DF-GGA-X  ScalDFX         ....  0.900000
   Scaling of DF-GGA-C  ScalDFC         ....  1.000000
   Scaling of DF-LDA-C  ScalLDAC        ....  1.000000
   Perturbative correction              ....  0.000000
   Density functional embedding theory  .... OFF
   NL short-range parameter             ....  5.200000


General Settings:
 Integral files         IntName         .... 31_FeH
 Hartree-Fock type      HFTyp           .... UHF
 Total Charge           Charge          ....    0
 Multiplicity           Mult            ....    4
 Number of Electrons    NEL             ....   27
 Basis Dimension        Dim             ....  116
 Nuclear Repulsion      ENuc            ....      8.9154900080 Eh

Convergence Acceleration:
 DIIS                   CNVDIIS         .... on
   Start iteration      DIISMaxIt       ....    12
   Startup error        DIISStart       ....  0.200000
   # of expansion vecs  DIISMaxEq       ....     5
   Bias factor          DIISBfac        ....   1.050
   Max. coefficient     DIISMaxC        ....  10.000
 Newton-Raphson         CNVNR           .... off
 SOSCF                  CNVSOSCF        .... off
 Level Shifting         CNVShift        .... on
   Level shift para.    LevelShift      ....    0.2500
   Turn off err/grad.   ShiftErr        ....    0.0010
 Zerner damping         CNVZerner       .... off
 Static damping         CNVDamp         .... on
   Fraction old density DampFac         ....    0.7000
   Max. Damping (<1)    DampMax         ....    0.9800
   Min. Damping (>=0)   DampMin         ....    0.0000
   Turn off err/grad.   DampErr         ....    0.1000
 Fernandez-Rico         CNVRico         .... off

SCF Procedure:
 Maximum # iterations   MaxIter         ....   125
 SCF integral mode      SCFMode         .... Direct
   Integral package                     .... LIBINT
 Reset frequency        DirectResetFreq ....    20
 Integral Threshold     Thresh          ....  1.000e-10 Eh
 Primitive CutOff       TCut            ....  1.000e-11 Eh

Convergence Tolerance:
 Convergence Check Mode ConvCheckMode   .... Total+1el-Energy
 Convergence forced     ConvForced      .... 0
 Energy Change          TolE            ....  1.000e-06 Eh
 1-El. energy change                    ....  1.000e-03 Eh
 DIIS Error             TolErr          ....  1.000e-06


Diagonalization of the overlap matrix:
Smallest eigenvalue                        ... 6.010e-05
Time for diagonalization                   ...    0.003 sec
Threshold for overlap eigenvalues          ... 1.000e-08
Number of eigenvalues below threshold      ... 0
Time for construction of square roots      ...    0.002 sec
Total time needed                          ...    0.005 sec

-------------------
DFT GRID GENERATION
-------------------

General Integration Accuracy     IntAcc      ...  4.670
Radial Grid Type                 RadialGrid  ... Gauss-Chebyshev
Angular Grid (max. acc.)         AngularGrid ... Lebedev-302
Angular grid pruning method      GridPruning ... 3 (G Style)
Weight generation scheme         WeightScheme... Becke
Basis function cutoff            BFCut       ...    1.0000e-10
Integration weight cutoff        WCut        ...    1.0000e-14
Grids for H and He will be reduced by one unit

# of grid points (after initial pruning)     ...  13034 (   0.0 sec)
# of grid points (after weights+screening)   ...  12994 (   0.0 sec)
nearest neighbour list constructed           ...    0.0 sec
Grid point re-assignment to atoms done       ...    0.0 sec
Grid point division into batches done        ...    0.1 sec
Reduced shell lists constructed in    0.1 sec

Total number of grid points                  ...    12994
Total number of batches                      ...      204
Average number of points per batch           ...       63
Average number of grid points per atom       ...     6497
Average number of shells per batch           ...    14.90 (43.82%)
Average number of basis functions per batch  ...    33.50 (28.88%)
Average number of large shells per batch     ...     8.00 (53.69%)
Average number of large basis fcns per batch ...    18.80 (56.12%)
Maximum spatial batch extension              ...  31.41, 28.57, 18.66 au
Average spatial batch extension              ...   1.02,  0.94,  0.71 au

Time for grid setup =    0.122 sec

------------------------------
INITIAL GUESS: MODEL POTENTIAL
------------------------------
Loading Hartree-Fock densities                     ... done
Calculating cut-offs                               ... done
Setting up the integral package                    ... done
Initializing the effective Hamiltonian             ... done
Starting the Coulomb interaction                   ... done (   0.0 sec)
Reading the grid                                   ... done
Mapping shells                                     ... done
Starting the XC term evaluation                    ... done (   0.0 sec)
  promolecular density results
     # of electrons  =     26.999503944
     EX              =    -54.366192963
     EC              =     -1.163273455
     EX+EC           =    -55.529466418
Transforming the Hamiltonian                       ... done (   0.0 sec)
Diagonalizing the Hamiltonian                      ... done (   0.0 sec)
Back transforming the eigenvectors                 ... done (   0.0 sec)
Now organizing SCF variables                       ... done
                      ------------------
                      INITIAL GUESS DONE (   0.2 sec)
                      ------------------
--------------
SCF ITERATIONS
--------------
ITER       Energy         Delta-E        Max-DP      RMS-DP      [F,P]     Damp
               ***  Starting incremental Fock matrix formation  ***
  0  -1264.1885073556   0.000000000000 0.05141504  0.00140514  0.2548404 0.7000
  1  -1264.2285597919  -0.040052436272 0.02735699  0.00062238  0.0796532 0.7000
                               ***Turning on DIIS***
  2  -1264.2428214374  -0.014261645556 0.07144626  0.00150750  0.0514718 0.0000
  3  -1264.2776854908  -0.034864053323 0.03633641  0.00086516  0.0454277 0.0000
  4  -1264.2823613085  -0.004675817758 0.00989057  0.00019153  0.0140124 0.0000
  5  -1264.2831076835  -0.000746374951 0.00651713  0.00013117  0.0065801 0.0000
  6  -1264.2833535409  -0.000245857467 0.00345296  0.00006777  0.0040765 0.0000
  7  -1264.2834686620  -0.000115121043 0.00245388  0.00004480  0.0013859 0.0000
  8  -1264.2835189576  -0.000050295585 0.00412108  0.00005796  0.0006976 0.0000
  9  -1264.2835586037  -0.000039646171 0.00089724  0.00001812  0.0002892 0.0000
 10  -1264.2835630563  -0.000004452511 0.00093593  0.00001676  0.0000923 0.0000
 11  -1264.2835648269  -0.000001770615 0.00012606  0.00000180  0.0000991 0.0000
                 **** Energy Check signals convergence ****

               *****************************************************
               *                     SUCCESS                       *
               *           SCF CONVERGED AFTER  12 CYCLES          *
               *****************************************************


----------------
TOTAL SCF ENERGY
----------------

Total Energy       :        -1264.28356489 Eh          -34402.90481 eV

Components:
Nuclear Repulsion  :            8.91549001 Eh             242.60282 eV
Electronic Energy  :        -1273.19905490 Eh          -34645.50763 eV
One Electron Energy:        -1766.12260897 Eh          -48058.63944 eV
Two Electron Energy:          492.92355407 Eh           13413.13182 eV

Virial components:
Potential Energy   :        -2526.80975523 Eh          -68757.98903 eV
Kinetic Energy     :         1262.52619034 Eh           34355.08422 eV
Virial Ratio       :            2.00139195


DFT components:
N(Alpha)           :       15.000005984131 electrons
N(Beta)            :       12.000005486767 electrons
N(Total)           :       27.000011470898 electrons
E(X)               :      -49.433000499048 Eh       
E(C)               :       -1.165513466072 Eh       
E(XC)              :      -50.598513965120 Eh       
DFET-embed. en.    :        0.000000000000 Eh       

---------------
SCF CONVERGENCE
---------------

  Last Energy change         ...   -6.4841e-08  Tolerance :   1.0000e-06
  Last MAX-Density change    ...    2.1673e-04  Tolerance :   1.0000e-05
  Last RMS-Density change    ...    3.9023e-06  Tolerance :   1.0000e-06
  Last DIIS Error            ...    3.0877e-05  Tolerance :   1.0000e-06

             **** THE GBW FILE WAS UPDATED (31_FeH.gbw) ****
             **** DENSITY FILE WAS UPDATED (31_FeH.scfp) ****
             **** ENERGY FILE WAS UPDATED (31_FeH.en.tmp) ****
----------------------
UHF SPIN CONTAMINATION
----------------------

Warning: in a DFT calculation there is little theoretical justification to 
         calculate <S**2> as in Hartree-Fock theory. We will do it anyways
         but you should keep in mind that the values have only limited relevance

Expectation value of <S**2>     :     3.789809
Ideal value S*(S+1) for S=1.5   :     3.750000
Deviation                       :     0.039809

             **** THE GBW FILE WAS UPDATED (31_FeH.gbw) ****
             **** DENSITY FILE WAS UPDATED (31_FeH.scfp) ****
----------------
ORBITAL ENERGIES
----------------
                 SPIN UP ORBITALS
  NO   OCC          E(Eh)            E(eV) 
   0   1.0000    -255.773939     -6959.9627 
   1   1.0000     -29.804513      -811.0220 
   2   1.0000     -25.647616      -697.9071 
   3   1.0000     -25.647616      -697.9071 
   4   1.0000     -25.618663      -697.1193 
   5   1.0000      -3.384444       -92.0954 
   6   1.0000      -2.180697       -59.3398 
   7   1.0000      -2.180697       -59.3398 
   8   1.0000      -2.121274       -57.7228 
   9   1.0000      -0.274544        -7.4707 
  10   1.0000      -0.245846        -6.6898 
  11   1.0000      -0.245846        -6.6898 
  12   1.0000      -0.195767        -5.3271 
  13   1.0000      -0.191808        -5.2194 
  14   1.0000      -0.191808        -5.2194 
  15   0.0000      -0.075598        -2.0571 
  16   0.0000      -0.027225        -0.7408 
  17   0.0000      -0.027225        -0.7408 
  18   0.0000       0.008936         0.2432 
  19   0.0000       0.020101         0.5470 
  20   0.0000       0.034811         0.9473 
  21   0.0000       0.034811         0.9473 
  22   0.0000       0.059580         1.6212 
  23   0.0000       0.063091         1.7168 
  24   0.0000       0.063091         1.7168 
  25   0.0000       0.064517         1.7556 
  26   0.0000       0.064517         1.7556 
  27   0.0000       0.075478         2.0539 
  28   0.0000       0.120257         3.2724 
  29   0.0000       0.177943         4.8421 
  30   0.0000       0.177943         4.8421 
  31   0.0000       0.178529         4.8580 
  32   0.0000       0.221962         6.0399 
  33   0.0000       0.258672         7.0388 
  34   0.0000       0.258672         7.0388 
  35   0.0000       0.273671         7.4470 
  36   0.0000       0.273673         7.4470 
  37   0.0000       0.306973         8.3532 
  38   0.0000       0.306973         8.3532 
  39   0.0000       0.313008         8.5174 
  40   0.0000       0.509656        13.8684 
  41   0.0000       0.539215        14.6728 
  42   0.0000       0.692487        18.8435 
  43   0.0000       0.715081        19.4583 
  44   0.0000       0.715085        19.4585 
  45   0.0000       0.742692        20.2097 
  46   0.0000       0.742692        20.2097 
  47   0.0000       0.828508        22.5448 
  48   0.0000       0.828508        22.5448 
  49   0.0000       0.861433        23.4408 
  50   0.0000       0.861433        23.4408 
  51   0.0000       0.872987        23.7552 
  52   0.0000       0.962272        26.1848 
  53   0.0000       0.962272        26.1848 
  54   0.0000       0.984063        26.7777 
  55   0.0000       1.012343        27.5472 
  56   0.0000       1.012352        27.5475 
  57   0.0000       1.054915        28.7057 
  58   0.0000       1.054915        28.7057 
  59   0.0000       1.117417        30.4065 
  60   0.0000       1.117417        30.4065 
  61   0.0000       1.337488        36.3949 
  62   0.0000       1.432104        38.9695 
  63   0.0000       1.659653        45.1615 
  64   0.0000       1.659653        45.1615 
  65   0.0000       2.150244        58.5111 
  66   0.0000       2.645063        71.9758 
  67   0.0000       2.645063        71.9758 
  68   0.0000       2.678972        72.8985 
  69   0.0000       2.678972        72.8985 
  70   0.0000       2.714169        73.8563 
  71   0.0000       2.714187        73.8568 
  72   0.0000       2.771957        75.4288 
  73   0.0000       2.914416        79.3053 
  74   0.0000       3.001402        81.6723 
  75   0.0000       3.001402        81.6723 
  76   0.0000       3.034804        82.5812 
  77   0.0000       3.298196        89.7485 
  78   0.0000       3.298295        89.7512 
  79   0.0000       3.316175        90.2377 
  80   0.0000       3.316183        90.2379 
  81   0.0000       3.323820        90.4457 
  82   0.0000       3.323820        90.4457 
  83   0.0000       3.333958        90.7216 
  84   0.0000       3.362431        91.4964 
  85   0.0000       3.362431        91.4964 
  86   0.0000       3.576729        97.3277 
  87   0.0000       3.871113       105.3383 
  88   0.0000       3.871184       105.3403 
  89   0.0000       4.151542       112.9692 
  90   0.0000       4.151542       112.9692 
  91   0.0000       4.490622       122.1960 
  92   0.0000       4.490631       122.1963 
  93   0.0000       4.529800       123.2621 
  94   0.0000       4.529800       123.2621 
  95   0.0000       4.882052       132.8474 
  96   0.0000       4.885850       132.9507 
  97   0.0000       4.885850       132.9507 
  98   0.0000       5.231838       142.3656 
  99   0.0000       5.899908       160.5447 
 100   0.0000       8.880126       241.6405 
 101   0.0000       8.880126       241.6405 
 102   0.0000       8.967665       244.0226 
 103   0.0000       8.967683       244.0231 
 104   0.0000       9.024465       245.5682 
 105   0.0000       9.024465       245.5682 
 106   0.0000       9.329016       253.8554 
 107   0.0000       9.661214       262.8950 
 108   0.0000       9.661234       262.8955 
 109   0.0000       9.712956       264.3030 
 110   0.0000       9.712956       264.3030 
 111   0.0000       9.762729       265.6574 
 112   0.0000       9.762745       265.6578 
 113   0.0000       9.976116       271.4639 
 114   0.0000       9.976116       271.4639 
 115   0.0000      10.266095       279.3547 

                 SPIN DOWN ORBITALS
  NO   OCC          E(Eh)            E(eV) 
   0   1.0000    -255.772973     -6959.9364 
   1   1.0000     -29.758331      -809.7654 
   2   1.0000     -25.602363      -696.6757 
   3   1.0000     -25.602363      -696.6757 
   4   1.0000     -25.593446      -696.4331 
   5   1.0000      -3.262792       -88.7851 
   6   1.0000      -2.035733       -55.3951 
   7   1.0000      -2.033874       -55.3445 
   8   1.0000      -2.033874       -55.3445 
   9   1.0000      -0.265241        -7.2176 
  10   1.0000      -0.142028        -3.8648 
  11   1.0000      -0.142028        -3.8648 
  12   0.0000      -0.080447        -2.1891 
  13   0.0000      -0.039050        -1.0626 
  14   0.0000      -0.039046        -1.0625 
  15   0.0000      -0.015348        -0.4177 
  16   0.0000      -0.007813        -0.2126 
  17   0.0000      -0.007813        -0.2126 
  18   0.0000       0.015668         0.4263 
  19   0.0000       0.026495         0.7210 
  20   0.0000       0.044822         1.2197 
  21   0.0000       0.044822         1.2197 
  22   0.0000       0.065134         1.7724 
  23   0.0000       0.068798         1.8721 
  24   0.0000       0.068798         1.8721 
  25   0.0000       0.076647         2.0857 
  26   0.0000       0.076650         2.0858 
  27   0.0000       0.088507         2.4084 
  28   0.0000       0.134355         3.6560 
  29   0.0000       0.183599         4.9960 
  30   0.0000       0.202326         5.5056 
  31   0.0000       0.202326         5.5056 
  32   0.0000       0.232703         6.3322 
  33   0.0000       0.261564         7.1175 
  34   0.0000       0.261564         7.1175 
  35   0.0000       0.306287         8.3345 
  36   0.0000       0.306437         8.3386 
  37   0.0000       0.314933         8.5698 
  38   0.0000       0.314933         8.5698 
  39   0.0000       0.328955         8.9513 
  40   0.0000       0.531426        14.4608 
  41   0.0000       0.546625        14.8744 
  42   0.0000       0.701070        19.0771 
  43   0.0000       0.716199        19.4888 
  44   0.0000       0.716204        19.4889 
  45   0.0000       0.782409        21.2904 
  46   0.0000       0.782409        21.2904 
  47   0.0000       0.866536        23.5796 
  48   0.0000       0.866536        23.5796 
  49   0.0000       0.870717        23.6934 
  50   0.0000       0.878728        23.9114 
  51   0.0000       0.878728        23.9114 
  52   0.0000       0.969686        26.3865 
  53   0.0000       0.969686        26.3865 
  54   0.0000       1.024657        27.8823 
  55   0.0000       1.033730        28.1292 
  56   0.0000       1.033759        28.1300 
  57   0.0000       1.068852        29.0849 
  58   0.0000       1.068852        29.0849 
  59   0.0000       1.193217        32.4691 
  60   0.0000       1.193295        32.4712 
  61   0.0000       1.353695        36.8359 
  62   0.0000       1.455126        39.5960 
  63   0.0000       1.677998        45.6606 
  64   0.0000       1.677998        45.6606 
  65   0.0000       2.165487        58.9259 
  66   0.0000       2.732197        74.3469 
  67   0.0000       2.732197        74.3469 
  68   0.0000       2.754759        74.9608 
  69   0.0000       2.754781        74.9614 
  70   0.0000       2.757655        75.0396 
  71   0.0000       2.757655        75.0396 
  72   0.0000       2.825877        76.8960 
  73   0.0000       2.993559        81.4589 
  74   0.0000       3.054423        83.1151 
  75   0.0000       3.091682        84.1289 
  76   0.0000       3.091682        84.1289 
  77   0.0000       3.342931        90.9658 
  78   0.0000       3.342957        90.9665 
  79   0.0000       3.365393        91.5770 
  80   0.0000       3.365393        91.5770 
  81   0.0000       3.372844        91.7798 
  82   0.0000       3.388154        92.1964 
  83   0.0000       3.388297        92.2002 
  84   0.0000       3.393440        92.3402 
  85   0.0000       3.393440        92.3402 
  86   0.0000       3.627890        98.7199 
  87   0.0000       3.876874       105.4951 
  88   0.0000       3.876937       105.4968 
  89   0.0000       4.154276       113.0436 
  90   0.0000       4.154276       113.0436 
  91   0.0000       4.551016       123.8394 
  92   0.0000       4.551016       123.8394 
  93   0.0000       4.611100       125.4744 
  94   0.0000       4.611104       125.4745 
  95   0.0000       4.911530       133.6495 
  96   0.0000       4.937816       134.3648 
  97   0.0000       4.937816       134.3648 
  98   0.0000       5.296266       144.1187 
  99   0.0000       5.952593       161.9783 
 100   0.0000       9.062174       246.5943 
 101   0.0000       9.062192       246.5948 
 102   0.0000       9.062259       246.5966 
 103   0.0000       9.062259       246.5966 
 104   0.0000       9.153469       249.0786 
 105   0.0000       9.153469       249.0786 
 106   0.0000       9.465646       257.5733 
 107   0.0000       9.792845       266.4769 
 108   0.0000       9.792874       266.4776 
 109   0.0000       9.795510       266.5494 
 110   0.0000       9.795510       266.5494 
 111   0.0000       9.846272       267.9307 
 112   0.0000       9.846275       267.9308 
 113   0.0000      10.068197       273.9696 
 114   0.0000      10.068197       273.9696 
 115   0.0000      10.368703       282.1467 

                    ********************************
                    * MULLIKEN POPULATION ANALYSIS *
                    ********************************

--------------------------------------------
MULLIKEN ATOMIC CHARGES AND SPIN POPULATIONS
--------------------------------------------
   0 Fe:    0.036651    3.149233
   1 H :   -0.036651   -0.149233
Sum of atomic charges         :   -0.0000000
Sum of atomic spin populations:    3.0000000

-----------------------------------------------------
MULLIKEN REDUCED ORBITAL CHARGES AND SPIN POPULATIONS
-----------------------------------------------------
CHARGE
  0 Fes       :     6.897973  s :     6.897973
      pz      :     4.108168  p :    12.112739
      px      :     4.002286
      py      :     4.002286
      dz2     :     0.965436  d :     6.948541
      dxz     :     1.991638
      dyz     :     1.991638
      dx2y2   :     0.999915
      dxy     :     0.999915
      f0      :     0.003664  f :     0.003985
      f+1     :     0.000089
      f-1     :     0.000089
      f+2     :     0.000072
      f-2     :     0.000072
      f+3     :     0.000000
      f-3     :     0.000000
      g0      :     0.000024  g :     0.000111
      g+1     :     0.000015
      g-1     :     0.000015
      g+2     :     0.000028
      g-2     :     0.000028
      g+3     :     0.000000
      g-3     :     0.000000
      g+4     :     0.000000
      g-4     :     0.000000
  1 H s       :     1.038738  s :     1.038738
      pz      :    -0.014641  p :    -0.002455
      px      :     0.006093
      py      :     0.006093
      dz2     :     0.000637  d :     0.000368
      dxz     :    -0.000120
      dyz     :    -0.000120
      dx2y2   :    -0.000014
      dxy     :    -0.000014

SPIN
  0 Fes       :     0.406899  s :     0.406899
      pz      :    -0.025485  p :    -0.024676
      px      :     0.000405
      py      :     0.000405
      dz2     :     0.759223  d :     2.767303
      dxz     :     0.004126
      dyz     :     0.004126
      dx2y2   :     0.999915
      dxy     :     0.999915
      f0      :    -0.000660  f :    -0.000451
      f+1     :     0.000032
      f-1     :     0.000032
      f+2     :     0.000072
      f-2     :     0.000072
      f+3     :    -0.000000
      f-3     :    -0.000000
      g0      :     0.000095  g :     0.000158
      g+1     :     0.000004
      g-1     :     0.000004
      g+2     :     0.000028
      g-2     :     0.000028
      g+3     :     0.000000
      g-3     :     0.000000
      g+4     :    -0.000000
      g-4     :    -0.000000
  1 H s       :    -0.136822  s :    -0.136822
      pz      :    -0.003115  p :    -0.010718
      px      :    -0.003801
      py      :    -0.003801
      dz2     :    -0.000134  d :    -0.001693
      dxz     :    -0.000765
      dyz     :    -0.000765
      dx2y2   :    -0.000014
      dxy     :    -0.000014


                     *******************************
                     * LOEWDIN POPULATION ANALYSIS *
                     *******************************

-------------------------------------------
LOEWDIN ATOMIC CHARGES AND SPIN POPULATIONS
-------------------------------------------
   0 Fe:    0.689247    3.007860
   1 H :   -0.689247   -0.007860

----------------------------------------------------
LOEWDIN REDUCED ORBITAL CHARGES AND SPIN POPULATIONS
----------------------------------------------------
CHARGE
  0 Fes       :     6.570428  s :     6.570428
      pz      :     4.061373  p :    11.982165
      px      :     3.960396
      py      :     3.960396
      dz2     :     0.965661  d :     6.733392
      dxz     :     1.889936
      dyz     :     1.889936
      dx2y2   :     0.993930
      dxy     :     0.993930
      f0      :     0.017344  f :     0.023253
      f+1     :     0.002669
      f-1     :     0.002669
      f+2     :     0.000286
      f-2     :     0.000286
      f+3     :     0.000000
      f-3     :     0.000000
      g0      :     0.000910  g :     0.001516
      g+1     :     0.000255
      g-1     :     0.000255
      g+2     :     0.000048
      g-2     :     0.000048
      g+3     :     0.000000
      g-3     :     0.000000
      g+4     :     0.000000
      g-4     :     0.000000
  1 H s       :     1.054948  s :     1.054948
      pz      :     0.195031  p :     0.337598
      px      :     0.071283
      py      :     0.071283
      dz2     :     0.134305  d :     0.296701
      dxz     :     0.075461
      dyz     :     0.075461
      dx2y2   :     0.005737
      dxy     :     0.005737

SPIN
  0 Fes       :     0.338587  s :     0.338587
      pz      :    -0.048143  p :    -0.046661
      px      :     0.000741
      py      :     0.000741
      dz2     :     0.716571  d :     2.718539
      dxz     :     0.007055
      dyz     :     0.007055
      dx2y2   :     0.993930
      dxy     :     0.993930
      f0      :    -0.003553  f :    -0.002830
      f+1     :     0.000076
      f-1     :     0.000076
      f+2     :     0.000286
      f-2     :     0.000286
      f+3     :    -0.000000
      f-3     :    -0.000000
      g0      :    -0.000053  g :     0.000225
      g+1     :     0.000091
      g-1     :     0.000091
      g+2     :     0.000048
      g-2     :     0.000048
      g+3     :     0.000000
      g-3     :     0.000000
      g+4     :    -0.000000
      g-4     :    -0.000000
  1 H s       :    -0.037040  s :    -0.037040
      pz      :     0.031177  p :     0.017294
      px      :    -0.006941
      py      :    -0.006941
      dz2     :     0.002454  d :     0.011886
      dxz     :    -0.001021
      dyz     :    -0.001021
      dx2y2   :     0.005737
      dxy     :     0.005737


                      *****************************
                      * MAYER POPULATION ANALYSIS *
                      *****************************

  NA   - Mulliken gross atomic population
  ZA   - Total nuclear charge
  QA   - Mulliken gross atomic charge
  VA   - Mayer's total valence
  BVA  - Mayer's bonded valence
  FA   - Mayer's free valence

  ATOM       NA         ZA         QA         VA         BVA        FA
  0 Fe    25.9633    26.0000     0.0367     4.0133     1.0094     3.0039
  1 H      1.0367     1.0000    -0.0367     1.0339     1.0094     0.0245

  Mayer bond orders larger than 0.100000
B(  0-Fe,  1-H ) :   1.0094 

-------
TIMINGS
-------

Total SCF time: 0 days 0 hours 1 min 17 sec 

Total time                  ....      77.655 sec
Sum of individual times     ....      77.323 sec  ( 99.6%)

Fock matrix formation       ....      77.038 sec  ( 99.2%)
  XC integration            ....       0.667 sec  (  0.9% of F)
    Basis function eval.    ....       0.067 sec  ( 10.0% of XC)
    Density eval.           ....       0.056 sec  (  8.5% of XC)
    XC-Functional eval.     ....       0.018 sec  (  2.7% of XC)
    XC-Potential eval.      ....       0.159 sec  ( 23.8% of XC)
Diagonalization             ....       0.044 sec  (  0.1%)
Density matrix formation    ....       0.007 sec  (  0.0%)
Population analysis         ....       0.005 sec  (  0.0%)
Initial guess               ....       0.091 sec  (  0.1%)
Orbital Transformation      ....       0.000 sec  (  0.0%)
Orbital Orthonormalization  ....       0.000 sec  (  0.0%)
DIIS solution               ....       0.016 sec  (  0.0%)
Grid generation             ....       0.122 sec  (  0.2%)


-------------------------------------------------------------------------------
                          DFT DISPERSION CORRECTION                            
                                                                               
                              DFTD3 V3.1  Rev 1                                
                          USING Becke-Johnson damping                          
-------------------------------------------------------------------------------
The TPSSH functional is recognized
Active option DFTDOPT                   ...         4   

molecular C6(AA) [au] = 297.697841 


            DFT-D V3
 parameters
 s6 scaling factor         :     1.0000 
 a1 scaling factor         :     0.4529 
 s8 scaling factor         :     2.2382 
 a2 scaling factor         :     4.6550 
 ad hoc parameters k1-k3   :    16.0000     1.3333    -4.0000 

 Edisp/kcal,au: -0.268984008006  -0.000428653256 
 E6   /kcal   :  -0.110941812 
 E8   /kcal   :  -0.158042196 
 % E8         :  58.755238812 

-------------------------   ----------------
Dispersion correction           -0.000428653
-------------------------   ----------------


-------------------------   --------------------
FINAL SINGLE POINT ENERGY     -1264.283993544964
-------------------------   --------------------


                            ***************************************
                            *     ORCA property calculations      *
                            ***************************************

                                    ---------------------
                                    Active property flags
                                    ---------------------
   (+) Dipole Moment


------------------------------------------------------------------------------
                       ORCA ELECTRIC PROPERTIES CALCULATION
------------------------------------------------------------------------------

Dipole Moment Calculation                       ... on
Quadrupole Moment Calculation                   ... off
Polarizability Calculation                      ... off
GBWName                                         ... 31_FeH.gbw
Electron density file                           ... 31_FeH.scfp
The origin for moment calculation is the CENTER OF MASS  = ( 0.000000,  0.000000  0.483291)

-------------
DIPOLE MOMENT
-------------
                                X             Y             Z
Electronic contribution:     -0.00000      -0.00000      -2.60925
Nuclear contribution   :      0.00000       0.00000       1.52035
                        -----------------------------------------
Total Dipole Moment    :     -0.00000      -0.00000      -1.08890
                        -----------------------------------------
Magnitude (a.u.)       :      1.08890
Magnitude (Debye)      :      2.76777



--------------------
Rotational spectrum 
--------------------
 
Rotational constants in cm-1:     0.000000     7.149016     7.149016 
Rotational constants in MHz :     0.000000 214322.097628 214322.097628 

 Dipole components along the rotational axes: 
x,y,z [a.u.] :    -1.088900    -0.000000    -0.000000 
x,y,z [Debye]:    -2.767765    -0.000000    -0.000000 

 

Timings for individual modules:

Sum of individual times         ...       81.215 sec (=   1.354 min)
GTO integral calculation        ...        3.075 sec (=   0.051 min)   3.8 %
SCF iterations                  ...       78.140 sec (=   1.302 min)  96.2 %
                             ****ORCA TERMINATED NORMALLY****
TOTAL RUN TIME: 0 days 0 hours 1 minutes 21 seconds 866 msec
