
                                 *****************
                                 * O   R   C   A *
                                 *****************

           --- An Ab Initio, DFT and Semiempirical electronic structure package ---

                  #######################################################
                  #                        -***-                        #
                  #          Department of theory and spectroscopy      #
                  #               Directorship: Frank Neese             #
                  #        Max Planck Institute fuer Kohlenforschung    #
                  #                Kaiser Wilhelm Platz 1               #
                  #                 D-45470 Muelheim/Ruhr               #
                  #                      Germany                        #
                  #                                                     #
                  #                  All rights reserved                #
                  #                        -***-                        #
                  #######################################################


                         Program Version 4.2.0 -  RELEASE  -


 With contributions from (in alphabetic order):
   Daniel Aravena         : Magnetic Suceptibility
   Michael Atanasov       : Ab Initio Ligand Field Theory (pilot matlab implementation)
   Alexander A. Auer      : GIAO ZORA, VPT2
   Ute Becker             : Parallelization
   Giovanni Bistoni       : ED, misc. LED, open-shell LED, HFLED
   Martin Brehm           : Molecular dynamics
   Dmytro Bykov           : SCF Hessian
   Vijay G. Chilkuri      : MRCI spin determinant printing, contributions to CSF-ICE
   Dipayan Datta          : RHF DLPNO-CCSD density
   Achintya Kumar Dutta   : EOM-CC, STEOM-CC
   Dmitry Ganyushin       : Spin-Orbit,Spin-Spin,Magnetic field MRCI
   Miquel Garcia          : C-PCM Hessian, Gaussian charge scheme
   Yang Guo               : DLPNO-NEVPT2, CIM, IAO-localization
   Andreas Hansen         : Spin unrestricted coupled pair/coupled cluster methods
   Benjamin Helmich-Paris : CASSCF linear response (MC-RPA)
   Lee Huntington         : MR-EOM, pCC
   Robert Izsak           : Overlap fitted RIJCOSX, COSX-SCS-MP3, EOM
   Christian Kollmar      : KDIIS, OOCD, Brueckner-CCSD(T), CCSD density
   Simone Kossmann        : Meta GGA functionals, TD-DFT gradient, OOMP2, MP2 Hessian
   Martin Krupicka        : AUTO-CI
   Lucas Lang             : DCDCAS
   Dagmar Lenk            : GEPOL surface, SMD
   Dimitrios Liakos       : Extrapolation schemes; Compound Job, initial MDCI parallelization
   Dimitrios Manganas     : Further ROCIS development; embedding schemes
   Dimitrios Pantazis     : SARC Basis sets
   Taras Petrenko         : DFT Hessian,TD-DFT gradient, ASA, ECA, R-Raman, ABS, FL, XAS/XES, NRVS
   Peter Pinski           : DLPNO-MP2, DLPNO-MP2 Gradient
   Christoph Reimann      : Effective Core Potentials
   Marius Retegan         : Local ZFS, SOC
   Christoph Riplinger    : Optimizer, TS searches, QM/MM, DLPNO-CCSD(T), (RO)-DLPNO pert. Triples
   Tobias Risthaus        : Range-separated hybrids, TD-DFT gradient, RPA, STAB
   Michael Roemelt        : Original ROCIS implementation
   Masaaki Saitow         : Open-shell DLPNO-CCSD energy and density
   Barbara Sandhoefer     : DKH picture change effects
   Avijit Sen             : IP-ROCIS
   Kantharuban Sivalingam : CASSCF convergence, NEVPT2, FIC-MRCI
   Bernardo de Souza      : ESD, SOC TD-DFT
   Georgi Stoychev        : AutoAux, RI-MP2 NMR
   Willem Van den Heuvel  : Paramagnetic NMR
   Boris Wezisla          : Elementary symmetry handling
   Frank Wennmohs         : Technical directorship


 We gratefully acknowledge several colleagues who have allowed us to
 interface, adapt or use parts of their codes:
   Stefan Grimme, W. Hujo, H. Kruse,             : VdW corrections, initial TS optimization,
                  C. Bannwarth                     DFT functionals, gCP, sTDA/sTD-DF
   Ed Valeev, F. Pavosevic, A. Kumar             : LibInt (2-el integral package), F12 methods
   Garnet Chan, S. Sharma, J. Yang, R. Olivares  : DMRG
   Ulf Ekstrom                                   : XCFun DFT Library
   Mihaly Kallay                                 : mrcc  (arbitrary order and MRCC methods)
   Andreas Klamt, Michael Diedenhofen            : otool_cosmo (COSMO solvation model)
   Jiri Pittner, Ondrej Demel                    : Mk-CCSD
   Frank Weinhold                                : gennbo (NPA and NBO analysis)
   Christopher J. Cramer and Donald G. Truhlar   : smd solvation model
   Lars Goerigk                                  : TD-DFT with DH, B97 family of functionals
   V. Asgeirsson, H. Jonsson                     : NEB implementation
   FAccTs GmbH                                   : IRC, NEB, NEB-TS, Multilevel, MM, QM/MM, CI optimization
   S Lehtola, MJT Oliveira, MAL Marques          : LibXC Library


 Your calculation uses the libint2 library for the computation of 2-el integrals
 For citations please refer to: http://libint.valeyev.net

 Your ORCA version has been built with support for libXC version: 4.2.3
 For citations please refer to: https://tddft.org/programs/libxc/

 This ORCA versions uses:
   CBLAS   interface :  Fast vector & matrix operations
   LAPACKE interface :  Fast linear algebra routines
   SCALAPACK package :  Parallel linear algebra routines


Your calculation utilizes the atom-pairwise dispersion correction
with the Becke-Johnson damping scheme (D3BJ)
Cite in your paper:
S.Grimme, S.Ehrlich, L.Goerigk, J Comput Chem, (2011), 32, 1456–1465 
S.Grimme, J.Antony, S.Ehrlich and H.Krieg, J.Chem.Phys., 132, (2010), 154104 
   

----- Orbital basis set information -----
Your calculation utilizes the basis: aug-cc-pVTZ 
    H, B-Ne : Obtained from the ccRepo (grant-hill.group.shef.ac.uk/ccrepo) Feb. 2017
              R. A. Kendall, T. H. Dunning, Jr., R. J. Harrison, J. Chem. Phys. 96, 6796 (1992)
         He : Obtained from the ccRepo (grant-hill.group.shef.ac.uk/ccrepo) Feb. 2017
              D. E. Woon, T. H. Dunning, Jr., J. Chem. Phys. 100, 2975 (1994)
  Li-Be, Na : Obtained from the ccRepo (grant-hill.group.shef.ac.uk/ccrepo) Feb. 2017
              B. P. Prascher, D. E. Woon, K. A. Peterson, T. H. Dunning, Jr., A. K. Wilson, Theor. Chem. Acc. 128, 69 (2011)
         Mg : Obtained from the Peterson Research Group Website (tyr0.chem.wsu.edu/~kipeters) Feb. 2017
              B. P. Prascher, D. E. Woon, K. A. Peterson, T. H. Dunning, Jr., A. K. Wilson, Theor. Chem. Acc. 128, 69 (2011)
      Al-Ar : Obtained from the ccRepo (grant-hill.group.shef.ac.uk/ccrepo) Feb. 2017
              D. E. Woon, T. H. Dunning, Jr., J. Chem. Phys. 98, 1358 (1993)
      Sc-Zn : Obtained from the ccRepo (grant-hill.group.shef.ac.uk/ccrepo) Feb. 2017
              N. B. Balabanov, K. A. Peterson, J. Chem. Phys. 123, 064107 (2005)
              N. B. Balabanov, K. A. Peterson, J. Chem. Phys. 125, 074110 (2006)
      Ga-Kr : Obtained from the ccRepo (grant-hill.group.shef.ac.uk/ccrepo) Feb. 2017
              A. K. Wilson, D. E. Woon, K. A. Peterson, T. H. Dunning, Jr., J. Chem. Phys. 110, 7667 (1999)
     Ag, Au : Obtained from the Peterson Research Group Website (tyr0.chem.wsu.edu/~kipeters) Feb. 2017
              K. A. Peterson, C. Puzzarini, Theor. Chem. Acc. 114, 283 (2005)

----- AuxJK basis set information -----
Your calculation utilizes the auxiliary basis: def2/JK
   H-Ba, Hf-Rn: F. Weigend, J. Comput. Chem. 29, 167 (2008).

================================================================================
                                        WARNINGS
                       Please study these warnings very carefully!
================================================================================


WARNING: your system is open-shell and RHF/RKS was chosen
  ===> : WILL SWITCH to UHF/UKS


INFO   : the flag for use of LIBINT has been found!

================================================================================
                                       INPUT FILE
================================================================================
NAME = 33_FeCl.in
|  1> #
|  2> # 33_FeCl tpssh/aug-cc-pvtz
|  3> #
|  4> ! tpssh d3bj aug-cc-pvtz def2/jk grid4 nofinalgrid
|  5> 
|  6> *xyz 0 6
|  7>   Fe  0.00000000000000      0.00000000000000     -0.08894892709089
|  8>   Cl  0.00000000000000      0.00000000000000      2.08894892709089
|  9> *
| 10> 
| 11> %pal
| 12> nprocs 24
| 13> end
| 14> 
| 15> 
| 16>                          ****END OF INPUT****
================================================================================

                       ****************************
                       * Single Point Calculation *
                       ****************************

---------------------------------
CARTESIAN COORDINATES (ANGSTROEM)
---------------------------------
  Fe     0.000000    0.000000   -0.088949
  Cl     0.000000    0.000000    2.088949

----------------------------
CARTESIAN COORDINATES (A.U.)
----------------------------
  NO LB      ZA    FRAG     MASS         X           Y           Z
   0 Fe   26.0000    0    55.850    0.000000    0.000000   -0.168089
   1 Cl   17.0000    0    35.453    0.000000    0.000000    3.947541

--------------------------------
INTERNAL COORDINATES (ANGSTROEM)
--------------------------------
 Fe     0   0   0     0.000000000000     0.00000000     0.00000000
 Cl     1   0   0     2.177897854182     0.00000000     0.00000000

---------------------------
INTERNAL COORDINATES (A.U.)
---------------------------
 Fe     0   0   0     0.000000000000     0.00000000     0.00000000
 Cl     1   0   0     4.115630492058     0.00000000     0.00000000

---------------------
BASIS SET INFORMATION
---------------------
There are 2 groups of distinct atoms

 Group   1 Type Fe  : 116s77p23d3f2g contracted to 8s7p5d3f2g pattern {19191919191911/151515151511/77711/111/11}
 Group   2 Type Cl  : 42s17p3d2f contracted to 6s5p3d2f pattern {131313111/77111/111/11}

Atom   0Fe   basis set group =>   1
Atom   1Cl   basis set group =>   2
----------------------------------
AUXILIARY/JK BASIS SET INFORMATION
----------------------------------
There are 2 groups of distinct atoms

 Group   1 Type Fe  : 19s14p12d10f7g3h1i contracted to 16s13p11d9f5g3h1i pattern {4111111111111111/2111111111111/21111111111/211111111/31111/111/1}
 Group   2 Type Cl  : 16s12p10d4f1g contracted to 13s11p9d4f1g pattern {4111111111111/21111111111/211111111/1111/1}

Atom   0Fe   basis set group =>   1
Atom   1Cl   basis set group =>   2


           ************************************************************
           *        Program running with 24 parallel MPI-processes    *
           *              working on a common directory               *
           ************************************************************
------------------------------------------------------------------------------
                           ORCA GTO INTEGRAL CALCULATION
------------------------------------------------------------------------------

                         BASIS SET STATISTICS AND STARTUP INFO

 # of primitive gaussian shells          ...  285
 # of primitive gaussian functions       ...  623
 # of contracted shells                  ...   41
 # of contracted basis functions         ...  143
 Highest angular momentum                ...    4
 Maximum contraction depth               ...   19
 Integral package used                   ... LIBINT
 Integral threshhold            Thresh   ...  1.000e-10
 Primitive cut-off              TCut     ...  1.000e-11


------------------------------ INTEGRAL EVALUATION ----------------------------


 * One electron integrals 
 Pre-screening matrix                    ... done
 Shell pair data                         ... done (   0.001 sec)



           ************************************************************
           *        Program running with 24 parallel MPI-processes    *
           *              working on a common directory               *
           ************************************************************
-------------------------------------------------------------------------------
                                 ORCA SCF
-------------------------------------------------------------------------------

------------
SCF SETTINGS
------------
Hamiltonian:
 Density Functional     Method          .... DFT(GTOs)
 Exchange Functional    Exchange        .... TPSS
 Correlation Functional Correlation     .... TPSS
 LDA part of GGA corr.  LDAOpt          .... PW91-LDA
 Gradients option       PostSCFGGA      .... off
 Hybrid DFT is turned on
   Fraction HF Exchange ScalHFX         ....  0.100000
   Scaling of DF-GGA-X  ScalDFX         ....  0.900000
   Scaling of DF-GGA-C  ScalDFC         ....  1.000000
   Scaling of DF-LDA-C  ScalLDAC        ....  1.000000
   Perturbative correction              ....  0.000000
   Density functional embedding theory  .... OFF
   NL short-range parameter             ....  5.200000


General Settings:
 Integral files         IntName         .... 33_FeCl
 Hartree-Fock type      HFTyp           .... UHF
 Total Charge           Charge          ....    0
 Multiplicity           Mult            ....    6
 Number of Electrons    NEL             ....   43
 Basis Dimension        Dim             ....  143
 Nuclear Repulsion      ENuc            ....    107.3954527387 Eh

Convergence Acceleration:
 DIIS                   CNVDIIS         .... on
   Start iteration      DIISMaxIt       ....    12
   Startup error        DIISStart       ....  0.200000
   # of expansion vecs  DIISMaxEq       ....     5
   Bias factor          DIISBfac        ....   1.050
   Max. coefficient     DIISMaxC        ....  10.000
 Newton-Raphson         CNVNR           .... off
 SOSCF                  CNVSOSCF        .... off
 Level Shifting         CNVShift        .... on
   Level shift para.    LevelShift      ....    0.2500
   Turn off err/grad.   ShiftErr        ....    0.0010
 Zerner damping         CNVZerner       .... off
 Static damping         CNVDamp         .... on
   Fraction old density DampFac         ....    0.7000
   Max. Damping (<1)    DampMax         ....    0.9800
   Min. Damping (>=0)   DampMin         ....    0.0000
   Turn off err/grad.   DampErr         ....    0.1000
 Fernandez-Rico         CNVRico         .... off

SCF Procedure:
 Maximum # iterations   MaxIter         ....   125
 SCF integral mode      SCFMode         .... Direct
   Integral package                     .... LIBINT
 Reset frequency        DirectResetFreq ....    20
 Integral Threshold     Thresh          ....  1.000e-10 Eh
 Primitive CutOff       TCut            ....  1.000e-11 Eh

Convergence Tolerance:
 Convergence Check Mode ConvCheckMode   .... Total+1el-Energy
 Convergence forced     ConvForced      .... 0
 Energy Change          TolE            ....  1.000e-06 Eh
 1-El. energy change                    ....  1.000e-03 Eh
 DIIS Error             TolErr          ....  1.000e-06


Diagonalization of the overlap matrix:
Smallest eigenvalue                        ... 1.510e-04
Time for diagonalization                   ...    0.005 sec
Threshold for overlap eigenvalues          ... 1.000e-08
Number of eigenvalues below threshold      ... 0
Time for construction of square roots      ...    0.002 sec
Total time needed                          ...    0.008 sec

-------------------
DFT GRID GENERATION
-------------------

General Integration Accuracy     IntAcc      ...  4.670
Radial Grid Type                 RadialGrid  ... Gauss-Chebyshev
Angular Grid (max. acc.)         AngularGrid ... Lebedev-302
Angular grid pruning method      GridPruning ... 3 (G Style)
Weight generation scheme         WeightScheme... Becke
Basis function cutoff            BFCut       ...    1.0000e-10
Integration weight cutoff        WCut        ...    1.0000e-14
Grids for H and He will be reduced by one unit

# of grid points (after initial pruning)     ...  16378 (   0.0 sec)
# of grid points (after weights+screening)   ...  16351 (   0.0 sec)
nearest neighbour list constructed           ...    0.0 sec
Grid point re-assignment to atoms done       ...    0.0 sec
Grid point division into batches done        ...    0.1 sec
Reduced shell lists constructed in    0.1 sec

Total number of grid points                  ...    16351
Total number of batches                      ...      256
Average number of points per batch           ...       63
Average number of grid points per atom       ...     8176
Average number of shells per batch           ...    14.17 (34.55%)
Average number of basis functions per batch  ...    33.83 (23.66%)
Average number of large shells per batch     ...     7.08 (50.00%)
Average number of large basis fcns per batch ...    18.08 (53.45%)
Maximum spatial batch extension              ...  24.49, 24.19, 18.13 au
Average spatial batch extension              ...   0.85,  0.84,  0.66 au

Time for grid setup =    0.154 sec

------------------------------
INITIAL GUESS: MODEL POTENTIAL
------------------------------
Loading Hartree-Fock densities                     ... done
Calculating cut-offs                               ... done
Setting up the integral package                    ... done
Initializing the effective Hamiltonian             ... done
Starting the Coulomb interaction                   ... done (   0.0 sec)
Reading the grid                                   ... done
Mapping shells                                     ... done
Starting the XC term evaluation                    ... done (   0.0 sec)
  promolecular density results
     # of electrons  =     42.999994011
     EX              =    -81.468928064
     EC              =     -1.805784947
     EX+EC           =    -83.274713011
Transforming the Hamiltonian                       ... done (   0.0 sec)
Diagonalizing the Hamiltonian                      ... done (   0.0 sec)
Back transforming the eigenvectors                 ... done (   0.0 sec)
Now organizing SCF variables                       ... done
                      ------------------
                      INITIAL GUESS DONE (   0.3 sec)
                      ------------------
--------------
SCF ITERATIONS
--------------
ITER       Energy         Delta-E        Max-DP      RMS-DP      [F,P]     Damp
               ***  Starting incremental Fock matrix formation  ***
  0  -1723.9794772126   0.000000000000 0.03273607  0.00051088  0.0761777 0.7000
  1  -1723.9923045786  -0.012827365995 0.02731357  0.00040051  0.0374214 0.7000
                               ***Turning on DIIS***
  2  -1723.9971526765  -0.004848097928 0.06317720  0.00106755  0.0345437 0.0000
  3  -1724.0112772957  -0.014124619209 0.01391642  0.00034016  0.0216837 0.0000
  4  -1724.0130422548  -0.001764959110 0.00508963  0.00012782  0.0070426 0.0000
  5  -1724.0135095718  -0.000467316935 0.00568411  0.00012336  0.0048279 0.0000
  6  -1724.0136743340  -0.000164762243 0.00217169  0.00005058  0.0035647 0.0000
  7  -1724.0137378097  -0.000063475718 0.00318135  0.00005386  0.0008541 0.0000
  8  -1724.0137672146  -0.000029404873 0.00058660  0.00000735  0.0008824 0.0000
  9  -1724.0137678718  -0.000000657255 0.00012938  0.00000264  0.0002320 0.0000
 10  -1724.0137679450  -0.000000073144 0.00005659  0.00000135  0.0000986 0.0000
 11  -1724.0137679767  -0.000000031679 0.00003881  0.00000064  0.0000855 0.0000
                 **** Energy Check signals convergence ****

               *****************************************************
               *                     SUCCESS                       *
               *           SCF CONVERGED AFTER  12 CYCLES          *
               *****************************************************


----------------
TOTAL SCF ENERGY
----------------

Total Energy       :        -1724.01376799 Eh          -46912.79963 eV

Components:
Nuclear Repulsion  :          107.39545274 Eh            2922.37884 eV
Electronic Energy  :        -1831.40922073 Eh          -49835.17847 eV
One Electron Energy:        -2594.74643801 Eh          -70606.64015 eV
Two Electron Energy:          763.33721728 Eh           20771.46168 eV

Virial components:
Potential Energy   :        -3445.12662882 Eh          -93746.66156 eV
Kinetic Energy     :         1721.11286083 Eh           46833.86193 eV
Virial Ratio       :            2.00168548


DFT components:
N(Alpha)           :       24.000004384531 electrons
N(Beta)            :       19.000004992289 electrons
N(Total)           :       43.000009376820 electrons
E(X)               :      -73.959975835866 Eh       
E(C)               :       -1.794193364103 Eh       
E(XC)              :      -75.754169199969 Eh       
DFET-embed. en.    :        0.000000000000 Eh       

---------------
SCF CONVERGENCE
---------------

  Last Energy change         ...   -1.3673e-08  Tolerance :   1.0000e-06
  Last MAX-Density change    ...    2.0399e-05  Tolerance :   1.0000e-05
  Last RMS-Density change    ...    2.9561e-07  Tolerance :   1.0000e-06
  Last DIIS Error            ...    7.8858e-06  Tolerance :   1.0000e-06

             **** THE GBW FILE WAS UPDATED (33_FeCl.gbw) ****
             **** DENSITY FILE WAS UPDATED (33_FeCl.scfp) ****
             **** ENERGY FILE WAS UPDATED (33_FeCl.en.tmp) ****
----------------------
UHF SPIN CONTAMINATION
----------------------

Warning: in a DFT calculation there is little theoretical justification to 
         calculate <S**2> as in Hartree-Fock theory. We will do it anyways
         but you should keep in mind that the values have only limited relevance

Expectation value of <S**2>     :     8.753656
Ideal value S*(S+1) for S=2.5   :     8.750000
Deviation                       :     0.003656

             **** THE GBW FILE WAS UPDATED (33_FeCl.gbw) ****
             **** DENSITY FILE WAS UPDATED (33_FeCl.scfp) ****
----------------
ORBITAL ENERGIES
----------------
                 SPIN UP ORBITALS
  NO   OCC          E(Eh)            E(eV) 
   0   1.0000    -255.917686     -6963.8743 
   1   1.0000    -101.382882     -2758.7685 
   2   1.0000     -29.970863      -815.5486 
   3   1.0000     -25.819679      -702.5892 
   4   1.0000     -25.792362      -701.8459 
   5   1.0000     -25.792362      -701.8459 
   6   1.0000      -9.361861      -254.7492 
   7   1.0000      -7.106415      -193.3754 
   8   1.0000      -7.104109      -193.3126 
   9   1.0000      -7.104109      -193.3126 
  10   1.0000      -3.560588       -96.8885 
  11   1.0000      -2.370579       -64.5067 
  12   1.0000      -2.316310       -63.0300 
  13   1.0000      -2.316310       -63.0300 
  14   1.0000      -0.774635       -21.0789 
  15   1.0000      -0.414175       -11.2703 
  16   1.0000      -0.394704       -10.7404 
  17   1.0000      -0.394704       -10.7404 
  18   1.0000      -0.370850       -10.0913 
  19   1.0000      -0.329269        -8.9599 
  20   1.0000      -0.326890        -8.8951 
  21   1.0000      -0.297720        -8.1014 
  22   1.0000      -0.297720        -8.1014 
  23   1.0000      -0.193992        -5.2788 
  24   0.0000      -0.045556        -1.2396 
  25   0.0000      -0.045556        -1.2396 
  26   0.0000      -0.002159        -0.0588 
  27   0.0000       0.001279         0.0348 
  28   0.0000       0.024311         0.6615 
  29   0.0000       0.024311         0.6615 
  30   0.0000       0.048111         1.3092 
  31   0.0000       0.051646         1.4053 
  32   0.0000       0.052113         1.4181 
  33   0.0000       0.060769         1.6536 
  34   0.0000       0.063307         1.7227 
  35   0.0000       0.063307         1.7227 
  36   0.0000       0.094578         2.5736 
  37   0.0000       0.114049         3.1034 
  38   0.0000       0.114049         3.1034 
  39   0.0000       0.116575         3.1722 
  40   0.0000       0.156952         4.2709 
  41   0.0000       0.156952         4.2709 
  42   0.0000       0.173650         4.7253 
  43   0.0000       0.221406         6.0248 
  44   0.0000       0.223013         6.0685 
  45   0.0000       0.238341         6.4856 
  46   0.0000       0.238341         6.4856 
  47   0.0000       0.242202         6.5907 
  48   0.0000       0.271496         7.3878 
  49   0.0000       0.272672         7.4198 
  50   0.0000       0.311142         8.4666 
  51   0.0000       0.354466         9.6455 
  52   0.0000       0.354466         9.6455 
  53   0.0000       0.390542        10.6272 
  54   0.0000       0.483807        13.1651 
  55   0.0000       0.564771        15.3682 
  56   0.0000       0.564771        15.3682 
  57   0.0000       0.660000        17.9595 
  58   0.0000       0.687228        18.7004 
  59   0.0000       0.687228        18.7004 
  60   0.0000       0.730681        19.8828 
  61   0.0000       0.730793        19.8859 
  62   0.0000       0.759054        20.6549 
  63   0.0000       0.759054        20.6549 
  64   0.0000       0.774308        21.0700 
  65   0.0000       0.774308        21.0700 
  66   0.0000       0.779012        21.1980 
  67   0.0000       0.780327        21.2338 
  68   0.0000       0.786558        21.4033 
  69   0.0000       0.847648        23.0657 
  70   0.0000       0.966139        26.2900 
  71   0.0000       0.966139        26.2900 
  72   0.0000       0.996519        27.1166 
  73   0.0000       1.011802        27.5325 
  74   0.0000       1.011802        27.5325 
  75   0.0000       1.016673        27.6651 
  76   0.0000       1.020890        27.7798 
  77   0.0000       1.020890        27.7798 
  78   0.0000       1.030056        28.0292 
  79   0.0000       1.069623        29.1059 
  80   0.0000       1.182543        32.1786 
  81   0.0000       1.184646        32.2359 
  82   0.0000       1.353383        36.8274 
  83   0.0000       1.538734        41.8711 
  84   0.0000       1.538734        41.8711 
  85   0.0000       1.852733        50.4154 
  86   0.0000       2.208794        60.1043 
  87   0.0000       2.208952        60.1087 
  88   0.0000       2.303321        62.6766 
  89   0.0000       2.303321        62.6766 
  90   0.0000       2.385260        64.9062 
  91   0.0000       2.385260        64.9062 
  92   0.0000       2.386803        64.9482 
  93   0.0000       2.544204        69.2313 
  94   0.0000       2.569142        69.9099 
  95   0.0000       2.569142        69.9099 
  96   0.0000       2.589996        70.4774 
  97   0.0000       2.603606        70.8477 
  98   0.0000       2.669933        72.6526 
  99   0.0000       2.669933        72.6526 
 100   0.0000       2.755127        74.9708 
 101   0.0000       2.755127        74.9708 
 102   0.0000       2.793843        76.0243 
 103   0.0000       2.804608        76.3173 
 104   0.0000       2.807023        76.3830 
 105   0.0000       2.807704        76.4015 
 106   0.0000       2.859999        77.8245 
 107   0.0000       2.859999        77.8245 
 108   0.0000       2.917457        79.3880 
 109   0.0000       2.917457        79.3880 
 110   0.0000       2.991075        81.3913 
 111   0.0000       3.231559        87.9352 
 112   0.0000       3.232092        87.9497 
 113   0.0000       3.233751        87.9948 
 114   0.0000       3.233751        87.9948 
 115   0.0000       3.276726        89.1643 
 116   0.0000       3.290279        89.5331 
 117   0.0000       3.298202        89.7486 
 118   0.0000       3.517389        95.7130 
 119   0.0000       3.517389        95.7130 
 120   0.0000       3.813565       103.7724 
 121   0.0000       4.374093       119.0251 
 122   0.0000       4.405270       119.8735 
 123   0.0000       4.581050       124.6567 
 124   0.0000       4.581050       124.6567 
 125   0.0000       5.409608       147.2029 
 126   0.0000       6.049789       164.6231 
 127   0.0000       8.753344       238.1906 
 128   0.0000       8.778283       238.8692 
 129   0.0000       8.778283       238.8692 
 130   0.0000       8.786466       239.0919 
 131   0.0000       8.809768       239.7260 
 132   0.0000       8.809768       239.7260 
 133   0.0000       8.868525       241.3248 
 134   0.0000       9.553967       259.9766 
 135   0.0000       9.553967       259.9766 
 136   0.0000       9.558324       260.0952 
 137   0.0000       9.575942       260.5746 
 138   0.0000       9.576282       260.5839 
 139   0.0000       9.581216       260.7181 
 140   0.0000       9.661219       262.8951 
 141   0.0000       9.661219       262.8951 
 142   0.0000       9.776354       266.0281 

                 SPIN DOWN ORBITALS
  NO   OCC          E(Eh)            E(eV) 
   0   1.0000    -255.915507     -6963.8150 
   1   1.0000    -101.381205     -2758.7229 
   2   1.0000     -29.902743      -813.6950 
   3   1.0000     -25.752911      -700.7723 
   4   1.0000     -25.740100      -700.4237 
   5   1.0000     -25.740100      -700.4237 
   6   1.0000      -9.360384      -254.7090 
   7   1.0000      -7.103780      -193.3037 
   8   1.0000      -7.102111      -193.2583 
   9   1.0000      -7.102111      -193.2583 
  10   1.0000      -3.385709       -92.1298 
  11   1.0000      -2.154341       -58.6226 
  12   1.0000      -2.152426       -58.5705 
  13   1.0000      -2.152426       -58.5705 
  14   1.0000      -0.763672       -20.7806 
  15   1.0000      -0.351063        -9.5529 
  16   1.0000      -0.305370        -8.3095 
  17   1.0000      -0.305370        -8.3095 
  18   1.0000      -0.256313        -6.9746 
  19   0.0000      -0.156454        -4.2573 
  20   0.0000      -0.139289        -3.7903 
  21   0.0000      -0.139289        -3.7903 
  22   0.0000      -0.106719        -2.9040 
  23   0.0000      -0.104525        -2.8443 
  24   0.0000      -0.010438        -0.2840 
  25   0.0000      -0.010438        -0.2840 
  26   0.0000       0.008009         0.2179 
  27   0.0000       0.022983         0.6254 
  28   0.0000       0.037021         1.0074 
  29   0.0000       0.037021         1.0074 
  30   0.0000       0.067112         1.8262 
  31   0.0000       0.068110         1.8534 
  32   0.0000       0.071431         1.9437 
  33   0.0000       0.072605         1.9757 
  34   0.0000       0.081076         2.2062 
  35   0.0000       0.081076         2.2062 
  36   0.0000       0.118968         3.2373 
  37   0.0000       0.124078         3.3763 
  38   0.0000       0.124078         3.3763 
  39   0.0000       0.131253         3.5716 
  40   0.0000       0.186452         5.0736 
  41   0.0000       0.186452         5.0736 
  42   0.0000       0.209633         5.7044 
  43   0.0000       0.233617         6.3570 
  44   0.0000       0.238131         6.4799 
  45   0.0000       0.249239         6.7821 
  46   0.0000       0.267046         7.2667 
  47   0.0000       0.267046         7.2667 
  48   0.0000       0.289851         7.8872 
  49   0.0000       0.299137         8.1399 
  50   0.0000       0.331967         9.0333 
  51   0.0000       0.365550         9.9471 
  52   0.0000       0.365550         9.9471 
  53   0.0000       0.405337        11.0298 
  54   0.0000       0.522436        14.2162 
  55   0.0000       0.571582        15.5535 
  56   0.0000       0.571582        15.5535 
  57   0.0000       0.686723        18.6867 
  58   0.0000       0.719858        19.5883 
  59   0.0000       0.719858        19.5883 
  60   0.0000       0.736831        20.0502 
  61   0.0000       0.736892        20.0518 
  62   0.0000       0.784951        21.3596 
  63   0.0000       0.784951        21.3596 
  64   0.0000       0.797023        21.6881 
  65   0.0000       0.807806        21.9815 
  66   0.0000       0.811843        22.0914 
  67   0.0000       0.816625        22.2215 
  68   0.0000       0.816625        22.2215 
  69   0.0000       0.889894        24.2152 
  70   0.0000       1.019231        27.7347 
  71   0.0000       1.019231        27.7347 
  72   0.0000       1.030525        28.0420 
  73   0.0000       1.030525        28.0420 
  74   0.0000       1.048889        28.5417 
  75   0.0000       1.056291        28.7431 
  76   0.0000       1.056291        28.7431 
  77   0.0000       1.080363        29.3982 
  78   0.0000       1.085631        29.5415 
  79   0.0000       1.109161        30.1818 
  80   0.0000       1.203119        32.7385 
  81   0.0000       1.215254        33.0687 
  82   0.0000       1.387533        37.7567 
  83   0.0000       1.575953        42.8839 
  84   0.0000       1.575953        42.8839 
  85   0.0000       1.888911        51.3999 
  86   0.0000       2.215991        60.3002 
  87   0.0000       2.216342        60.3097 
  88   0.0000       2.318132        63.0796 
  89   0.0000       2.318133        63.0796 
  90   0.0000       2.393944        65.1425 
  91   0.0000       2.393944        65.1425 
  92   0.0000       2.401111        65.3375 
  93   0.0000       2.609991        71.0215 
  94   0.0000       2.651903        72.1620 
  95   0.0000       2.651903        72.1620 
  96   0.0000       2.677301        72.8531 
  97   0.0000       2.708062        73.6901 
  98   0.0000       2.749276        74.8116 
  99   0.0000       2.749276        74.8116 
 100   0.0000       2.765736        75.2595 
 101   0.0000       2.765736        75.2595 
 102   0.0000       2.820711        76.7554 
 103   0.0000       2.823940        76.8433 
 104   0.0000       2.826999        76.9266 
 105   0.0000       2.892612        78.7120 
 106   0.0000       2.892612        78.7120 
 107   0.0000       2.907851        79.1266 
 108   0.0000       3.012619        81.9775 
 109   0.0000       3.012619        81.9775 
 110   0.0000       3.070041        83.5401 
 111   0.0000       3.295790        89.6830 
 112   0.0000       3.299014        89.7707 
 113   0.0000       3.311494        90.1103 
 114   0.0000       3.311494        90.1103 
 115   0.0000       3.348835        91.1264 
 116   0.0000       3.361864        91.4810 
 117   0.0000       3.379604        91.9637 
 118   0.0000       3.592876        97.7671 
 119   0.0000       3.592876        97.7671 
 120   0.0000       3.901597       106.1679 
 121   0.0000       4.481160       121.9386 
 122   0.0000       4.527855       123.2092 
 123   0.0000       4.712794       128.2417 
 124   0.0000       4.712794       128.2417 
 125   0.0000       5.492566       149.4603 
 126   0.0000       6.090650       165.7350 
 127   0.0000       8.951514       243.5831 
 128   0.0000       8.951514       243.5831 
 129   0.0000       8.954485       243.6639 
 130   0.0000       8.990311       244.6388 
 131   0.0000       9.012725       245.2487 
 132   0.0000       9.012725       245.2487 
 133   0.0000       9.072188       246.8668 
 134   0.0000       9.688548       263.6388 
 135   0.0000       9.688548       263.6388 
 136   0.0000       9.692656       263.7506 
 137   0.0000       9.695770       263.8353 
 138   0.0000       9.704903       264.0838 
 139   0.0000       9.714371       264.3415 
 140   0.0000       9.801405       266.7098 
 141   0.0000       9.801405       266.7098 
 142   0.0000       9.916759       269.8487 

                    ********************************
                    * MULLIKEN POPULATION ANALYSIS *
                    ********************************

--------------------------------------------
MULLIKEN ATOMIC CHARGES AND SPIN POPULATIONS
--------------------------------------------
   0 Fe:    0.418007    4.799221
   1 Cl:   -0.418007    0.200779
Sum of atomic charges         :   -0.0000000
Sum of atomic spin populations:    5.0000000

-----------------------------------------------------
MULLIKEN REDUCED ORBITAL CHARGES AND SPIN POPULATIONS
-----------------------------------------------------
CHARGE
  0 Fes       :     6.965701  s :     6.965701
      pz      :     4.282926  p :    12.363198
      px      :     4.040136
      py      :     4.040136
      dz2     :     1.098990  d :     6.234836
      dxz     :     1.068853
      dyz     :     1.068853
      dx2y2   :     0.999602
      dxy     :     1.998538
      f0      :     0.006153  f :     0.017623
      f+1     :     0.005666
      f-1     :     0.005666
      f+2     :     0.000002
      f-2     :     0.000010
      f+3     :     0.000064
      f-3     :     0.000064
      g0      :     0.000235  g :     0.000635
      g+1     :     0.000179
      g-1     :     0.000179
      g+2     :     0.000003
      g-2     :     0.000011
      g+3     :     0.000003
      g-3     :     0.000003
      g+4     :     0.000021
      g-4     :     0.000000
  1 Cls       :     5.968293  s :     5.968293
      pz      :     3.667934  p :    11.419548
      px      :     3.875807
      py      :     3.875807
      dz2     :     0.009593  d :     0.027089
      dxz     :     0.008184
      dyz     :     0.008184
      dx2y2   :     0.000216
      dxy     :     0.000912
      f0      :     0.000153  f :     0.003076
      f+1     :     0.001109
      f-1     :     0.001109
      f+2     :     0.000177
      f-2     :     0.000528
      f+3     :     0.000000
      f-3     :     0.000000

SPIN
  0 Fes       :     0.819919  s :     0.819919
      pz      :     0.214364  p :     0.233958
      px      :     0.009797
      py      :     0.009797
      dz2     :     0.885126  d :     3.745774
      dxz     :     0.930316
      dyz     :     0.930316
      dx2y2   :     0.999602
      dxy     :     0.000415
      f0      :    -0.000030  f :    -0.000350
      f+1     :    -0.000116
      f-1     :    -0.000116
      f+2     :     0.000002
      f-2     :    -0.000004
      f+3     :    -0.000043
      f-3     :    -0.000043
      g0      :    -0.000058  g :    -0.000081
      g+1     :    -0.000017
      g-1     :    -0.000017
      g+2     :     0.000003
      g-2     :     0.000007
      g+3     :     0.000001
      g-3     :     0.000001
      g+4     :    -0.000002
      g-4     :    -0.000000
  1 Cls       :     0.001118  s :     0.001118
      pz      :     0.077530  p :     0.197554
      px      :     0.060012
      py      :     0.060012
      dz2     :     0.001934  d :     0.001856
      dxz     :     0.000015
      dyz     :     0.000015
      dx2y2   :     0.000216
      dxy     :    -0.000323
      f0      :     0.000098  f :     0.000251
      f+1     :     0.000035
      f-1     :     0.000035
      f+2     :     0.000177
      f-2     :    -0.000095
      f+3     :    -0.000000
      f-3     :    -0.000000


                     *******************************
                     * LOEWDIN POPULATION ANALYSIS *
                     *******************************

-------------------------------------------
LOEWDIN ATOMIC CHARGES AND SPIN POPULATIONS
-------------------------------------------
   0 Fe:    0.063777    4.676416
   1 Cl:   -0.063777    0.323584

----------------------------------------------------
LOEWDIN REDUCED ORBITAL CHARGES AND SPIN POPULATIONS
----------------------------------------------------
CHARGE
  0 Fes       :     6.758351  s :     6.758351
      pz      :     4.469663  p :    12.595436
      px      :     4.062887
      py      :     4.062887
      dz2     :     1.224036  d :     6.455280
      dxz     :     1.120140
      dyz     :     1.120140
      dx2y2   :     0.997539
      dxy     :     1.993424
      f0      :     0.053120  f :     0.123235
      f+1     :     0.034948
      f-1     :     0.034948
      f+2     :     0.000038
      f-2     :     0.000053
      f+3     :     0.000064
      f-3     :     0.000064
      g0      :     0.002003  g :     0.003921
      g+1     :     0.000937
      g-1     :     0.000937
      g+2     :     0.000002
      g-2     :     0.000015
      g+3     :     0.000003
      g-3     :     0.000003
      g+4     :     0.000021
      g-4     :     0.000000
  1 Cls       :     5.651054  s :     5.651054
      pz      :     3.696946  p :    11.178290
      px      :     3.740672
      py      :     3.740672
      dz2     :     0.105596  d :     0.157627
      dxz     :     0.023938
      dyz     :     0.023938
      dx2y2   :     0.001040
      dxy     :     0.003115
      f0      :     0.039209  f :     0.076806
      f+1     :     0.016412
      f-1     :     0.016412
      f+2     :     0.001380
      f-2     :     0.003393
      f+3     :     0.000000
      f-3     :     0.000000

SPIN
  0 Fes       :     0.672929  s :     0.672929
      pz      :     0.282448  p :     0.314466
      px      :     0.016009
      py      :     0.016009
      dz2     :     0.869326  d :     3.680137
      dxz     :     0.906272
      dyz     :     0.906272
      dx2y2   :     0.997539
      dxy     :     0.000728
      f0      :     0.003420  f :     0.008582
      f+1     :     0.002585
      f-1     :     0.002585
      f+2     :     0.000038
      f-2     :     0.000039
      f+3     :    -0.000043
      f-3     :    -0.000043
      g0      :     0.000143  g :     0.000303
      g+1     :     0.000078
      g-1     :     0.000078
      g+2     :     0.000002
      g-2     :     0.000000
      g+3     :     0.000001
      g-3     :     0.000001
      g+4     :    -0.000002
      g-4     :    -0.000000
  1 Cls       :     0.028244  s :     0.028244
      pz      :     0.118761  p :     0.226644
      px      :     0.053942
      py      :     0.053942
      dz2     :     0.020629  d :     0.043115
      dxz     :     0.010983
      dyz     :     0.010983
      dx2y2   :     0.001040
      dxy     :    -0.000519
      f0      :     0.004102  f :     0.025581
      f+1     :     0.010173
      f-1     :     0.010173
      f+2     :     0.001380
      f-2     :    -0.000249
      f+3     :    -0.000000
      f-3     :    -0.000000


                      *****************************
                      * MAYER POPULATION ANALYSIS *
                      *****************************

  NA   - Mulliken gross atomic population
  ZA   - Total nuclear charge
  QA   - Mulliken gross atomic charge
  VA   - Mayer's total valence
  BVA  - Mayer's bonded valence
  FA   - Mayer's free valence

  ATOM       NA         ZA         QA         VA         BVA        FA
  0 Fe    25.5820    26.0000     0.4180     5.5720     1.0047     4.5673
  1 Cl    17.4180    17.0000    -0.4180     1.0241     1.0047     0.0194

  Mayer bond orders larger than 0.100000
B(  0-Fe,  1-Cl) :   1.0047 

-------
TIMINGS
-------

Total SCF time: 0 days 0 hours 1 min 48 sec 

Total time                  ....     108.368 sec
Sum of individual times     ....     108.025 sec  ( 99.7%)

Fock matrix formation       ....     107.665 sec  ( 99.4%)
  XC integration            ....       0.734 sec  (  0.7% of F)
    Basis function eval.    ....       0.081 sec  ( 11.0% of XC)
    Density eval.           ....       0.079 sec  ( 10.8% of XC)
    XC-Functional eval.     ....       0.020 sec  (  2.7% of XC)
    XC-Potential eval.      ....       0.222 sec  ( 30.3% of XC)
Diagonalization             ....       0.068 sec  (  0.1%)
Density matrix formation    ....       0.009 sec  (  0.0%)
Population analysis         ....       0.007 sec  (  0.0%)
Initial guess               ....       0.100 sec  (  0.1%)
Orbital Transformation      ....       0.000 sec  (  0.0%)
Orbital Orthonormalization  ....       0.000 sec  (  0.0%)
DIIS solution               ....       0.022 sec  (  0.0%)
Grid generation             ....       0.154 sec  (  0.1%)


-------------------------------------------------------------------------------
                          DFT DISPERSION CORRECTION                            
                                                                               
                              DFTD3 V3.1  Rev 1                                
                          USING Becke-Johnson damping                          
-------------------------------------------------------------------------------
The TPSSH functional is recognized
Active option DFTDOPT                   ...         4   

molecular C6(AA) [au] = 595.262319 


            DFT-D V3
 parameters
 s6 scaling factor         :     1.0000 
 a1 scaling factor         :     0.4529 
 s8 scaling factor         :     2.2382 
 a2 scaling factor         :     4.6550 
 ad hoc parameters k1-k3   :    16.0000     1.3333    -4.0000 

 Edisp/kcal,au: -0.844977454882  -0.001346557143 
 E6   /kcal   :  -0.273802282 
 E8   /kcal   :  -0.571175173 
 % E8         :  67.596498519 

-------------------------   ----------------
Dispersion correction           -0.001346557
-------------------------   ----------------


-------------------------   --------------------
FINAL SINGLE POINT ENERGY     -1724.015114547480
-------------------------   --------------------


                            ***************************************
                            *     ORCA property calculations      *
                            ***************************************

                                    ---------------------
                                    Active property flags
                                    ---------------------
   (+) Dipole Moment


------------------------------------------------------------------------------
                       ORCA ELECTRIC PROPERTIES CALCULATION
------------------------------------------------------------------------------

Dipole Moment Calculation                       ... on
Quadrupole Moment Calculation                   ... off
Polarizability Calculation                      ... off
GBWName                                         ... 33_FeCl.gbw
Electron density file                           ... 33_FeCl.scfp
The origin for moment calculation is the CENTER OF MASS  = ( 0.000000,  0.000000  1.430012)

-------------
DIPOLE MOMENT
-------------
                                X             Y             Z
Electronic contribution:      0.00000       0.00000      -2.01548
Nuclear contribution   :      0.00000       0.00000       1.24736
                        -----------------------------------------
Total Dipole Moment    :      0.00000       0.00000      -0.76812
                        -----------------------------------------
Magnitude (a.u.)       :      0.76812
Magnitude (Debye)      :      1.95240



--------------------
Rotational spectrum 
--------------------
 
Rotational constants in cm-1:     0.000000     0.163882     0.163882 
Rotational constants in MHz :     0.000000  4913.053230  4913.053230 

 Dipole components along the rotational axes: 
x,y,z [a.u.] :    -0.768117     0.000000     0.000000 
x,y,z [Debye]:    -1.952398     0.000000     0.000000 

 

Timings for individual modules:

Sum of individual times         ...      112.416 sec (=   1.874 min)
GTO integral calculation        ...        3.579 sec (=   0.060 min)   3.2 %
SCF iterations                  ...      108.837 sec (=   1.814 min)  96.8 %
                             ****ORCA TERMINATED NORMALLY****
TOTAL RUN TIME: 0 days 0 hours 1 minutes 53 seconds 58 msec
