
                                 *****************
                                 * O   R   C   A *
                                 *****************

           --- An Ab Initio, DFT and Semiempirical electronic structure package ---

                  #######################################################
                  #                        -***-                        #
                  #          Department of theory and spectroscopy      #
                  #               Directorship: Frank Neese             #
                  #        Max Planck Institute fuer Kohlenforschung    #
                  #                Kaiser Wilhelm Platz 1               #
                  #                 D-45470 Muelheim/Ruhr               #
                  #                      Germany                        #
                  #                                                     #
                  #                  All rights reserved                #
                  #                        -***-                        #
                  #######################################################


                         Program Version 4.2.0 -  RELEASE  -


 With contributions from (in alphabetic order):
   Daniel Aravena         : Magnetic Suceptibility
   Michael Atanasov       : Ab Initio Ligand Field Theory (pilot matlab implementation)
   Alexander A. Auer      : GIAO ZORA, VPT2
   Ute Becker             : Parallelization
   Giovanni Bistoni       : ED, misc. LED, open-shell LED, HFLED
   Martin Brehm           : Molecular dynamics
   Dmytro Bykov           : SCF Hessian
   Vijay G. Chilkuri      : MRCI spin determinant printing, contributions to CSF-ICE
   Dipayan Datta          : RHF DLPNO-CCSD density
   Achintya Kumar Dutta   : EOM-CC, STEOM-CC
   Dmitry Ganyushin       : Spin-Orbit,Spin-Spin,Magnetic field MRCI
   Miquel Garcia          : C-PCM Hessian, Gaussian charge scheme
   Yang Guo               : DLPNO-NEVPT2, CIM, IAO-localization
   Andreas Hansen         : Spin unrestricted coupled pair/coupled cluster methods
   Benjamin Helmich-Paris : CASSCF linear response (MC-RPA)
   Lee Huntington         : MR-EOM, pCC
   Robert Izsak           : Overlap fitted RIJCOSX, COSX-SCS-MP3, EOM
   Christian Kollmar      : KDIIS, OOCD, Brueckner-CCSD(T), CCSD density
   Simone Kossmann        : Meta GGA functionals, TD-DFT gradient, OOMP2, MP2 Hessian
   Martin Krupicka        : AUTO-CI
   Lucas Lang             : DCDCAS
   Dagmar Lenk            : GEPOL surface, SMD
   Dimitrios Liakos       : Extrapolation schemes; Compound Job, initial MDCI parallelization
   Dimitrios Manganas     : Further ROCIS development; embedding schemes
   Dimitrios Pantazis     : SARC Basis sets
   Taras Petrenko         : DFT Hessian,TD-DFT gradient, ASA, ECA, R-Raman, ABS, FL, XAS/XES, NRVS
   Peter Pinski           : DLPNO-MP2, DLPNO-MP2 Gradient
   Christoph Reimann      : Effective Core Potentials
   Marius Retegan         : Local ZFS, SOC
   Christoph Riplinger    : Optimizer, TS searches, QM/MM, DLPNO-CCSD(T), (RO)-DLPNO pert. Triples
   Tobias Risthaus        : Range-separated hybrids, TD-DFT gradient, RPA, STAB
   Michael Roemelt        : Original ROCIS implementation
   Masaaki Saitow         : Open-shell DLPNO-CCSD energy and density
   Barbara Sandhoefer     : DKH picture change effects
   Avijit Sen             : IP-ROCIS
   Kantharuban Sivalingam : CASSCF convergence, NEVPT2, FIC-MRCI
   Bernardo de Souza      : ESD, SOC TD-DFT
   Georgi Stoychev        : AutoAux, RI-MP2 NMR
   Willem Van den Heuvel  : Paramagnetic NMR
   Boris Wezisla          : Elementary symmetry handling
   Frank Wennmohs         : Technical directorship


 We gratefully acknowledge several colleagues who have allowed us to
 interface, adapt or use parts of their codes:
   Stefan Grimme, W. Hujo, H. Kruse,             : VdW corrections, initial TS optimization,
                  C. Bannwarth                     DFT functionals, gCP, sTDA/sTD-DF
   Ed Valeev, F. Pavosevic, A. Kumar             : LibInt (2-el integral package), F12 methods
   Garnet Chan, S. Sharma, J. Yang, R. Olivares  : DMRG
   Ulf Ekstrom                                   : XCFun DFT Library
   Mihaly Kallay                                 : mrcc  (arbitrary order and MRCC methods)
   Andreas Klamt, Michael Diedenhofen            : otool_cosmo (COSMO solvation model)
   Jiri Pittner, Ondrej Demel                    : Mk-CCSD
   Frank Weinhold                                : gennbo (NPA and NBO analysis)
   Christopher J. Cramer and Donald G. Truhlar   : smd solvation model
   Lars Goerigk                                  : TD-DFT with DH, B97 family of functionals
   V. Asgeirsson, H. Jonsson                     : NEB implementation
   FAccTs GmbH                                   : IRC, NEB, NEB-TS, Multilevel, MM, QM/MM, CI optimization
   S Lehtola, MJT Oliveira, MAL Marques          : LibXC Library


 Your calculation uses the libint2 library for the computation of 2-el integrals
 For citations please refer to: http://libint.valeyev.net

 Your ORCA version has been built with support for libXC version: 4.2.3
 For citations please refer to: https://tddft.org/programs/libxc/

 This ORCA versions uses:
   CBLAS   interface :  Fast vector & matrix operations
   LAPACKE interface :  Fast linear algebra routines
   SCALAPACK package :  Parallel linear algebra routines


Your calculation utilizes the atom-pairwise dispersion correction
with the Becke-Johnson damping scheme (D3BJ)
Cite in your paper:
S.Grimme, S.Ehrlich, L.Goerigk, J Comput Chem, (2011), 32, 1456–1465 
S.Grimme, J.Antony, S.Ehrlich and H.Krieg, J.Chem.Phys., 132, (2010), 154104 
   

----- Orbital basis set information -----
Your calculation utilizes the basis: aug-cc-pVTZ 
    H, B-Ne : Obtained from the ccRepo (grant-hill.group.shef.ac.uk/ccrepo) Feb. 2017
              R. A. Kendall, T. H. Dunning, Jr., R. J. Harrison, J. Chem. Phys. 96, 6796 (1992)
         He : Obtained from the ccRepo (grant-hill.group.shef.ac.uk/ccrepo) Feb. 2017
              D. E. Woon, T. H. Dunning, Jr., J. Chem. Phys. 100, 2975 (1994)
  Li-Be, Na : Obtained from the ccRepo (grant-hill.group.shef.ac.uk/ccrepo) Feb. 2017
              B. P. Prascher, D. E. Woon, K. A. Peterson, T. H. Dunning, Jr., A. K. Wilson, Theor. Chem. Acc. 128, 69 (2011)
         Mg : Obtained from the Peterson Research Group Website (tyr0.chem.wsu.edu/~kipeters) Feb. 2017
              B. P. Prascher, D. E. Woon, K. A. Peterson, T. H. Dunning, Jr., A. K. Wilson, Theor. Chem. Acc. 128, 69 (2011)
      Al-Ar : Obtained from the ccRepo (grant-hill.group.shef.ac.uk/ccrepo) Feb. 2017
              D. E. Woon, T. H. Dunning, Jr., J. Chem. Phys. 98, 1358 (1993)
      Sc-Zn : Obtained from the ccRepo (grant-hill.group.shef.ac.uk/ccrepo) Feb. 2017
              N. B. Balabanov, K. A. Peterson, J. Chem. Phys. 123, 064107 (2005)
              N. B. Balabanov, K. A. Peterson, J. Chem. Phys. 125, 074110 (2006)
      Ga-Kr : Obtained from the ccRepo (grant-hill.group.shef.ac.uk/ccrepo) Feb. 2017
              A. K. Wilson, D. E. Woon, K. A. Peterson, T. H. Dunning, Jr., J. Chem. Phys. 110, 7667 (1999)
     Ag, Au : Obtained from the Peterson Research Group Website (tyr0.chem.wsu.edu/~kipeters) Feb. 2017
              K. A. Peterson, C. Puzzarini, Theor. Chem. Acc. 114, 283 (2005)

----- AuxJK basis set information -----
Your calculation utilizes the auxiliary basis: def2/JK
   H-Ba, Hf-Rn: F. Weigend, J. Comput. Chem. 29, 167 (2008).

================================================================================
                                        WARNINGS
                       Please study these warnings very carefully!
================================================================================


WARNING: your system is open-shell and RHF/RKS was chosen
  ===> : WILL SWITCH to UHF/UKS


INFO   : the flag for use of LIBINT has been found!

================================================================================
                                       INPUT FILE
================================================================================
NAME = 41_CoO.in
|  1> #
|  2> # 41_CoO tpssh/aug-cc-pvtz
|  3> #
|  4> ! tpssh d3bj aug-cc-pvtz def2/jk grid4 nofinalgrid
|  5> 
|  6> *xyz 0 4
|  7>   Co  0.00000000000000      0.00000000000000      0.18722579130779
|  8>   O   0.00000000000000      0.00000000000000      1.81277420869221
|  9> *
| 10> 
| 11> %pal
| 12> nprocs 24
| 13> end
| 14> 
| 15> 
| 16>                          ****END OF INPUT****
================================================================================

                       ****************************
                       * Single Point Calculation *
                       ****************************

---------------------------------
CARTESIAN COORDINATES (ANGSTROEM)
---------------------------------
  Co     0.000000    0.000000    0.187226
  O      0.000000    0.000000    1.812774

----------------------------
CARTESIAN COORDINATES (A.U.)
----------------------------
  NO LB      ZA    FRAG     MASS         X           Y           Z
   0 Co   27.0000    0    58.930    0.000000    0.000000    0.353805
   1 O     8.0000    0    15.999    0.000000    0.000000    3.425647

--------------------------------
INTERNAL COORDINATES (ANGSTROEM)
--------------------------------
 Co     0   0   0     0.000000000000     0.00000000     0.00000000
 O      1   0   0     1.625548417384     0.00000000     0.00000000

---------------------------
INTERNAL COORDINATES (A.U.)
---------------------------
 Co     0   0   0     0.000000000000     0.00000000     0.00000000
 O      1   0   0     3.071841326286     0.00000000     0.00000000

---------------------
BASIS SET INFORMATION
---------------------
There are 2 groups of distinct atoms

 Group   1 Type Co  : 116s77p23d3f2g contracted to 8s7p5d3f2g pattern {19191919191911/151515151511/77711/111/11}
 Group   2 Type O   : 19s6p3d2f contracted to 5s4p3d2f pattern {88111/3111/111/11}

Atom   0Co   basis set group =>   1
Atom   1O    basis set group =>   2
----------------------------------
AUXILIARY/JK BASIS SET INFORMATION
----------------------------------
There are 2 groups of distinct atoms

 Group   1 Type Co  : 19s14p12d10f7g3h1i contracted to 16s13p11d9f5g3h1i pattern {4111111111111111/2111111111111/21111111111/211111111/31111/111/1}
 Group   2 Type O   : 14s10p6d2f1g contracted to 10s8p4d2f1g pattern {5111111111/31111111/3111/11/1}

Atom   0Co   basis set group =>   1
Atom   1O    basis set group =>   2


           ************************************************************
           *        Program running with 24 parallel MPI-processes    *
           *              working on a common directory               *
           ************************************************************
------------------------------------------------------------------------------
                           ORCA GTO INTEGRAL CALCULATION
------------------------------------------------------------------------------

                         BASIS SET STATISTICS AND STARTUP INFO

 # of primitive gaussian shells          ...  251
 # of primitive gaussian functions       ...  567
 # of contracted shells                  ...   39
 # of contracted basis functions         ...  139
 Highest angular momentum                ...    4
 Maximum contraction depth               ...   19
 Integral package used                   ... LIBINT
 Integral threshhold            Thresh   ...  1.000e-10
 Primitive cut-off              TCut     ...  1.000e-11


------------------------------ INTEGRAL EVALUATION ----------------------------


 * One electron integrals 
 Pre-screening matrix                    ... done
 Shell pair data                         ... done (   0.001 sec)



           ************************************************************
           *        Program running with 24 parallel MPI-processes    *
           *              working on a common directory               *
           ************************************************************
-------------------------------------------------------------------------------
                                 ORCA SCF
-------------------------------------------------------------------------------

------------
SCF SETTINGS
------------
Hamiltonian:
 Density Functional     Method          .... DFT(GTOs)
 Exchange Functional    Exchange        .... TPSS
 Correlation Functional Correlation     .... TPSS
 LDA part of GGA corr.  LDAOpt          .... PW91-LDA
 Gradients option       PostSCFGGA      .... off
 Hybrid DFT is turned on
   Fraction HF Exchange ScalHFX         ....  0.100000
   Scaling of DF-GGA-X  ScalDFX         ....  0.900000
   Scaling of DF-GGA-C  ScalDFC         ....  1.000000
   Scaling of DF-LDA-C  ScalLDAC        ....  1.000000
   Perturbative correction              ....  0.000000
   Density functional embedding theory  .... OFF
   NL short-range parameter             ....  5.200000


General Settings:
 Integral files         IntName         .... 41_CoO
 Hartree-Fock type      HFTyp           .... UHF
 Total Charge           Charge          ....    0
 Multiplicity           Mult            ....    4
 Number of Electrons    NEL             ....   35
 Basis Dimension        Dim             ....  139
 Nuclear Repulsion      ENuc            ....     70.3161319407 Eh

Convergence Acceleration:
 DIIS                   CNVDIIS         .... on
   Start iteration      DIISMaxIt       ....    12
   Startup error        DIISStart       ....  0.200000
   # of expansion vecs  DIISMaxEq       ....     5
   Bias factor          DIISBfac        ....   1.050
   Max. coefficient     DIISMaxC        ....  10.000
 Newton-Raphson         CNVNR           .... off
 SOSCF                  CNVSOSCF        .... off
 Level Shifting         CNVShift        .... on
   Level shift para.    LevelShift      ....    0.2500
   Turn off err/grad.   ShiftErr        ....    0.0010
 Zerner damping         CNVZerner       .... off
 Static damping         CNVDamp         .... on
   Fraction old density DampFac         ....    0.7000
   Max. Damping (<1)    DampMax         ....    0.9800
   Min. Damping (>=0)   DampMin         ....    0.0000
   Turn off err/grad.   DampErr         ....    0.1000
 Fernandez-Rico         CNVRico         .... off

SCF Procedure:
 Maximum # iterations   MaxIter         ....   125
 SCF integral mode      SCFMode         .... Direct
   Integral package                     .... LIBINT
 Reset frequency        DirectResetFreq ....    20
 Integral Threshold     Thresh          ....  1.000e-10 Eh
 Primitive CutOff       TCut            ....  1.000e-11 Eh

Convergence Tolerance:
 Convergence Check Mode ConvCheckMode   .... Total+1el-Energy
 Convergence forced     ConvForced      .... 0
 Energy Change          TolE            ....  1.000e-06 Eh
 1-El. energy change                    ....  1.000e-03 Eh
 DIIS Error             TolErr          ....  1.000e-06


Diagonalization of the overlap matrix:
Smallest eigenvalue                        ... 8.975e-05
Time for diagonalization                   ...    0.004 sec
Threshold for overlap eigenvalues          ... 1.000e-08
Number of eigenvalues below threshold      ... 0
Time for construction of square roots      ...    0.002 sec
Total time needed                          ...    0.006 sec

-------------------
DFT GRID GENERATION
-------------------

General Integration Accuracy     IntAcc      ...  4.670
Radial Grid Type                 RadialGrid  ... Gauss-Chebyshev
Angular Grid (max. acc.)         AngularGrid ... Lebedev-302
Angular grid pruning method      GridPruning ... 3 (G Style)
Weight generation scheme         WeightScheme... Becke
Basis function cutoff            BFCut       ...    1.0000e-10
Integration weight cutoff        WCut        ...    1.0000e-14
Grids for H and He will be reduced by one unit

# of grid points (after initial pruning)     ...  15852 (   0.0 sec)
# of grid points (after weights+screening)   ...  15810 (   0.0 sec)
nearest neighbour list constructed           ...    0.0 sec
Grid point re-assignment to atoms done       ...    0.0 sec
Grid point division into batches done        ...    0.1 sec
Reduced shell lists constructed in    0.1 sec

Total number of grid points                  ...    15810
Total number of batches                      ...      248
Average number of points per batch           ...       63
Average number of grid points per atom       ...     7905
Average number of shells per batch           ...    14.17 (36.32%)
Average number of basis functions per batch  ...    33.33 (23.98%)
Average number of large shells per batch     ...     6.42 (45.29%)
Average number of large basis fcns per batch ...    16.42 (49.25%)
Maximum spatial batch extension              ...  28.57, 31.41, 18.20 au
Average spatial batch extension              ...   0.89,  0.95,  0.67 au

Time for grid setup =    0.150 sec

------------------------------
INITIAL GUESS: MODEL POTENTIAL
------------------------------
Loading Hartree-Fock densities                     ... done
Calculating cut-offs                               ... done
Setting up the integral package                    ... done
Initializing the effective Hamiltonian             ... done
Starting the Coulomb interaction                   ... done (   0.0 sec)
Reading the grid                                   ... done
Mapping shells                                     ... done
Starting the XC term evaluation                    ... done (   0.0 sec)
  promolecular density results
     # of electrons  =     35.000025209
     EX              =    -65.830524438
     EC              =     -1.472709194
     EX+EC           =    -67.303233632
Transforming the Hamiltonian                       ... done (   0.0 sec)
Diagonalizing the Hamiltonian                      ... done (   0.0 sec)
Back transforming the eigenvectors                 ... done (   0.0 sec)
Now organizing SCF variables                       ... done
                      ------------------
                      INITIAL GUESS DONE (   0.2 sec)
                      ------------------
--------------
SCF ITERATIONS
--------------
ITER       Energy         Delta-E        Max-DP      RMS-DP      [F,P]     Damp
               ***  Starting incremental Fock matrix formation  ***
  0  -1457.7679726359   0.000000000000 0.16233066  0.00195493  0.4158742 0.7000
  1  -1457.8439165622  -0.075943926329 0.05056210  0.00093362  0.2421294 0.7000
                               ***Turning on DIIS***
  2  -1457.8949866829  -0.051070120661 0.10747420  0.00152124  0.0522885 0.0000
  3  -1457.9136115438  -0.018624860968 0.01653896  0.00022332  0.2749419 0.7000
  4  -1457.9343711617  -0.020759617834 0.01912545  0.00023324  0.2190587 0.7000
  5  -1457.9533784571  -0.019007295396 0.01723920  0.00020553  0.1873222 0.7000
  6  -1457.9682558305  -0.014877373459 0.01377896  0.00017308  0.1558700 0.7000
  7  -1457.9793571832  -0.011101352651 0.02086028  0.00033498  0.1278349 0.7000
  8  -1457.9949742265  -0.015617043319 0.04983388  0.00063187  0.0658961 0.0000
  9  -1457.9992797915  -0.004305565029 0.01026018  0.00017644  0.0705000 0.0000
 10  -1458.0038130632  -0.004533271719 0.00719385  0.00007644  0.0386490 0.0000
 11  -1458.0053428554  -0.001529792171 0.00497431  0.00005331  0.0186874 0.0000
 12  -1458.0057489012  -0.000406045754 0.00264825  0.00002725  0.0073335 0.0000
 13  -1458.0058198905  -0.000070989350 0.00157857  0.00001765  0.0025627 0.0000
 14  -1458.0058326585  -0.000012768003 0.00189726  0.00002161  0.0008183 0.0000
 15  -1458.0058380883  -0.000005429767 0.00080128  0.00000919  0.0004159 0.0000
 16  -1458.0058392456  -0.000001157284 0.00062148  0.00000674  0.0004332 0.0000
 17  -1458.0058397094  -0.000000463883 0.00037609  0.00000327  0.0003840 0.0000
 18  -1458.0058398627  -0.000000153269 0.00019302  0.00000257  0.0002297 0.0000
 19  -1458.0058399143  -0.000000051631 0.00022664  0.00000216  0.0001078 0.0000
               *** Restarting incremental Fock matrix formation ***
                                   *** Resetting DIIS ***
 20  -1458.0058399655  -0.000000051173 0.00007415  0.00000084  0.0000304 0.0000
 21  -1458.0058399552   0.000000010342 0.00004675  0.00000056  0.0001389 0.0000
                 **** Energy Check signals convergence ****

               *****************************************************
               *                     SUCCESS                       *
               *           SCF CONVERGED AFTER  22 CYCLES          *
               *****************************************************


----------------
TOTAL SCF ENERGY
----------------

Total Energy       :        -1458.00583997 Eh          -39674.35591 eV

Components:
Nuclear Repulsion  :           70.31613194 Eh            1913.39923 eV
Electronic Energy  :        -1528.32197191 Eh          -41587.75514 eV
One Electron Energy:        -2160.70737511 Eh          -58795.83680 eV
Two Electron Energy:          632.38540320 Eh           17208.08166 eV

Virial components:
Potential Energy   :        -2913.68972275 Eh          -79285.52815 eV
Kinetic Energy     :         1455.68388278 Eh           39611.17224 eV
Virial Ratio       :            2.00159510


DFT components:
N(Alpha)           :       19.000003934158 electrons
N(Beta)            :       16.000004766930 electrons
N(Total)           :       35.000008701088 electrons
E(X)               :      -59.817482245784 Eh       
E(C)               :       -1.489839051861 Eh       
E(XC)              :      -61.307321297645 Eh       
DFET-embed. en.    :        0.000000000000 Eh       

---------------
SCF CONVERGENCE
---------------

  Last Energy change         ...   -1.3960e-08  Tolerance :   1.0000e-06
  Last MAX-Density change    ...    2.6397e-05  Tolerance :   1.0000e-05
  Last RMS-Density change    ...    2.6995e-07  Tolerance :   1.0000e-06
  Last DIIS Error            ...    3.6025e-05  Tolerance :   1.0000e-06

             **** THE GBW FILE WAS UPDATED (41_CoO.gbw) ****
             **** DENSITY FILE WAS UPDATED (41_CoO.scfp) ****
             **** ENERGY FILE WAS UPDATED (41_CoO.en.tmp) ****
----------------------
UHF SPIN CONTAMINATION
----------------------

Warning: in a DFT calculation there is little theoretical justification to 
         calculate <S**2> as in Hartree-Fock theory. We will do it anyways
         but you should keep in mind that the values have only limited relevance

Expectation value of <S**2>     :     3.761293
Ideal value S*(S+1) for S=1.5   :     3.750000
Deviation                       :     0.011293

             **** THE GBW FILE WAS UPDATED (41_CoO.gbw) ****
             **** DENSITY FILE WAS UPDATED (41_CoO.scfp) ****
----------------
ORBITAL ENERGIES
----------------
                 SPIN UP ORBITALS
  NO   OCC          E(Eh)            E(eV) 
   0   1.0000    -277.289833     -7545.4400 
   1   1.0000     -32.688728      -889.5055 
   2   1.0000     -28.336115      -771.0649 
   3   1.0000     -28.286771      -769.7222 
   4   1.0000     -28.286771      -769.7222 
   5   1.0000     -19.038457      -518.0628 
   6   1.0000      -3.723400      -101.3189 
   7   1.0000      -2.476331       -67.3844 
   8   1.0000      -2.370535       -64.5055 
   9   1.0000      -2.370535       -64.5055 
  10   1.0000      -0.866419       -23.5765 
  11   1.0000      -0.360571        -9.8116 
  12   1.0000      -0.348210        -9.4753 
  13   1.0000      -0.348210        -9.4753 
  14   1.0000      -0.237539        -6.4638 
  15   1.0000      -0.237539        -6.4638 
  16   1.0000      -0.233803        -6.3621 
  17   1.0000      -0.231203        -6.2914 
  18   1.0000      -0.231203        -6.2914 
  19   0.0000      -0.120429        -3.2770 
  20   0.0000      -0.014406        -0.3920 
  21   0.0000      -0.014406        -0.3920 
  22   0.0000       0.007276         0.1980 
  23   0.0000       0.015768         0.4291 
  24   0.0000       0.043292         1.1780 
  25   0.0000       0.043293         1.1781 
  26   0.0000       0.067326         1.8320 
  27   0.0000       0.072056         1.9607 
  28   0.0000       0.072058         1.9608 
  29   0.0000       0.075646         2.0584 
  30   0.0000       0.075646         2.0584 
  31   0.0000       0.093811         2.5527 
  32   0.0000       0.116228         3.1627 
  33   0.0000       0.197383         5.3711 
  34   0.0000       0.197383         5.3711 
  35   0.0000       0.202658         5.5146 
  36   0.0000       0.216108         5.8806 
  37   0.0000       0.216108         5.8806 
  38   0.0000       0.263940         7.1822 
  39   0.0000       0.310339         8.4448 
  40   0.0000       0.310340         8.4448 
  41   0.0000       0.324515         8.8305 
  42   0.0000       0.324515         8.8305 
  43   0.0000       0.343809         9.3555 
  44   0.0000       0.507886        13.8203 
  45   0.0000       0.587631        15.9902 
  46   0.0000       0.587636        15.9904 
  47   0.0000       0.615342        16.7443 
  48   0.0000       0.707908        19.2632 
  49   0.0000       0.707909        19.2632 
  50   0.0000       0.729694        19.8560 
  51   0.0000       0.839033        22.8313 
  52   0.0000       0.839033        22.8313 
  53   0.0000       0.934891        25.4397 
  54   0.0000       0.934891        25.4397 
  55   0.0000       0.981461        26.7069 
  56   0.0000       0.989027        26.9128 
  57   0.0000       0.989027        26.9128 
  58   0.0000       1.101343        29.9691 
  59   0.0000       1.101344        29.9691 
  60   0.0000       1.108211        30.1560 
  61   0.0000       1.122323        30.5400 
  62   0.0000       1.122323        30.5400 
  63   0.0000       1.224036        33.3077 
  64   0.0000       1.243766        33.8446 
  65   0.0000       1.243767        33.8446 
  66   0.0000       1.498974        40.7891 
  67   0.0000       1.498974        40.7891 
  68   0.0000       1.695767        46.1442 
  69   0.0000       1.869573        50.8737 
  70   0.0000       1.884263        51.2734 
  71   0.0000       1.884263        51.2734 
  72   0.0000       1.937075        52.7105 
  73   0.0000       1.937100        52.7112 
  74   0.0000       2.105883        57.3040 
  75   0.0000       2.105883        57.3040 
  76   0.0000       2.147221        58.4288 
  77   0.0000       2.147246        58.4295 
  78   0.0000       2.294826        62.4454 
  79   0.0000       2.628004        71.5116 
  80   0.0000       2.628004        71.5116 
  81   0.0000       2.908032        79.1316 
  82   0.0000       3.151405        85.7541 
  83   0.0000       3.151405        85.7541 
  84   0.0000       3.153876        85.8213 
  85   0.0000       3.164467        86.1095 
  86   0.0000       3.164469        86.1096 
  87   0.0000       3.343848        90.9907 
  88   0.0000       3.343848        90.9907 
  89   0.0000       3.375580        91.8542 
  90   0.0000       3.375580        91.8542 
  91   0.0000       3.464103        94.2630 
  92   0.0000       3.805417       103.5507 
  93   0.0000       3.805417       103.5507 
  94   0.0000       3.835920       104.3807 
  95   0.0000       4.024122       109.5019 
  96   0.0000       4.024136       109.5023 
  97   0.0000       4.030610       109.6785 
  98   0.0000       4.030610       109.6785 
  99   0.0000       4.113941       111.9460 
 100   0.0000       4.244515       115.4991 
 101   0.0000       4.244519       115.4992 
 102   0.0000       4.546206       123.7086 
 103   0.0000       4.546206       123.7086 
 104   0.0000       5.132155       139.6530 
 105   0.0000       5.132156       139.6531 
 106   0.0000       5.140504       139.8802 
 107   0.0000       5.551022       151.0510 
 108   0.0000       5.551022       151.0510 
 109   0.0000       6.144459       167.1992 
 110   0.0000       6.144459       167.1992 
 111   0.0000       6.244272       169.9153 
 112   0.0000       6.244274       169.9153 
 113   0.0000       6.379976       173.6080 
 114   0.0000       6.493480       176.6966 
 115   0.0000       6.493480       176.6966 
 116   0.0000       6.573823       178.8828 
 117   0.0000       6.573999       178.8876 
 118   0.0000       6.916833       188.2166 
 119   0.0000       6.946870       189.0339 
 120   0.0000       6.946870       189.0339 
 121   0.0000       7.247467       197.2136 
 122   0.0000      10.373480       282.2767 
 123   0.0000      10.373500       282.2773 
 124   0.0000      10.418920       283.5132 
 125   0.0000      10.418920       283.5132 
 126   0.0000      10.455340       284.5043 
 127   0.0000      10.455340       284.5043 
 128   0.0000      10.686980       290.8075 
 129   0.0000      10.826341       294.5997 
 130   0.0000      11.516324       313.3751 
 131   0.0000      11.516324       313.3751 
 132   0.0000      11.552799       314.3676 
 133   0.0000      11.552838       314.3687 
 134   0.0000      11.597136       315.5741 
 135   0.0000      11.597145       315.5744 
 136   0.0000      11.862270       322.7888 
 137   0.0000      11.862270       322.7888 
 138   0.0000      12.218672       332.4870 

                 SPIN DOWN ORBITALS
  NO   OCC          E(Eh)            E(eV) 
   0   1.0000    -277.288437     -7545.4020 
   1   1.0000     -32.650084      -888.4539 
   2   1.0000     -28.290600      -769.8264 
   3   1.0000     -28.260712      -769.0131 
   4   1.0000     -28.260712      -769.0131 
   5   1.0000     -19.021503      -517.6014 
   6   1.0000      -3.627631       -98.7129 
   7   1.0000      -2.325798       -63.2882 
   8   1.0000      -2.299469       -62.5717 
   9   1.0000      -2.299469       -62.5717 
  10   1.0000      -0.826280       -22.4842 
  11   1.0000      -0.310214        -8.4414 
  12   1.0000      -0.261782        -7.1234 
  13   1.0000      -0.261782        -7.1234 
  14   1.0000      -0.184204        -5.0124 
  15   1.0000      -0.184203        -5.0124 
  16   0.0000      -0.132132        -3.5955 
  17   0.0000      -0.095015        -2.5855 
  18   0.0000      -0.095015        -2.5855 
  19   0.0000      -0.078888        -2.1466 
  20   0.0000       0.006081         0.1655 
  21   0.0000       0.006081         0.1655 
  22   0.0000       0.017064         0.4643 
  23   0.0000       0.021730         0.5913 
  24   0.0000       0.055541         1.5113 
  25   0.0000       0.055541         1.5114 
  26   0.0000       0.078901         2.1470 
  27   0.0000       0.082018         2.2318 
  28   0.0000       0.082020         2.2319 
  29   0.0000       0.086183         2.3452 
  30   0.0000       0.086183         2.3452 
  31   0.0000       0.099962         2.7201 
  32   0.0000       0.135983         3.7003 
  33   0.0000       0.209028         5.6879 
  34   0.0000       0.217863         5.9283 
  35   0.0000       0.217863         5.9283 
  36   0.0000       0.229212         6.2372 
  37   0.0000       0.229212         6.2372 
  38   0.0000       0.284595         7.7442 
  39   0.0000       0.328971         8.9518 
  40   0.0000       0.328972         8.9518 
  41   0.0000       0.344532         9.3752 
  42   0.0000       0.344532         9.3752 
  43   0.0000       0.354302         9.6410 
  44   0.0000       0.528267        14.3749 
  45   0.0000       0.600087        16.3292 
  46   0.0000       0.600091        16.3293 
  47   0.0000       0.639515        17.4021 
  48   0.0000       0.722650        19.6643 
  49   0.0000       0.722650        19.6643 
  50   0.0000       0.742555        20.2059 
  51   0.0000       0.869718        23.6662 
  52   0.0000       0.869718        23.6662 
  53   0.0000       0.963198        26.2100 
  54   0.0000       0.963198        26.2100 
  55   0.0000       1.009662        27.4743 
  56   0.0000       1.028675        27.9917 
  57   0.0000       1.028675        27.9917 
  58   0.0000       1.123635        30.5757 
  59   0.0000       1.138239        30.9730 
  60   0.0000       1.138239        30.9731 
  61   0.0000       1.170758        31.8580 
  62   0.0000       1.170758        31.8580 
  63   0.0000       1.256562        34.1928 
  64   0.0000       1.282623        34.9020 
  65   0.0000       1.282625        34.9020 
  66   0.0000       1.530534        41.6480 
  67   0.0000       1.530534        41.6480 
  68   0.0000       1.729663        47.0665 
  69   0.0000       1.890641        51.4470 
  70   0.0000       1.902234        51.7624 
  71   0.0000       1.902234        51.7624 
  72   0.0000       1.967642        53.5423 
  73   0.0000       1.967662        53.5428 
  74   0.0000       2.128194        57.9111 
  75   0.0000       2.128194        57.9111 
  76   0.0000       2.165858        58.9360 
  77   0.0000       2.165881        58.9366 
  78   0.0000       2.320604        63.1468 
  79   0.0000       2.653958        72.2179 
  80   0.0000       2.653958        72.2179 
  81   0.0000       2.945597        80.1538 
  82   0.0000       3.186194        86.7007 
  83   0.0000       3.186194        86.7007 
  84   0.0000       3.212130        87.4065 
  85   0.0000       3.224897        87.7539 
  86   0.0000       3.224901        87.7540 
  87   0.0000       3.402118        92.5763 
  88   0.0000       3.402118        92.5763 
  89   0.0000       3.420288        93.0708 
  90   0.0000       3.420288        93.0708 
  91   0.0000       3.513400        95.6045 
  92   0.0000       3.848748       104.7297 
  93   0.0000       3.848748       104.7297 
  94   0.0000       3.889358       105.8348 
  95   0.0000       4.057570       110.4121 
  96   0.0000       4.057581       110.4124 
  97   0.0000       4.076437       110.9255 
  98   0.0000       4.076437       110.9255 
  99   0.0000       4.153559       113.0241 
 100   0.0000       4.290441       116.7488 
 101   0.0000       4.290442       116.7489 
 102   0.0000       4.598765       125.1388 
 103   0.0000       4.598765       125.1388 
 104   0.0000       5.177608       140.8899 
 105   0.0000       5.177609       140.8899 
 106   0.0000       5.190869       141.2507 
 107   0.0000       5.624168       153.0414 
 108   0.0000       5.624168       153.0414 
 109   0.0000       6.181916       168.2185 
 110   0.0000       6.181916       168.2185 
 111   0.0000       6.276563       170.7940 
 112   0.0000       6.276566       170.7940 
 113   0.0000       6.424280       174.8135 
 114   0.0000       6.524861       177.5505 
 115   0.0000       6.524861       177.5505 
 116   0.0000       6.631355       180.4483 
 117   0.0000       6.631528       180.4531 
 118   0.0000       6.965990       189.5542 
 119   0.0000       6.989269       190.1877 
 120   0.0000       6.989269       190.1877 
 121   0.0000       7.284201       198.2132 
 122   0.0000      10.472443       284.9697 
 123   0.0000      10.472443       284.9697 
 124   0.0000      10.490400       285.4583 
 125   0.0000      10.490417       285.4588 
 126   0.0000      10.577956       287.8408 
 127   0.0000      10.577956       287.8408 
 128   0.0000      10.760874       292.8183 
 129   0.0000      10.903450       296.6980 
 130   0.0000      11.592301       315.4425 
 131   0.0000      11.592301       315.4425 
 132   0.0000      11.598438       315.6095 
 133   0.0000      11.598475       315.6106 
 134   0.0000      11.683489       317.9239 
 135   0.0000      11.683495       317.9241 
 136   0.0000      11.950510       325.1899 
 137   0.0000      11.950510       325.1899 
 138   0.0000      12.299531       334.6873 

                    ********************************
                    * MULLIKEN POPULATION ANALYSIS *
                    ********************************

--------------------------------------------
MULLIKEN ATOMIC CHARGES AND SPIN POPULATIONS
--------------------------------------------
   0 Co:    0.595108    2.336191
   1 O :   -0.595108    0.663809
Sum of atomic charges         :   -0.0000000
Sum of atomic spin populations:    3.0000000

-----------------------------------------------------
MULLIKEN REDUCED ORBITAL CHARGES AND SPIN POPULATIONS
-----------------------------------------------------
CHARGE
  0 Cos       :     6.443925  s :     6.443925
      pz      :     4.036519  p :    12.177122
      px      :     4.070302
      py      :     4.070302
      dz2     :     1.163869  d :     7.761352
      dxz     :     1.300650
      dyz     :     1.300650
      dx2y2   :     1.998091
      dxy     :     1.998092
      f0      :     0.006446  f :     0.020745
      f+1     :     0.006948
      f-1     :     0.006948
      f+2     :     0.000201
      f-2     :     0.000201
      f+3     :     0.000000
      f-3     :     0.000000
      g0      :     0.000581  g :     0.001748
      g+1     :     0.000558
      g-1     :     0.000558
      g+2     :     0.000026
      g-2     :     0.000026
      g+3     :     0.000000
      g-3     :     0.000000
      g+4     :     0.000000
      g-4     :     0.000000
  1 O s       :     3.968142  s :     3.968142
      pz      :     1.374264  p :     4.598322
      px      :     1.612029
      py      :     1.612029
      dz2     :     0.004847  d :     0.023546
      dxz     :     0.008358
      dyz     :     0.008358
      dx2y2   :     0.000992
      dxy     :     0.000991
      f0      :     0.001407  f :     0.005099
      f+1     :     0.001156
      f-1     :     0.001156
      f+2     :     0.000690
      f-2     :     0.000690
      f+3     :     0.000000
      f-3     :     0.000000

SPIN
  0 Cos       :     0.364039  s :     0.364039
      pz      :     0.004627  p :     0.076357
      px      :     0.035865
      py      :     0.035865
      dz2     :     0.548298  d :     1.890880
      dxz     :     0.671160
      dyz     :     0.671160
      dx2y2   :     0.000131
      dxy     :     0.000131
      f0      :     0.000351  f :     0.005114
      f+1     :     0.002280
      f-1     :     0.002280
      f+2     :     0.000102
      f-2     :     0.000102
      f+3     :     0.000000
      f-3     :     0.000000
      g0      :    -0.000130  g :    -0.000199
      g+1     :    -0.000054
      g-1     :    -0.000054
      g+2     :     0.000019
      g-2     :     0.000019
      g+3     :    -0.000000
      g-3     :    -0.000000
      g+4     :     0.000000
      g-4     :     0.000000
  1 O s       :    -0.005870  s :    -0.005870
      pz      :     0.087442  p :     0.673659
      px      :     0.293108
      py      :     0.293108
      dz2     :     0.000933  d :    -0.003330
      dxz     :    -0.001944
      dyz     :    -0.001944
      dx2y2   :    -0.000188
      dxy     :    -0.000188
      f0      :     0.000310  f :    -0.000650
      f+1     :    -0.000415
      f-1     :    -0.000415
      f+2     :    -0.000065
      f-2     :    -0.000064
      f+3     :     0.000000
      f-3     :     0.000000


                     *******************************
                     * LOEWDIN POPULATION ANALYSIS *
                     *******************************

-------------------------------------------
LOEWDIN ATOMIC CHARGES AND SPIN POPULATIONS
-------------------------------------------
   0 Co:    0.536486    2.330727
   1 O :   -0.536486    0.669273

----------------------------------------------------
LOEWDIN REDUCED ORBITAL CHARGES AND SPIN POPULATIONS
----------------------------------------------------
CHARGE
  0 Cos       :     6.208959  s :     6.208959
      pz      :     4.129304  p :    12.261102
      px      :     4.065899
      py      :     4.065899
      dz2     :     1.268024  d :     7.818820
      dxz     :     1.297303
      dyz     :     1.297303
      dx2y2   :     1.978095
      dxy     :     1.978095
      f0      :     0.068298  f :     0.164455
      f+1     :     0.046975
      f-1     :     0.046975
      f+2     :     0.001103
      f-2     :     0.001103
      f+3     :     0.000000
      f-3     :     0.000000
      g0      :     0.004971  g :     0.010180
      g+1     :     0.002563
      g-1     :     0.002563
      g+2     :     0.000042
      g-2     :     0.000042
      g+3     :     0.000000
      g-3     :     0.000000
      g+4     :     0.000000
      g-4     :     0.000000
  1 O s       :     3.567870  s :     3.567870
      pz      :     1.538406  p :     4.530001
      px      :     1.495797
      py      :     1.495797
      dz2     :     0.143174  d :     0.274928
      dxz     :     0.055192
      dyz     :     0.055192
      dx2y2   :     0.010685
      dxy     :     0.010685
      f0      :     0.070995  f :     0.163686
      f+1     :     0.036270
      f-1     :     0.036270
      f+2     :     0.010076
      f-2     :     0.010076
      f+3     :     0.000000
      f-3     :     0.000000

SPIN
  0 Cos       :     0.315997  s :     0.315997
      pz      :     0.005074  p :     0.140994
      px      :     0.067960
      py      :     0.067960
      dz2     :     0.539060  d :     1.834205
      dxz     :     0.646971
      dyz     :     0.646971
      dx2y2   :     0.000601
      dxy     :     0.000601
      f0      :     0.001943  f :     0.037481
      f+1     :     0.017536
      f-1     :     0.017536
      f+2     :     0.000233
      f-2     :     0.000233
      f+3     :     0.000000
      f-3     :     0.000000
      g0      :     0.000148  g :     0.002050
      g+1     :     0.000945
      g-1     :     0.000945
      g+2     :     0.000007
      g-2     :     0.000007
      g+3     :    -0.000000
      g-3     :    -0.000000
      g+4     :     0.000000
      g-4     :     0.000000
  1 O s       :     0.019964  s :     0.019964
      pz      :     0.108865  p :     0.590775
      px      :     0.240955
      py      :     0.240955
      dz2     :     0.004490  d :     0.030007
      dxz     :     0.013384
      dyz     :     0.013384
      dx2y2   :    -0.000626
      dxy     :    -0.000626
      f0      :     0.004459  f :     0.028526
      f+1     :     0.012249
      f-1     :     0.012249
      f+2     :    -0.000215
      f-2     :    -0.000215
      f+3     :     0.000000
      f-3     :     0.000000


                      *****************************
                      * MAYER POPULATION ANALYSIS *
                      *****************************

  NA   - Mulliken gross atomic population
  ZA   - Total nuclear charge
  QA   - Mulliken gross atomic charge
  VA   - Mayer's total valence
  BVA  - Mayer's bonded valence
  FA   - Mayer's free valence

  ATOM       NA         ZA         QA         VA         BVA        FA
  0 Co    26.4049    27.0000     0.5951     3.8335     2.0154     1.8181
  1 O      8.5951     8.0000    -0.5951     2.2002     2.0154     0.1848

  Mayer bond orders larger than 0.100000
B(  0-Co,  1-O ) :   2.0154 

-------
TIMINGS
-------

Total SCF time: 0 days 0 hours 2 min 34 sec 

Total time                  ....     154.314 sec
Sum of individual times     ....     153.940 sec  ( 99.8%)

Fock matrix formation       ....     153.524 sec  ( 99.5%)
  XC integration            ....       0.752 sec  (  0.5% of F)
    Basis function eval.    ....       0.100 sec  ( 13.3% of XC)
    Density eval.           ....       0.113 sec  ( 15.0% of XC)
    XC-Functional eval.     ....       0.029 sec  (  3.9% of XC)
    XC-Potential eval.      ....       0.305 sec  ( 40.6% of XC)
Diagonalization             ....       0.109 sec  (  0.1%)
Density matrix formation    ....       0.015 sec  (  0.0%)
Population analysis         ....       0.006 sec  (  0.0%)
Initial guess               ....       0.097 sec  (  0.1%)
Orbital Transformation      ....       0.000 sec  (  0.0%)
Orbital Orthonormalization  ....       0.000 sec  (  0.0%)
DIIS solution               ....       0.038 sec  (  0.0%)
Grid generation             ....       0.150 sec  (  0.1%)


-------------------------------------------------------------------------------
                          DFT DISPERSION CORRECTION                            
                                                                               
                              DFTD3 V3.1  Rev 1                                
                          USING Becke-Johnson damping                          
-------------------------------------------------------------------------------
The TPSSH functional is recognized
Active option DFTDOPT                   ...         4   

molecular C6(AA) [au] = 328.680985 


            DFT-D V3
 parameters
 s6 scaling factor         :     1.0000 
 a1 scaling factor         :     0.4529 
 s8 scaling factor         :     2.2382 
 a2 scaling factor         :     4.6550 
 ad hoc parameters k1-k3   :    16.0000     1.3333    -4.0000 

 Edisp/kcal,au: -0.413238736626  -0.000658537775 
 E6   /kcal   :  -0.156490636 
 E8   /kcal   :  -0.256748101 
 % E8         :  62.130695446 

-------------------------   ----------------
Dispersion correction           -0.000658538
-------------------------   ----------------


-------------------------   --------------------
FINAL SINGLE POINT ENERGY     -1458.006498506914
-------------------------   --------------------


                            ***************************************
                            *     ORCA property calculations      *
                            ***************************************

                                    ---------------------
                                    Active property flags
                                    ---------------------
   (+) Dipole Moment


------------------------------------------------------------------------------
                       ORCA ELECTRIC PROPERTIES CALCULATION
------------------------------------------------------------------------------

Dipole Moment Calculation                       ... on
Quadrupole Moment Calculation                   ... off
Polarizability Calculation                      ... off
GBWName                                         ... 41_CoO.gbw
Electron density file                           ... 41_CoO.scfp
The origin for moment calculation is the CENTER OF MASS  = ( 0.000000,  0.000000  1.009712)

-------------
DIPOLE MOMENT
-------------
                                X             Y             Z
Electronic contribution:     -0.00000      -0.00000      -3.60598
Nuclear contribution   :      0.00000       0.00000       1.61802
                        -----------------------------------------
Total Dipole Moment    :     -0.00000      -0.00000      -1.98796
                        -----------------------------------------
Magnitude (a.u.)       :      1.98796
Magnitude (Debye)      :      5.05300



--------------------
Rotational spectrum 
--------------------
 
Rotational constants in cm-1:     0.000000     0.507011     0.507011 
Rotational constants in MHz :     0.000000 15199.819890 15199.819890 

 Dipole components along the rotational axes: 
x,y,z [a.u.] :    -1.987963    -0.000000    -0.000000 
x,y,z [Debye]:    -5.053001    -0.000000    -0.000000 

 

Timings for individual modules:

Sum of individual times         ...      157.940 sec (=   2.632 min)
GTO integral calculation        ...        3.183 sec (=   0.053 min)   2.0 %
SCF iterations                  ...      154.757 sec (=   2.579 min)  98.0 %
                             ****ORCA TERMINATED NORMALLY****
TOTAL RUN TIME: 0 days 0 hours 2 minutes 38 seconds 583 msec
