
                                 *****************
                                 * O   R   C   A *
                                 *****************

           --- An Ab Initio, DFT and Semiempirical electronic structure package ---

                  #######################################################
                  #                        -***-                        #
                  #          Department of theory and spectroscopy      #
                  #               Directorship: Frank Neese             #
                  #        Max Planck Institute fuer Kohlenforschung    #
                  #                Kaiser Wilhelm Platz 1               #
                  #                 D-45470 Muelheim/Ruhr               #
                  #                      Germany                        #
                  #                                                     #
                  #                  All rights reserved                #
                  #                        -***-                        #
                  #######################################################


                         Program Version 4.2.0 -  RELEASE  -


 With contributions from (in alphabetic order):
   Daniel Aravena         : Magnetic Suceptibility
   Michael Atanasov       : Ab Initio Ligand Field Theory (pilot matlab implementation)
   Alexander A. Auer      : GIAO ZORA, VPT2
   Ute Becker             : Parallelization
   Giovanni Bistoni       : ED, misc. LED, open-shell LED, HFLED
   Martin Brehm           : Molecular dynamics
   Dmytro Bykov           : SCF Hessian
   Vijay G. Chilkuri      : MRCI spin determinant printing, contributions to CSF-ICE
   Dipayan Datta          : RHF DLPNO-CCSD density
   Achintya Kumar Dutta   : EOM-CC, STEOM-CC
   Dmitry Ganyushin       : Spin-Orbit,Spin-Spin,Magnetic field MRCI
   Miquel Garcia          : C-PCM Hessian, Gaussian charge scheme
   Yang Guo               : DLPNO-NEVPT2, CIM, IAO-localization
   Andreas Hansen         : Spin unrestricted coupled pair/coupled cluster methods
   Benjamin Helmich-Paris : CASSCF linear response (MC-RPA)
   Lee Huntington         : MR-EOM, pCC
   Robert Izsak           : Overlap fitted RIJCOSX, COSX-SCS-MP3, EOM
   Christian Kollmar      : KDIIS, OOCD, Brueckner-CCSD(T), CCSD density
   Simone Kossmann        : Meta GGA functionals, TD-DFT gradient, OOMP2, MP2 Hessian
   Martin Krupicka        : AUTO-CI
   Lucas Lang             : DCDCAS
   Dagmar Lenk            : GEPOL surface, SMD
   Dimitrios Liakos       : Extrapolation schemes; Compound Job, initial MDCI parallelization
   Dimitrios Manganas     : Further ROCIS development; embedding schemes
   Dimitrios Pantazis     : SARC Basis sets
   Taras Petrenko         : DFT Hessian,TD-DFT gradient, ASA, ECA, R-Raman, ABS, FL, XAS/XES, NRVS
   Peter Pinski           : DLPNO-MP2, DLPNO-MP2 Gradient
   Christoph Reimann      : Effective Core Potentials
   Marius Retegan         : Local ZFS, SOC
   Christoph Riplinger    : Optimizer, TS searches, QM/MM, DLPNO-CCSD(T), (RO)-DLPNO pert. Triples
   Tobias Risthaus        : Range-separated hybrids, TD-DFT gradient, RPA, STAB
   Michael Roemelt        : Original ROCIS implementation
   Masaaki Saitow         : Open-shell DLPNO-CCSD energy and density
   Barbara Sandhoefer     : DKH picture change effects
   Avijit Sen             : IP-ROCIS
   Kantharuban Sivalingam : CASSCF convergence, NEVPT2, FIC-MRCI
   Bernardo de Souza      : ESD, SOC TD-DFT
   Georgi Stoychev        : AutoAux, RI-MP2 NMR
   Willem Van den Heuvel  : Paramagnetic NMR
   Boris Wezisla          : Elementary symmetry handling
   Frank Wennmohs         : Technical directorship


 We gratefully acknowledge several colleagues who have allowed us to
 interface, adapt or use parts of their codes:
   Stefan Grimme, W. Hujo, H. Kruse,             : VdW corrections, initial TS optimization,
                  C. Bannwarth                     DFT functionals, gCP, sTDA/sTD-DF
   Ed Valeev, F. Pavosevic, A. Kumar             : LibInt (2-el integral package), F12 methods
   Garnet Chan, S. Sharma, J. Yang, R. Olivares  : DMRG
   Ulf Ekstrom                                   : XCFun DFT Library
   Mihaly Kallay                                 : mrcc  (arbitrary order and MRCC methods)
   Andreas Klamt, Michael Diedenhofen            : otool_cosmo (COSMO solvation model)
   Jiri Pittner, Ondrej Demel                    : Mk-CCSD
   Frank Weinhold                                : gennbo (NPA and NBO analysis)
   Christopher J. Cramer and Donald G. Truhlar   : smd solvation model
   Lars Goerigk                                  : TD-DFT with DH, B97 family of functionals
   V. Asgeirsson, H. Jonsson                     : NEB implementation
   FAccTs GmbH                                   : IRC, NEB, NEB-TS, Multilevel, MM, QM/MM, CI optimization
   S Lehtola, MJT Oliveira, MAL Marques          : LibXC Library


 Your calculation uses the libint2 library for the computation of 2-el integrals
 For citations please refer to: http://libint.valeyev.net

 Your ORCA version has been built with support for libXC version: 4.2.3
 For citations please refer to: https://tddft.org/programs/libxc/

 This ORCA versions uses:
   CBLAS   interface :  Fast vector & matrix operations
   LAPACKE interface :  Fast linear algebra routines
   SCALAPACK package :  Parallel linear algebra routines


Your calculation utilizes the atom-pairwise dispersion correction
with the Becke-Johnson damping scheme (D3BJ)
Cite in your paper:
S.Grimme, S.Ehrlich, L.Goerigk, J Comput Chem, (2011), 32, 1456–1465 
S.Grimme, J.Antony, S.Ehrlich and H.Krieg, J.Chem.Phys., 132, (2010), 154104 
   

----- Orbital basis set information -----
Your calculation utilizes the basis: aug-cc-pVTZ 
    H, B-Ne : Obtained from the ccRepo (grant-hill.group.shef.ac.uk/ccrepo) Feb. 2017
              R. A. Kendall, T. H. Dunning, Jr., R. J. Harrison, J. Chem. Phys. 96, 6796 (1992)
         He : Obtained from the ccRepo (grant-hill.group.shef.ac.uk/ccrepo) Feb. 2017
              D. E. Woon, T. H. Dunning, Jr., J. Chem. Phys. 100, 2975 (1994)
  Li-Be, Na : Obtained from the ccRepo (grant-hill.group.shef.ac.uk/ccrepo) Feb. 2017
              B. P. Prascher, D. E. Woon, K. A. Peterson, T. H. Dunning, Jr., A. K. Wilson, Theor. Chem. Acc. 128, 69 (2011)
         Mg : Obtained from the Peterson Research Group Website (tyr0.chem.wsu.edu/~kipeters) Feb. 2017
              B. P. Prascher, D. E. Woon, K. A. Peterson, T. H. Dunning, Jr., A. K. Wilson, Theor. Chem. Acc. 128, 69 (2011)
      Al-Ar : Obtained from the ccRepo (grant-hill.group.shef.ac.uk/ccrepo) Feb. 2017
              D. E. Woon, T. H. Dunning, Jr., J. Chem. Phys. 98, 1358 (1993)
      Sc-Zn : Obtained from the ccRepo (grant-hill.group.shef.ac.uk/ccrepo) Feb. 2017
              N. B. Balabanov, K. A. Peterson, J. Chem. Phys. 123, 064107 (2005)
              N. B. Balabanov, K. A. Peterson, J. Chem. Phys. 125, 074110 (2006)
      Ga-Kr : Obtained from the ccRepo (grant-hill.group.shef.ac.uk/ccrepo) Feb. 2017
              A. K. Wilson, D. E. Woon, K. A. Peterson, T. H. Dunning, Jr., J. Chem. Phys. 110, 7667 (1999)
     Ag, Au : Obtained from the Peterson Research Group Website (tyr0.chem.wsu.edu/~kipeters) Feb. 2017
              K. A. Peterson, C. Puzzarini, Theor. Chem. Acc. 114, 283 (2005)

----- AuxJK basis set information -----
Your calculation utilizes the auxiliary basis: def2/JK
   H-Ba, Hf-Rn: F. Weigend, J. Comput. Chem. 29, 167 (2008).

================================================================================
                                        WARNINGS
                       Please study these warnings very carefully!
================================================================================


WARNING: your system is open-shell and RHF/RKS was chosen
  ===> : WILL SWITCH to UHF/UKS


INFO   : the flag for use of LIBINT has been found!

================================================================================
                                       INPUT FILE
================================================================================
NAME = 45_NiCl.in
|  1> #
|  2> # 45_NiCl tpssh/aug-cc-pvtz
|  3> #
|  4> ! tpssh d3bj aug-cc-pvtz def2/jk grid4 nofinalgrid
|  5> 
|  6> *xyz 0 2
|  7>   Ni  0.00000000000000      0.00000000000000     -0.04672403924217
|  8>   Cl  0.00000000000000      0.00000000000000      2.04672403924217
|  9> *
| 10> 
| 11> %pal
| 12> nprocs 24
| 13> end
| 14> 
| 15> 
| 16>                          ****END OF INPUT****
================================================================================

                       ****************************
                       * Single Point Calculation *
                       ****************************

---------------------------------
CARTESIAN COORDINATES (ANGSTROEM)
---------------------------------
  Ni     0.000000    0.000000   -0.046724
  Cl     0.000000    0.000000    2.046724

----------------------------
CARTESIAN COORDINATES (A.U.)
----------------------------
  NO LB      ZA    FRAG     MASS         X           Y           Z
   0 Ni   28.0000    0    58.700    0.000000    0.000000   -0.088296
   1 Cl   17.0000    0    35.453    0.000000    0.000000    3.867748

--------------------------------
INTERNAL COORDINATES (ANGSTROEM)
--------------------------------
 Ni     0   0   0     0.000000000000     0.00000000     0.00000000
 Cl     1   0   0     2.093448078484     0.00000000     0.00000000

---------------------------
INTERNAL COORDINATES (A.U.)
---------------------------
 Ni     0   0   0     0.000000000000     0.00000000     0.00000000
 Cl     1   0   0     3.956043543919     0.00000000     0.00000000

---------------------
BASIS SET INFORMATION
---------------------
There are 2 groups of distinct atoms

 Group   1 Type Ni  : 116s77p23d3f2g contracted to 8s7p5d3f2g pattern {19191919191911/151515151511/77711/111/11}
 Group   2 Type Cl  : 42s17p3d2f contracted to 6s5p3d2f pattern {131313111/77111/111/11}

Atom   0Ni   basis set group =>   1
Atom   1Cl   basis set group =>   2
----------------------------------
AUXILIARY/JK BASIS SET INFORMATION
----------------------------------
There are 2 groups of distinct atoms

 Group   1 Type Ni  : 19s14p12d10f7g3h1i contracted to 16s13p11d9f5g3h1i pattern {4111111111111111/2111111111111/21111111111/211111111/31111/111/1}
 Group   2 Type Cl  : 16s12p10d4f1g contracted to 13s11p9d4f1g pattern {4111111111111/21111111111/211111111/1111/1}

Atom   0Ni   basis set group =>   1
Atom   1Cl   basis set group =>   2


           ************************************************************
           *        Program running with 24 parallel MPI-processes    *
           *              working on a common directory               *
           ************************************************************
------------------------------------------------------------------------------
                           ORCA GTO INTEGRAL CALCULATION
------------------------------------------------------------------------------

                         BASIS SET STATISTICS AND STARTUP INFO

 # of primitive gaussian shells          ...  285
 # of primitive gaussian functions       ...  623
 # of contracted shells                  ...   41
 # of contracted basis functions         ...  143
 Highest angular momentum                ...    4
 Maximum contraction depth               ...   19
 Integral package used                   ... LIBINT
 Integral threshhold            Thresh   ...  1.000e-10
 Primitive cut-off              TCut     ...  1.000e-11


------------------------------ INTEGRAL EVALUATION ----------------------------


 * One electron integrals 
 Pre-screening matrix                    ... done
 Shell pair data                         ... done (   0.001 sec)



           ************************************************************
           *        Program running with 24 parallel MPI-processes    *
           *              working on a common directory               *
           ************************************************************
-------------------------------------------------------------------------------
                                 ORCA SCF
-------------------------------------------------------------------------------

------------
SCF SETTINGS
------------
Hamiltonian:
 Density Functional     Method          .... DFT(GTOs)
 Exchange Functional    Exchange        .... TPSS
 Correlation Functional Correlation     .... TPSS
 LDA part of GGA corr.  LDAOpt          .... PW91-LDA
 Gradients option       PostSCFGGA      .... off
 Hybrid DFT is turned on
   Fraction HF Exchange ScalHFX         ....  0.100000
   Scaling of DF-GGA-X  ScalDFX         ....  0.900000
   Scaling of DF-GGA-C  ScalDFC         ....  1.000000
   Scaling of DF-LDA-C  ScalLDAC        ....  1.000000
   Perturbative correction              ....  0.000000
   Density functional embedding theory  .... OFF
   NL short-range parameter             ....  5.200000


General Settings:
 Integral files         IntName         .... 45_NiCl
 Hartree-Fock type      HFTyp           .... UHF
 Total Charge           Charge          ....    0
 Multiplicity           Mult            ....    2
 Number of Electrons    NEL             ....   45
 Basis Dimension        Dim             ....  143
 Nuclear Repulsion      ENuc            ....    120.3222347569 Eh

Convergence Acceleration:
 DIIS                   CNVDIIS         .... on
   Start iteration      DIISMaxIt       ....    12
   Startup error        DIISStart       ....  0.200000
   # of expansion vecs  DIISMaxEq       ....     5
   Bias factor          DIISBfac        ....   1.050
   Max. coefficient     DIISMaxC        ....  10.000
 Newton-Raphson         CNVNR           .... off
 SOSCF                  CNVSOSCF        .... off
 Level Shifting         CNVShift        .... on
   Level shift para.    LevelShift      ....    0.2500
   Turn off err/grad.   ShiftErr        ....    0.0010
 Zerner damping         CNVZerner       .... off
 Static damping         CNVDamp         .... on
   Fraction old density DampFac         ....    0.7000
   Max. Damping (<1)    DampMax         ....    0.9800
   Min. Damping (>=0)   DampMin         ....    0.0000
   Turn off err/grad.   DampErr         ....    0.1000
 Fernandez-Rico         CNVRico         .... off

SCF Procedure:
 Maximum # iterations   MaxIter         ....   125
 SCF integral mode      SCFMode         .... Direct
   Integral package                     .... LIBINT
 Reset frequency        DirectResetFreq ....    20
 Integral Threshold     Thresh          ....  1.000e-10 Eh
 Primitive CutOff       TCut            ....  1.000e-11 Eh

Convergence Tolerance:
 Convergence Check Mode ConvCheckMode   .... Total+1el-Energy
 Convergence forced     ConvForced      .... 0
 Energy Change          TolE            ....  1.000e-06 Eh
 1-El. energy change                    ....  1.000e-03 Eh
 DIIS Error             TolErr          ....  1.000e-06


Diagonalization of the overlap matrix:
Smallest eigenvalue                        ... 2.313e-04
Time for diagonalization                   ...    0.004 sec
Threshold for overlap eigenvalues          ... 1.000e-08
Number of eigenvalues below threshold      ... 0
Time for construction of square roots      ...    0.003 sec
Total time needed                          ...    0.007 sec

-------------------
DFT GRID GENERATION
-------------------

General Integration Accuracy     IntAcc      ...  4.670
Radial Grid Type                 RadialGrid  ... Gauss-Chebyshev
Angular Grid (max. acc.)         AngularGrid ... Lebedev-302
Angular grid pruning method      GridPruning ... 3 (G Style)
Weight generation scheme         WeightScheme... Becke
Basis function cutoff            BFCut       ...    1.0000e-10
Integration weight cutoff        WCut        ...    1.0000e-14
Grids for H and He will be reduced by one unit

# of grid points (after initial pruning)     ...  16402 (   0.0 sec)
# of grid points (after weights+screening)   ...  16374 (   0.0 sec)
nearest neighbour list constructed           ...    0.0 sec
Grid point re-assignment to atoms done       ...    0.0 sec
Grid point division into batches done        ...    0.1 sec
Reduced shell lists constructed in    0.1 sec

Total number of grid points                  ...    16374
Total number of batches                      ...      256
Average number of points per batch           ...       63
Average number of grid points per atom       ...     8187
Average number of shells per batch           ...    15.25 (37.20%)
Average number of basis functions per batch  ...    36.92 (25.82%)
Average number of large shells per batch     ...     7.92 (51.91%)
Average number of large basis fcns per batch ...    19.25 (52.14%)
Maximum spatial batch extension              ...  23.02, 23.02, 16.62 au
Average spatial batch extension              ...   0.79,  0.79,  0.61 au

Time for grid setup =    0.161 sec

------------------------------
INITIAL GUESS: MODEL POTENTIAL
------------------------------
Loading Hartree-Fock densities                     ... done
Calculating cut-offs                               ... done
Setting up the integral package                    ... done
Initializing the effective Hamiltonian             ... done
Starting the Coulomb interaction                   ... done (   0.0 sec)
Reading the grid                                   ... done
Mapping shells                                     ... done
Starting the XC term evaluation                    ... done (   0.0 sec)
  promolecular density results
     # of electrons  =     45.000025637
     EX              =    -88.908880485
     EC              =     -1.940581708
     EX+EC           =    -90.849462193
Transforming the Hamiltonian                       ... done (   0.0 sec)
Diagonalizing the Hamiltonian                      ... done (   0.0 sec)
Back transforming the eigenvectors                 ... done (   0.0 sec)
Now organizing SCF variables                       ... done
                      ------------------
                      INITIAL GUESS DONE (   0.3 sec)
                      ------------------
--------------
SCF ITERATIONS
--------------
ITER       Energy         Delta-E        Max-DP      RMS-DP      [F,P]     Damp
               ***  Starting incremental Fock matrix formation  ***
  0  -1968.5408857319   0.000000000000 0.02964288  0.00084514  0.3295583 0.7000
  1  -1968.5788096899  -0.037923958018 0.01881951  0.00038002  0.0539566 0.7000
                               ***Turning on DIIS***
  2  -1968.5932655129  -0.014455823024 0.03240951  0.00074934  0.0520211 0.0000
  3  -1968.6250814431  -0.031815930208 0.01401177  0.00034919  0.0965166 0.0000
  4  -1968.6329898212  -0.007908378053 0.01049070  0.00014327  0.0129663 0.0000
  5  -1968.6335398449  -0.000550023742 0.00534704  0.00006311  0.0044299 0.0000
  6  -1968.6336703695  -0.000130524578 0.00347094  0.00004118  0.0027666 0.0000
  7  -1968.6337258693  -0.000055499791 0.00230907  0.00002707  0.0017395 0.0000
  8  -1968.6337485190  -0.000022649734 0.00153608  0.00001738  0.0011944 0.0000
  9  -1968.6337579994  -0.000009480371 0.00257292  0.00002521  0.0007359 0.0000
 10  -1968.6337637223  -0.000005722890 0.00042681  0.00000406  0.0002171 0.0000
 11  -1968.6337639410  -0.000000218770 0.00007100  0.00000114  0.0001487 0.0000
 12  -1968.6337639941  -0.000000053048 0.00008270  0.00000090  0.0000486 0.0000
                 **** Energy Check signals convergence ****

               *****************************************************
               *                     SUCCESS                       *
               *           SCF CONVERGED AFTER  13 CYCLES          *
               *****************************************************


----------------
TOTAL SCF ENERGY
----------------

Total Energy       :        -1968.63376401 Eh          -53569.24813 eV

Components:
Nuclear Repulsion  :          120.32223476 Eh            3274.13446 eV
Electronic Energy  :        -2088.95599876 Eh          -56843.38259 eV
One Electron Energy:        -2973.77862608 Eh          -80920.63034 eV
Two Electron Energy:          884.82262732 Eh           24077.24775 eV

Virial components:
Potential Energy   :        -3934.03766354 Eh         -107050.60717 eV
Kinetic Energy     :         1965.40389954 Eh           53481.35905 eV
Virial Ratio       :            2.00164336


DFT components:
N(Alpha)           :       22.999999884423 electrons
N(Beta)            :       22.000000503608 electrons
N(Total)           :       45.000000388031 electrons
E(X)               :      -80.657591129804 Eh       
E(C)               :       -1.962109477368 Eh       
E(XC)              :      -82.619700607172 Eh       
DFET-embed. en.    :        0.000000000000 Eh       

---------------
SCF CONVERGENCE
---------------

  Last Energy change         ...   -1.1638e-08  Tolerance :   1.0000e-06
  Last MAX-Density change    ...    2.8134e-05  Tolerance :   1.0000e-05
  Last RMS-Density change    ...    3.3767e-07  Tolerance :   1.0000e-06
  Last DIIS Error            ...    2.9332e-05  Tolerance :   1.0000e-06

             **** THE GBW FILE WAS UPDATED (45_NiCl.gbw) ****
             **** DENSITY FILE WAS UPDATED (45_NiCl.scfp) ****
             **** ENERGY FILE WAS UPDATED (45_NiCl.en.tmp) ****
----------------------
UHF SPIN CONTAMINATION
----------------------

Warning: in a DFT calculation there is little theoretical justification to 
         calculate <S**2> as in Hartree-Fock theory. We will do it anyways
         but you should keep in mind that the values have only limited relevance

Expectation value of <S**2>     :     0.753413
Ideal value S*(S+1) for S=0.5   :     0.750000
Deviation                       :     0.003413

             **** THE GBW FILE WAS UPDATED (45_NiCl.gbw) ****
             **** DENSITY FILE WAS UPDATED (45_NiCl.scfp) ****
----------------
ORBITAL ENERGIES
----------------
                 SPIN UP ORBITALS
  NO   OCC          E(Eh)            E(eV) 
   0   1.0000    -299.565225     -8151.5842 
   1   1.0000    -101.349363     -2757.8564 
   2   1.0000     -35.569056      -967.8832 
   3   1.0000     -30.987421      -843.2106 
   4   1.0000     -30.955776      -842.3495 
   5   1.0000     -30.955776      -842.3495 
   6   1.0000      -9.327615      -253.8173 
   7   1.0000      -7.073199      -192.4715 
   8   1.0000      -7.068841      -192.3529 
   9   1.0000      -7.068841      -192.3529 
  10   1.0000      -3.956215      -107.6541 
  11   1.0000      -2.590664       -70.4956 
  12   1.0000      -2.522937       -68.6526 
  13   1.0000      -2.522937       -68.6526 
  14   1.0000      -0.733518       -19.9600 
  15   1.0000      -0.342649        -9.3239 
  16   1.0000      -0.290286        -7.8991 
  17   1.0000      -0.290286        -7.8991 
  18   1.0000      -0.260240        -7.0815 
  19   1.0000      -0.224778        -6.1165 
  20   1.0000      -0.224778        -6.1165 
  21   1.0000      -0.223884        -6.0922 
  22   1.0000      -0.223883        -6.0922 
  23   0.0000      -0.119717        -3.2577 
  24   0.0000      -0.012987        -0.3534 
  25   0.0000      -0.012987        -0.3534 
  26   0.0000       0.010204         0.2777 
  27   0.0000       0.013649         0.3714 
  28   0.0000       0.040125         1.0918 
  29   0.0000       0.040125         1.0918 
  30   0.0000       0.073471         1.9992 
  31   0.0000       0.078738         2.1426 
  32   0.0000       0.078741         2.1426 
  33   0.0000       0.080232         2.1832 
  34   0.0000       0.095691         2.6039 
  35   0.0000       0.095691         2.6039 
  36   0.0000       0.121777         3.3137 
  37   0.0000       0.124094         3.3768 
  38   0.0000       0.124094         3.3768 
  39   0.0000       0.139799         3.8041 
  40   0.0000       0.205211         5.5841 
  41   0.0000       0.205212         5.5841 
  42   0.0000       0.246091         6.6965 
  43   0.0000       0.273400         7.4396 
  44   0.0000       0.273401         7.4396 
  45   0.0000       0.274001         7.4560 
  46   0.0000       0.330087         8.9821 
  47   0.0000       0.330087         8.9821 
  48   0.0000       0.366282         9.9670 
  49   0.0000       0.366284         9.9671 
  50   0.0000       0.370750        10.0886 
  51   0.0000       0.432857        11.7786 
  52   0.0000       0.432857        11.7786 
  53   0.0000       0.501492        13.6463 
  54   0.0000       0.583669        15.8824 
  55   0.0000       0.583669        15.8824 
  56   0.0000       0.600642        16.3443 
  57   0.0000       0.748529        20.3685 
  58   0.0000       0.768813        20.9205 
  59   0.0000       0.768819        20.9206 
  60   0.0000       0.789128        21.4733 
  61   0.0000       0.789128        21.4733 
  62   0.0000       0.823795        22.4166 
  63   0.0000       0.897536        24.4232 
  64   0.0000       0.897536        24.4232 
  65   0.0000       0.985907        26.8279 
  66   0.0000       0.991010        26.9668 
  67   0.0000       0.991011        26.9668 
  68   0.0000       1.015084        27.6218 
  69   0.0000       1.015084        27.6218 
  70   0.0000       1.157833        31.5062 
  71   0.0000       1.157833        31.5062 
  72   0.0000       1.202079        32.7102 
  73   0.0000       1.263618        34.3848 
  74   0.0000       1.263618        34.3848 
  75   0.0000       1.385771        37.7087 
  76   0.0000       1.398203        38.0470 
  77   0.0000       1.398210        38.0472 
  78   0.0000       1.440550        39.1994 
  79   0.0000       1.440550        39.1994 
  80   0.0000       1.454122        39.5687 
  81   0.0000       1.454122        39.5687 
  82   0.0000       1.615817        43.9686 
  83   0.0000       1.776572        48.3430 
  84   0.0000       1.776572        48.3430 
  85   0.0000       2.012850        54.7724 
  86   0.0000       2.254452        61.3467 
  87   0.0000       2.254659        61.3524 
  88   0.0000       2.372278        64.5530 
  89   0.0000       2.372278        64.5530 
  90   0.0000       2.444773        66.5257 
  91   0.0000       2.464503        67.0625 
  92   0.0000       2.464503        67.0625 
  93   0.0000       2.792714        75.9936 
  94   0.0000       2.792714        75.9936 
  95   0.0000       2.826835        76.9221 
  96   0.0000       2.826875        76.9232 
  97   0.0000       2.851052        77.5811 
  98   0.0000       2.896493        78.8176 
  99   0.0000       2.896493        78.8176 
 100   0.0000       3.128605        85.1337 
 101   0.0000       3.604511        98.0837 
 102   0.0000       3.847105       104.6850 
 103   0.0000       3.847105       104.6850 
 104   0.0000       3.900473       106.1373 
 105   0.0000       3.900491       106.1378 
 106   0.0000       3.925129       106.8082 
 107   0.0000       3.925129       106.8082 
 108   0.0000       4.011314       109.1534 
 109   0.0000       4.011314       109.1534 
 110   0.0000       4.059370       110.4611 
 111   0.0000       4.358058       118.5888 
 112   0.0000       5.031808       136.9225 
 113   0.0000       5.032020       136.9282 
 114   0.0000       5.032112       136.9307 
 115   0.0000       5.032112       136.9307 
 116   0.0000       5.042136       137.2035 
 117   0.0000       5.042168       137.2044 
 118   0.0000       5.111102       139.0801 
 119   0.0000       5.111102       139.0801 
 120   0.0000       5.115821       139.2086 
 121   0.0000       5.642442       153.5387 
 122   0.0000       5.642462       153.5392 
 123   0.0000       5.797062       157.7461 
 124   0.0000       5.797062       157.7461 
 125   0.0000       6.027517       164.0171 
 126   0.0000       6.689536       182.0315 
 127   0.0000      12.419083       337.9404 
 128   0.0000      12.419083       337.9404 
 129   0.0000      12.436592       338.4169 
 130   0.0000      12.436749       338.4211 
 131   0.0000      12.469644       339.3163 
 132   0.0000      12.469644       339.3163 
 133   0.0000      12.480046       339.5993 
 134   0.0000      14.033392       381.8680 
 135   0.0000      14.033809       381.8794 
 136   0.0000      14.049375       382.3029 
 137   0.0000      14.049375       382.3029 
 138   0.0000      14.051392       382.3578 
 139   0.0000      14.051435       382.3590 
 140   0.0000      14.051668       382.3653 
 141   0.0000      14.051668       382.3653 
 142   0.0000      14.121900       384.2764 

                 SPIN DOWN ORBITALS
  NO   OCC          E(Eh)            E(eV) 
   0   1.0000    -299.564807     -8151.5728 
   1   1.0000    -101.349532     -2757.8610 
   2   1.0000     -35.551677      -967.4103 
   3   1.0000     -30.963609      -842.5626 
   4   1.0000     -30.945791      -842.0778 
   5   1.0000     -30.945791      -842.0778 
   6   1.0000      -9.327755      -253.8211 
   7   1.0000      -7.073561      -192.4814 
   8   1.0000      -7.068996      -192.3571 
   9   1.0000      -7.068996      -192.3571 
  10   1.0000      -3.913166      -106.4827 
  11   1.0000      -2.508703       -68.2653 
  12   1.0000      -2.497540       -67.9615 
  13   1.0000      -2.497540       -67.9615 
  14   1.0000      -0.733985       -19.9727 
  15   1.0000      -0.321398        -8.7457 
  16   1.0000      -0.286498        -7.7960 
  17   1.0000      -0.286498        -7.7960 
  18   1.0000      -0.216451        -5.8899 
  19   1.0000      -0.216451        -5.8899 
  20   1.0000      -0.196069        -5.3353 
  21   1.0000      -0.196068        -5.3353 
  22   0.0000      -0.126933        -3.4540 
  23   0.0000      -0.091841        -2.4991 
  24   0.0000      -0.007424        -0.2020 
  25   0.0000      -0.007424        -0.2020 
  26   0.0000       0.012604         0.3430 
  27   0.0000       0.015876         0.4320 
  28   0.0000       0.043642         1.1876 
  29   0.0000       0.043642         1.1876 
  30   0.0000       0.077593         2.1114 
  31   0.0000       0.081790         2.2256 
  32   0.0000       0.081793         2.2257 
  33   0.0000       0.084523         2.3000 
  34   0.0000       0.097103         2.6423 
  35   0.0000       0.097103         2.6423 
  36   0.0000       0.125095         3.4040 
  37   0.0000       0.125095         3.4040 
  38   0.0000       0.126315         3.4372 
  39   0.0000       0.141717         3.8563 
  40   0.0000       0.212999         5.7960 
  41   0.0000       0.212999         5.7960 
  42   0.0000       0.255069         6.9408 
  43   0.0000       0.274583         7.4718 
  44   0.0000       0.274584         7.4718 
  45   0.0000       0.274942         7.4816 
  46   0.0000       0.332504         9.0479 
  47   0.0000       0.332504         9.0479 
  48   0.0000       0.375228        10.2105 
  49   0.0000       0.375229        10.2105 
  50   0.0000       0.379548        10.3280 
  51   0.0000       0.436661        11.8821 
  52   0.0000       0.436661        11.8821 
  53   0.0000       0.507693        13.8150 
  54   0.0000       0.585014        15.9190 
  55   0.0000       0.585014        15.9190 
  56   0.0000       0.609632        16.5889 
  57   0.0000       0.753651        20.5079 
  58   0.0000       0.768660        20.9163 
  59   0.0000       0.768666        20.9165 
  60   0.0000       0.789528        21.4841 
  61   0.0000       0.789528        21.4842 
  62   0.0000       0.824410        22.4333 
  63   0.0000       0.909331        24.7442 
  64   0.0000       0.909331        24.7442 
  65   0.0000       0.993208        27.0266 
  66   0.0000       0.993209        27.0266 
  67   0.0000       0.997968        27.1561 
  68   0.0000       1.016355        27.6564 
  69   0.0000       1.016355        27.6564 
  70   0.0000       1.162503        31.6333 
  71   0.0000       1.162503        31.6333 
  72   0.0000       1.205761        32.8104 
  73   0.0000       1.287431        35.0328 
  74   0.0000       1.287431        35.0328 
  75   0.0000       1.412350        38.4320 
  76   0.0000       1.412357        38.4322 
  77   0.0000       1.423430        38.7335 
  78   0.0000       1.451903        39.5083 
  79   0.0000       1.451903        39.5083 
  80   0.0000       1.466280        39.8995 
  81   0.0000       1.466281        39.8995 
  82   0.0000       1.627307        44.2813 
  83   0.0000       1.783147        48.5219 
  84   0.0000       1.783147        48.5219 
  85   0.0000       2.031911        55.2911 
  86   0.0000       2.254178        61.3393 
  87   0.0000       2.254385        61.3449 
  88   0.0000       2.372342        64.5547 
  89   0.0000       2.372342        64.5547 
  90   0.0000       2.445729        66.5517 
  91   0.0000       2.465521        67.0902 
  92   0.0000       2.465521        67.0902 
  93   0.0000       2.792423        75.9857 
  94   0.0000       2.792423        75.9857 
  95   0.0000       2.826779        76.9206 
  96   0.0000       2.826818        76.9216 
  97   0.0000       2.854430        77.6730 
  98   0.0000       2.896734        78.8241 
  99   0.0000       2.896734        78.8241 
 100   0.0000       3.140048        85.4451 
 101   0.0000       3.634244        98.8928 
 102   0.0000       3.870717       105.3276 
 103   0.0000       3.870717       105.3276 
 104   0.0000       3.903217       106.2119 
 105   0.0000       3.903234       106.2124 
 106   0.0000       3.946878       107.4000 
 107   0.0000       3.946878       107.4000 
 108   0.0000       4.042870       110.0121 
 109   0.0000       4.042870       110.0121 
 110   0.0000       4.115735       111.9949 
 111   0.0000       4.391727       119.5050 
 112   0.0000       5.035391       137.0200 
 113   0.0000       5.035391       137.0200 
 114   0.0000       5.053744       137.5194 
 115   0.0000       5.053776       137.5202 
 116   0.0000       5.056055       137.5823 
 117   0.0000       5.056246       137.5875 
 118   0.0000       5.141310       139.9022 
 119   0.0000       5.141310       139.9022 
 120   0.0000       5.171161       140.7144 
 121   0.0000       5.665858       154.1758 
 122   0.0000       5.665873       154.1763 
 123   0.0000       5.811371       158.1355 
 124   0.0000       5.811371       158.1355 
 125   0.0000       6.031720       164.1315 
 126   0.0000       6.751523       183.7183 
 127   0.0000      12.450071       338.7837 
 128   0.0000      12.450235       338.7881 
 129   0.0000      12.451883       338.8330 
 130   0.0000      12.451883       338.8330 
 131   0.0000      12.540548       341.2456 
 132   0.0000      12.540548       341.2456 
 133   0.0000      12.585820       342.4776 
 134   0.0000      14.067439       382.7945 
 135   0.0000      14.067439       382.7945 
 136   0.0000      14.069390       382.8476 
 137   0.0000      14.069786       382.8583 
 138   0.0000      14.080999       383.1635 
 139   0.0000      14.081038       383.1645 
 140   0.0000      14.111400       383.9907 
 141   0.0000      14.111400       383.9907 
 142   0.0000      14.194337       386.2475 

                    ********************************
                    * MULLIKEN POPULATION ANALYSIS *
                    ********************************

--------------------------------------------
MULLIKEN ATOMIC CHARGES AND SPIN POPULATIONS
--------------------------------------------
   0 Ni:    0.510920    0.978048
   1 Cl:   -0.510920    0.021952
Sum of atomic charges         :   -0.0000000
Sum of atomic spin populations:    1.0000000

-----------------------------------------------------
MULLIKEN REDUCED ORBITAL CHARGES AND SPIN POPULATIONS
-----------------------------------------------------
CHARGE
  0 Nis       :     6.307410  s :     6.307410
      pz      :     4.060961  p :    12.159381
      px      :     4.049210
      py      :     4.049210
      dz2     :     1.044510  d :     9.012855
      dxz     :     1.985990
      dyz     :     1.985990
      dx2y2   :     1.998182
      dxy     :     1.998182
      f0      :     0.003248  f :     0.009236
      f+1     :     0.002933
      f-1     :     0.002933
      f+2     :     0.000062
      f-2     :     0.000062
      f+3     :     0.000000
      f-3     :     0.000000
      g0      :     0.000074  g :     0.000198
      g+1     :     0.000049
      g-1     :     0.000049
      g+2     :     0.000013
      g-2     :     0.000013
      g+3     :     0.000000
      g-3     :     0.000000
      g+4     :     0.000000
      g-4     :     0.000000
  1 Cls       :     5.968111  s :     5.968111
      pz      :     3.609084  p :    11.507431
      px      :     3.949173
      py      :     3.949173
      dz2     :     0.006729  d :     0.030760
      dxz     :     0.010923
      dyz     :     0.010923
      dx2y2   :     0.001093
      dxy     :     0.001093
      f0      :    -0.000127  f :     0.004619
      f+1     :     0.001723
      f-1     :     0.001723
      f+2     :     0.000650
      f-2     :     0.000650
      f+3     :     0.000000
      f-3     :     0.000000

SPIN
  0 Nis       :     0.099318  s :     0.099318
      pz      :    -0.001078  p :     0.005423
      px      :     0.003250
      py      :     0.003250
      dz2     :     0.870236  d :     0.873813
      dxz     :     0.001500
      dyz     :     0.001500
      dx2y2   :     0.000289
      dxy     :     0.000289
      f0      :    -0.000148  f :    -0.000557
      f+1     :    -0.000195
      f-1     :    -0.000195
      f+2     :    -0.000010
      f-2     :    -0.000010
      f+3     :    -0.000000
      f-3     :    -0.000000
      g0      :     0.000055  g :     0.000051
      g+1     :     0.000010
      g-1     :     0.000010
      g+2     :    -0.000012
      g-2     :    -0.000012
      g+3     :    -0.000000
      g-3     :    -0.000000
      g+4     :     0.000000
      g-4     :     0.000000
  1 Cls       :     0.013526  s :     0.013526
      pz      :     0.016002  p :     0.007041
      px      :    -0.004480
      py      :    -0.004480
      dz2     :     0.001811  d :     0.001353
      dxz     :    -0.000064
      dyz     :    -0.000064
      dx2y2   :    -0.000165
      dxy     :    -0.000165
      f0      :     0.000277  f :     0.000031
      f+1     :    -0.000021
      f-1     :    -0.000021
      f+2     :    -0.000102
      f-2     :    -0.000102
      f+3     :    -0.000000
      f-3     :    -0.000000


                     *******************************
                     * LOEWDIN POPULATION ANALYSIS *
                     *******************************

-------------------------------------------
LOEWDIN ATOMIC CHARGES AND SPIN POPULATIONS
-------------------------------------------
   0 Ni:    0.095784    0.979656
   1 Cl:   -0.095784    0.020344

----------------------------------------------------
LOEWDIN REDUCED ORBITAL CHARGES AND SPIN POPULATIONS
----------------------------------------------------
CHARGE
  0 Nis       :     6.259716  s :     6.259716
      pz      :     4.198841  p :    12.384588
      px      :     4.092873
      py      :     4.092873
      dz2     :     1.172015  d :     9.195959
      dxz     :     2.019785
      dyz     :     2.019785
      dx2y2   :     1.992187
      dxy     :     1.992187
      f0      :     0.027601  f :     0.063113
      f+1     :     0.017599
      f-1     :     0.017599
      f+2     :     0.000157
      f-2     :     0.000157
      f+3     :     0.000000
      f-3     :     0.000000
      g0      :     0.000426  g :     0.000840
      g+1     :     0.000198
      g-1     :     0.000198
      g+2     :     0.000010
      g-2     :     0.000010
      g+3     :     0.000000
      g-3     :     0.000000
      g+4     :     0.000000
      g-4     :     0.000000
  1 Cls       :     5.629760  s :     5.629760
      pz      :     3.586518  p :    11.194836
      px      :     3.804159
      py      :     3.804159
      dz2     :     0.085189  d :     0.167839
      dxz     :     0.037531
      dyz     :     0.037531
      dx2y2   :     0.003794
      dxy     :     0.003794
      f0      :     0.039934  f :     0.103350
      f+1     :     0.027855
      f-1     :     0.027855
      f+2     :     0.003853
      f-2     :     0.003853
      f+3     :     0.000000
      f-3     :     0.000000

SPIN
  0 Nis       :     0.116141  s :     0.116141
      pz      :     0.004928  p :     0.010221
      px      :     0.002646
      py      :     0.002646
      dz2     :     0.849800  d :     0.853784
      dxz     :     0.001605
      dyz     :     0.001605
      dx2y2   :     0.000387
      dxy     :     0.000387
      f0      :     0.000024  f :    -0.000529
      f+1     :    -0.000257
      f-1     :    -0.000257
      f+2     :    -0.000020
      f-2     :    -0.000020
      f+3     :    -0.000000
      f-3     :    -0.000000
      g0      :     0.000047  g :     0.000040
      g+1     :     0.000005
      g-1     :     0.000005
      g+2     :    -0.000009
      g-2     :    -0.000009
      g+3     :    -0.000000
      g-3     :    -0.000000
      g+4     :     0.000000
      g-4     :     0.000000
  1 Cls       :     0.003228  s :     0.003228
      pz      :     0.015054  p :     0.008420
      px      :    -0.003317
      py      :    -0.003317
      dz2     :     0.007409  d :     0.005858
      dxz     :    -0.000528
      dyz     :    -0.000528
      dx2y2   :    -0.000247
      dxy     :    -0.000247
      f0      :     0.003370  f :     0.002837
      f+1     :    -0.000155
      f-1     :    -0.000155
      f+2     :    -0.000111
      f-2     :    -0.000111
      f+3     :    -0.000000
      f-3     :    -0.000000


                      *****************************
                      * MAYER POPULATION ANALYSIS *
                      *****************************

  NA   - Mulliken gross atomic population
  ZA   - Total nuclear charge
  QA   - Mulliken gross atomic charge
  VA   - Mayer's total valence
  BVA  - Mayer's bonded valence
  FA   - Mayer's free valence

  ATOM       NA         ZA         QA         VA         BVA        FA
  0 Ni    27.4891    28.0000     0.5109     1.8132     0.9348     0.8784
  1 Cl    17.5109    17.0000    -0.5109     0.9384     0.9348     0.0036

  Mayer bond orders larger than 0.100000
B(  0-Ni,  1-Cl) :   0.9348 

-------
TIMINGS
-------

Total SCF time: 0 days 0 hours 1 min 54 sec 

Total time                  ....     114.150 sec
Sum of individual times     ....     113.803 sec  ( 99.7%)

Fock matrix formation       ....     113.425 sec  ( 99.4%)
  XC integration            ....       0.472 sec  (  0.4% of F)
    Basis function eval.    ....       0.067 sec  ( 14.2% of XC)
    Density eval.           ....       0.073 sec  ( 15.5% of XC)
    XC-Functional eval.     ....       0.019 sec  (  4.0% of XC)
    XC-Potential eval.      ....       0.201 sec  ( 42.6% of XC)
Diagonalization             ....       0.073 sec  (  0.1%)
Density matrix formation    ....       0.010 sec  (  0.0%)
Population analysis         ....       0.007 sec  (  0.0%)
Initial guess               ....       0.101 sec  (  0.1%)
Orbital Transformation      ....       0.000 sec  (  0.0%)
Orbital Orthonormalization  ....       0.000 sec  (  0.0%)
DIIS solution               ....       0.026 sec  (  0.0%)
Grid generation             ....       0.161 sec  (  0.1%)


-------------------------------------------------------------------------------
                          DFT DISPERSION CORRECTION                            
                                                                               
                              DFTD3 V3.1  Rev 1                                
                          USING Becke-Johnson damping                          
-------------------------------------------------------------------------------
The TPSSH functional is recognized
Active option DFTDOPT                   ...         4   

molecular C6(AA) [au] = 613.888109 


            DFT-D V3
 parameters
 s6 scaling factor         :     1.0000 
 a1 scaling factor         :     0.4529 
 s8 scaling factor         :     2.2382 
 a2 scaling factor         :     4.6550 
 ad hoc parameters k1-k3   :    16.0000     1.3333    -4.0000 

 Edisp/kcal,au: -0.904149101784  -0.001440853155 
 E6   /kcal   :  -0.299527674 
 E8   /kcal   :  -0.604621427 
 % E8         :  66.871871703 

-------------------------   ----------------
Dispersion correction           -0.001440853
-------------------------   ----------------


-------------------------   --------------------
FINAL SINGLE POINT ENERGY     -1968.635204858876
-------------------------   --------------------


                            ***************************************
                            *     ORCA property calculations      *
                            ***************************************

                                    ---------------------
                                    Active property flags
                                    ---------------------
   (+) Dipole Moment


------------------------------------------------------------------------------
                       ORCA ELECTRIC PROPERTIES CALCULATION
------------------------------------------------------------------------------

Dipole Moment Calculation                       ... on
Quadrupole Moment Calculation                   ... off
Polarizability Calculation                      ... off
GBWName                                         ... 45_NiCl.gbw
Electron density file                           ... 45_NiCl.scfp
The origin for moment calculation is the CENTER OF MASS  = ( 0.000000,  0.000000  1.401339)

-------------
DIPOLE MOMENT
-------------
                                X             Y             Z
Electronic contribution:     -0.00000      -0.00000      -2.23207
Nuclear contribution   :      0.00000       0.00000       0.21916
                        -----------------------------------------
Total Dipole Moment    :     -0.00000      -0.00000      -2.01291
                        -----------------------------------------
Magnitude (a.u.)       :      2.01291
Magnitude (Debye)      :      5.11641



--------------------
Rotational spectrum 
--------------------
 
Rotational constants in cm-1:     0.000000     0.174027     0.174027 
Rotational constants in MHz :     0.000000  5217.185595  5217.185595 

 Dipole components along the rotational axes: 
x,y,z [a.u.] :    -2.012909    -0.000000    -0.000000 
x,y,z [Debye]:    -5.116408    -0.000000    -0.000000 

 

Timings for individual modules:

Sum of individual times         ...      118.192 sec (=   1.970 min)
GTO integral calculation        ...        3.579 sec (=   0.060 min)   3.0 %
SCF iterations                  ...      114.613 sec (=   1.910 min)  97.0 %
                             ****ORCA TERMINATED NORMALLY****
TOTAL RUN TIME: 0 days 0 hours 1 minutes 58 seconds 842 msec
