
                                 *****************
                                 * O   R   C   A *
                                 *****************

           --- An Ab Initio, DFT and Semiempirical electronic structure package ---

                  #######################################################
                  #                        -***-                        #
                  #          Department of theory and spectroscopy      #
                  #               Directorship: Frank Neese             #
                  #        Max Planck Institute fuer Kohlenforschung    #
                  #                Kaiser Wilhelm Platz 1               #
                  #                 D-45470 Muelheim/Ruhr               #
                  #                      Germany                        #
                  #                                                     #
                  #                  All rights reserved                #
                  #                        -***-                        #
                  #######################################################


                         Program Version 4.2.0 -  RELEASE  -


 With contributions from (in alphabetic order):
   Daniel Aravena         : Magnetic Suceptibility
   Michael Atanasov       : Ab Initio Ligand Field Theory (pilot matlab implementation)
   Alexander A. Auer      : GIAO ZORA, VPT2
   Ute Becker             : Parallelization
   Giovanni Bistoni       : ED, misc. LED, open-shell LED, HFLED
   Martin Brehm           : Molecular dynamics
   Dmytro Bykov           : SCF Hessian
   Vijay G. Chilkuri      : MRCI spin determinant printing, contributions to CSF-ICE
   Dipayan Datta          : RHF DLPNO-CCSD density
   Achintya Kumar Dutta   : EOM-CC, STEOM-CC
   Dmitry Ganyushin       : Spin-Orbit,Spin-Spin,Magnetic field MRCI
   Miquel Garcia          : C-PCM Hessian, Gaussian charge scheme
   Yang Guo               : DLPNO-NEVPT2, CIM, IAO-localization
   Andreas Hansen         : Spin unrestricted coupled pair/coupled cluster methods
   Benjamin Helmich-Paris : CASSCF linear response (MC-RPA)
   Lee Huntington         : MR-EOM, pCC
   Robert Izsak           : Overlap fitted RIJCOSX, COSX-SCS-MP3, EOM
   Christian Kollmar      : KDIIS, OOCD, Brueckner-CCSD(T), CCSD density
   Simone Kossmann        : Meta GGA functionals, TD-DFT gradient, OOMP2, MP2 Hessian
   Martin Krupicka        : AUTO-CI
   Lucas Lang             : DCDCAS
   Dagmar Lenk            : GEPOL surface, SMD
   Dimitrios Liakos       : Extrapolation schemes; Compound Job, initial MDCI parallelization
   Dimitrios Manganas     : Further ROCIS development; embedding schemes
   Dimitrios Pantazis     : SARC Basis sets
   Taras Petrenko         : DFT Hessian,TD-DFT gradient, ASA, ECA, R-Raman, ABS, FL, XAS/XES, NRVS
   Peter Pinski           : DLPNO-MP2, DLPNO-MP2 Gradient
   Christoph Reimann      : Effective Core Potentials
   Marius Retegan         : Local ZFS, SOC
   Christoph Riplinger    : Optimizer, TS searches, QM/MM, DLPNO-CCSD(T), (RO)-DLPNO pert. Triples
   Tobias Risthaus        : Range-separated hybrids, TD-DFT gradient, RPA, STAB
   Michael Roemelt        : Original ROCIS implementation
   Masaaki Saitow         : Open-shell DLPNO-CCSD energy and density
   Barbara Sandhoefer     : DKH picture change effects
   Avijit Sen             : IP-ROCIS
   Kantharuban Sivalingam : CASSCF convergence, NEVPT2, FIC-MRCI
   Bernardo de Souza      : ESD, SOC TD-DFT
   Georgi Stoychev        : AutoAux, RI-MP2 NMR
   Willem Van den Heuvel  : Paramagnetic NMR
   Boris Wezisla          : Elementary symmetry handling
   Frank Wennmohs         : Technical directorship


 We gratefully acknowledge several colleagues who have allowed us to
 interface, adapt or use parts of their codes:
   Stefan Grimme, W. Hujo, H. Kruse,             : VdW corrections, initial TS optimization,
                  C. Bannwarth                     DFT functionals, gCP, sTDA/sTD-DF
   Ed Valeev, F. Pavosevic, A. Kumar             : LibInt (2-el integral package), F12 methods
   Garnet Chan, S. Sharma, J. Yang, R. Olivares  : DMRG
   Ulf Ekstrom                                   : XCFun DFT Library
   Mihaly Kallay                                 : mrcc  (arbitrary order and MRCC methods)
   Andreas Klamt, Michael Diedenhofen            : otool_cosmo (COSMO solvation model)
   Jiri Pittner, Ondrej Demel                    : Mk-CCSD
   Frank Weinhold                                : gennbo (NPA and NBO analysis)
   Christopher J. Cramer and Donald G. Truhlar   : smd solvation model
   Lars Goerigk                                  : TD-DFT with DH, B97 family of functionals
   V. Asgeirsson, H. Jonsson                     : NEB implementation
   FAccTs GmbH                                   : IRC, NEB, NEB-TS, Multilevel, MM, QM/MM, CI optimization
   S Lehtola, MJT Oliveira, MAL Marques          : LibXC Library


 Your calculation uses the libint2 library for the computation of 2-el integrals
 For citations please refer to: http://libint.valeyev.net

 Your ORCA version has been built with support for libXC version: 4.2.3
 For citations please refer to: https://tddft.org/programs/libxc/

 This ORCA versions uses:
   CBLAS   interface :  Fast vector & matrix operations
   LAPACKE interface :  Fast linear algebra routines
   SCALAPACK package :  Parallel linear algebra routines


Your calculation utilizes the atom-pairwise dispersion correction
with the Becke-Johnson damping scheme (D3BJ)
Cite in your paper:
S.Grimme, S.Ehrlich, L.Goerigk, J Comput Chem, (2011), 32, 1456–1465 
S.Grimme, J.Antony, S.Ehrlich and H.Krieg, J.Chem.Phys., 132, (2010), 154104 
   

----- Orbital basis set information -----
Your calculation utilizes the basis: aug-cc-pVTZ 
    H, B-Ne : Obtained from the ccRepo (grant-hill.group.shef.ac.uk/ccrepo) Feb. 2017
              R. A. Kendall, T. H. Dunning, Jr., R. J. Harrison, J. Chem. Phys. 96, 6796 (1992)
         He : Obtained from the ccRepo (grant-hill.group.shef.ac.uk/ccrepo) Feb. 2017
              D. E. Woon, T. H. Dunning, Jr., J. Chem. Phys. 100, 2975 (1994)
  Li-Be, Na : Obtained from the ccRepo (grant-hill.group.shef.ac.uk/ccrepo) Feb. 2017
              B. P. Prascher, D. E. Woon, K. A. Peterson, T. H. Dunning, Jr., A. K. Wilson, Theor. Chem. Acc. 128, 69 (2011)
         Mg : Obtained from the Peterson Research Group Website (tyr0.chem.wsu.edu/~kipeters) Feb. 2017
              B. P. Prascher, D. E. Woon, K. A. Peterson, T. H. Dunning, Jr., A. K. Wilson, Theor. Chem. Acc. 128, 69 (2011)
      Al-Ar : Obtained from the ccRepo (grant-hill.group.shef.ac.uk/ccrepo) Feb. 2017
              D. E. Woon, T. H. Dunning, Jr., J. Chem. Phys. 98, 1358 (1993)
      Sc-Zn : Obtained from the ccRepo (grant-hill.group.shef.ac.uk/ccrepo) Feb. 2017
              N. B. Balabanov, K. A. Peterson, J. Chem. Phys. 123, 064107 (2005)
              N. B. Balabanov, K. A. Peterson, J. Chem. Phys. 125, 074110 (2006)
      Ga-Kr : Obtained from the ccRepo (grant-hill.group.shef.ac.uk/ccrepo) Feb. 2017
              A. K. Wilson, D. E. Woon, K. A. Peterson, T. H. Dunning, Jr., J. Chem. Phys. 110, 7667 (1999)
     Ag, Au : Obtained from the Peterson Research Group Website (tyr0.chem.wsu.edu/~kipeters) Feb. 2017
              K. A. Peterson, C. Puzzarini, Theor. Chem. Acc. 114, 283 (2005)

----- AuxJK basis set information -----
Your calculation utilizes the auxiliary basis: def2/JK
   H-Ba, Hf-Rn: F. Weigend, J. Comput. Chem. 29, 167 (2008).

================================================================================
                                        WARNINGS
                       Please study these warnings very carefully!
================================================================================


WARNING: your system is open-shell and RHF/RKS was chosen
  ===> : WILL SWITCH to UHF/UKS


INFO   : the flag for use of LIBINT has been found!

================================================================================
                                       INPUT FILE
================================================================================
NAME = 47_NiO.in
|  1> #
|  2> # 47_NiO tpssh/aug-cc-pvtz
|  3> #
|  4> ! tpssh d3bj aug-cc-pvtz def2/jk grid4 nofinalgrid
|  5> 
|  6> *xyz 0 3
|  7>   Ni  0.00000000000000      0.00000000000000      0.18512940996137
|  8>   O   0.00000000000000      0.00000000000000      1.81487059003863
|  9> *
| 10> 
| 11> %pal
| 12> nprocs 24
| 13> end
| 14> 
| 15> 
| 16>                          ****END OF INPUT****
================================================================================

                       ****************************
                       * Single Point Calculation *
                       ****************************

---------------------------------
CARTESIAN COORDINATES (ANGSTROEM)
---------------------------------
  Ni     0.000000    0.000000    0.185129
  O      0.000000    0.000000    1.814871

----------------------------
CARTESIAN COORDINATES (A.U.)
----------------------------
  NO LB      ZA    FRAG     MASS         X           Y           Z
   0 Ni   28.0000    0    58.700    0.000000    0.000000    0.349844
   1 O     8.0000    0    15.999    0.000000    0.000000    3.429608

--------------------------------
INTERNAL COORDINATES (ANGSTROEM)
--------------------------------
 Ni     0   0   0     0.000000000000     0.00000000     0.00000000
 O      1   0   0     1.629741180077     0.00000000     0.00000000

---------------------------
INTERNAL COORDINATES (A.U.)
---------------------------
 Ni     0   0   0     0.000000000000     0.00000000     0.00000000
 O      1   0   0     3.079764499520     0.00000000     0.00000000

---------------------
BASIS SET INFORMATION
---------------------
There are 2 groups of distinct atoms

 Group   1 Type Ni  : 116s77p23d3f2g contracted to 8s7p5d3f2g pattern {19191919191911/151515151511/77711/111/11}
 Group   2 Type O   : 19s6p3d2f contracted to 5s4p3d2f pattern {88111/3111/111/11}

Atom   0Ni   basis set group =>   1
Atom   1O    basis set group =>   2
----------------------------------
AUXILIARY/JK BASIS SET INFORMATION
----------------------------------
There are 2 groups of distinct atoms

 Group   1 Type Ni  : 19s14p12d10f7g3h1i contracted to 16s13p11d9f5g3h1i pattern {4111111111111111/2111111111111/21111111111/211111111/31111/111/1}
 Group   2 Type O   : 14s10p6d2f1g contracted to 10s8p4d2f1g pattern {5111111111/31111111/3111/11/1}

Atom   0Ni   basis set group =>   1
Atom   1O    basis set group =>   2


           ************************************************************
           *        Program running with 24 parallel MPI-processes    *
           *              working on a common directory               *
           ************************************************************
------------------------------------------------------------------------------
                           ORCA GTO INTEGRAL CALCULATION
------------------------------------------------------------------------------

                         BASIS SET STATISTICS AND STARTUP INFO

 # of primitive gaussian shells          ...  251
 # of primitive gaussian functions       ...  567
 # of contracted shells                  ...   39
 # of contracted basis functions         ...  139
 Highest angular momentum                ...    4
 Maximum contraction depth               ...   19
 Integral package used                   ... LIBINT
 Integral threshhold            Thresh   ...  1.000e-10
 Primitive cut-off              TCut     ...  1.000e-11


------------------------------ INTEGRAL EVALUATION ----------------------------


 * One electron integrals 
 Pre-screening matrix                    ... done
 Shell pair data                         ... done (   0.001 sec)



           ************************************************************
           *        Program running with 24 parallel MPI-processes    *
           *              working on a common directory               *
           ************************************************************
-------------------------------------------------------------------------------
                                 ORCA SCF
-------------------------------------------------------------------------------

------------
SCF SETTINGS
------------
Hamiltonian:
 Density Functional     Method          .... DFT(GTOs)
 Exchange Functional    Exchange        .... TPSS
 Correlation Functional Correlation     .... TPSS
 LDA part of GGA corr.  LDAOpt          .... PW91-LDA
 Gradients option       PostSCFGGA      .... off
 Hybrid DFT is turned on
   Fraction HF Exchange ScalHFX         ....  0.100000
   Scaling of DF-GGA-X  ScalDFX         ....  0.900000
   Scaling of DF-GGA-C  ScalDFC         ....  1.000000
   Scaling of DF-LDA-C  ScalLDAC        ....  1.000000
   Perturbative correction              ....  0.000000
   Density functional embedding theory  .... OFF
   NL short-range parameter             ....  5.200000


General Settings:
 Integral files         IntName         .... 47_NiO
 Hartree-Fock type      HFTyp           .... UHF
 Total Charge           Charge          ....    0
 Multiplicity           Mult            ....    3
 Number of Electrons    NEL             ....   36
 Basis Dimension        Dim             ....  139
 Nuclear Repulsion      ENuc            ....     72.7328339667 Eh

Convergence Acceleration:
 DIIS                   CNVDIIS         .... on
   Start iteration      DIISMaxIt       ....    12
   Startup error        DIISStart       ....  0.200000
   # of expansion vecs  DIISMaxEq       ....     5
   Bias factor          DIISBfac        ....   1.050
   Max. coefficient     DIISMaxC        ....  10.000
 Newton-Raphson         CNVNR           .... off
 SOSCF                  CNVSOSCF        .... off
 Level Shifting         CNVShift        .... on
   Level shift para.    LevelShift      ....    0.2500
   Turn off err/grad.   ShiftErr        ....    0.0010
 Zerner damping         CNVZerner       .... off
 Static damping         CNVDamp         .... on
   Fraction old density DampFac         ....    0.7000
   Max. Damping (<1)    DampMax         ....    0.9800
   Min. Damping (>=0)   DampMin         ....    0.0000
   Turn off err/grad.   DampErr         ....    0.1000
 Fernandez-Rico         CNVRico         .... off

SCF Procedure:
 Maximum # iterations   MaxIter         ....   125
 SCF integral mode      SCFMode         .... Direct
   Integral package                     .... LIBINT
 Reset frequency        DirectResetFreq ....    20
 Integral Threshold     Thresh          ....  1.000e-10 Eh
 Primitive CutOff       TCut            ....  1.000e-11 Eh

Convergence Tolerance:
 Convergence Check Mode ConvCheckMode   .... Total+1el-Energy
 Convergence forced     ConvForced      .... 0
 Energy Change          TolE            ....  1.000e-06 Eh
 1-El. energy change                    ....  1.000e-03 Eh
 DIIS Error             TolErr          ....  1.000e-06


Diagonalization of the overlap matrix:
Smallest eigenvalue                        ... 2.141e-04
Time for diagonalization                   ...    0.004 sec
Threshold for overlap eigenvalues          ... 1.000e-08
Number of eigenvalues below threshold      ... 0
Time for construction of square roots      ...    0.002 sec
Total time needed                          ...    0.007 sec

-------------------
DFT GRID GENERATION
-------------------

General Integration Accuracy     IntAcc      ...  4.670
Radial Grid Type                 RadialGrid  ... Gauss-Chebyshev
Angular Grid (max. acc.)         AngularGrid ... Lebedev-302
Angular grid pruning method      GridPruning ... 3 (G Style)
Weight generation scheme         WeightScheme... Becke
Basis function cutoff            BFCut       ...    1.0000e-10
Integration weight cutoff        WCut        ...    1.0000e-14
Grids for H and He will be reduced by one unit

# of grid points (after initial pruning)     ...  15876 (   0.0 sec)
# of grid points (after weights+screening)   ...  15835 (   0.0 sec)
nearest neighbour list constructed           ...    0.0 sec
Grid point re-assignment to atoms done       ...    0.0 sec
Grid point division into batches done        ...    0.1 sec
Reduced shell lists constructed in    0.1 sec

Total number of grid points                  ...    15835
Total number of batches                      ...      248
Average number of points per batch           ...       63
Average number of grid points per atom       ...     7918
Average number of shells per batch           ...    15.00 (38.46%)
Average number of basis functions per batch  ...    35.00 (25.18%)
Average number of large shells per batch     ...     8.42 (56.11%)
Average number of large basis fcns per batch ...    19.08 (54.52%)
Maximum spatial batch extension              ...  22.45, 22.17, 15.88 au
Average spatial batch extension              ...   0.80,  0.79,  0.61 au

Time for grid setup =    0.156 sec

------------------------------
INITIAL GUESS: MODEL POTENTIAL
------------------------------
Loading Hartree-Fock densities                     ... done
Calculating cut-offs                               ... done
Setting up the integral package                    ... done
Initializing the effective Hamiltonian             ... done
Starting the Coulomb interaction                   ... done (   0.0 sec)
Reading the grid                                   ... done
Mapping shells                                     ... done
Starting the XC term evaluation                    ... done (   0.0 sec)
  promolecular density results
     # of electrons  =     36.000032126
     EX              =    -69.617383597
     EC              =     -1.539420979
     EX+EC           =    -71.156804576
Transforming the Hamiltonian                       ... done (   0.0 sec)
Diagonalizing the Hamiltonian                      ... done (   0.0 sec)
Back transforming the eigenvectors                 ... done (   0.0 sec)
Now organizing SCF variables                       ... done
                      ------------------
                      INITIAL GUESS DONE (   0.3 sec)
                      ------------------
--------------
SCF ITERATIONS
--------------
ITER       Energy         Delta-E        Max-DP      RMS-DP      [F,P]     Damp
               ***  Starting incremental Fock matrix formation  ***
  0  -1583.2607862132   0.000000000000 0.18866450  0.00209546  0.4538737 0.7000
  1  -1583.3471794655  -0.086393252241 0.09923895  0.00128383  0.2045700 0.7000
                               ***Turning on DIIS***
  2  -1583.3852138086  -0.038034343145 0.31171301  0.00314910  0.0726468 0.0000
  3  -1583.4408351134  -0.055621304765 0.04167190  0.00038478  0.2283081 0.7000
  4  -1583.4761355474  -0.035300434020 0.05359107  0.00045895  0.1834239 0.7000
  5  -1583.5073591857  -0.031223638360 0.04901270  0.00041310  0.1320096 0.7000
  6  -1583.5275170076  -0.020157821860 0.13533701  0.00113424  0.0986576 0.0000
  7  -1583.5602896740  -0.032772666358 0.02197462  0.00045365  0.0321196 0.0000
  8  -1583.5635097700  -0.003220096059 0.01401348  0.00015394  0.0261313 0.0000
  9  -1583.5646864968  -0.001176726829 0.01168588  0.00011200  0.0041421 0.0000
 10  -1583.5651094836  -0.000422986715 0.01034004  0.00010998  0.0043128 0.0000
 11  -1583.5654428240  -0.000333340396 0.00777639  0.00007714  0.0024116 0.0000
 12  -1583.5656431421  -0.000200318160 0.00771093  0.00008718  0.0016741 0.0000
 13  -1583.5658335758  -0.000190433635 0.00560677  0.00006762  0.0014941 0.0000
 14  -1583.5659610217  -0.000127445990 0.00463677  0.00005594  0.0015363 0.0000
 15  -1583.5660526618  -0.000091640099 0.00515344  0.00005865  0.0011329 0.0000
 16  -1583.5661322870  -0.000079625139 0.01397364  0.00016191  0.0009696 0.0000
 17  -1583.5662762645  -0.000143977484 0.00282913  0.00003201  0.0005183 0.0000
 18  -1583.5662899860  -0.000013721494 0.00278138  0.00002946  0.0008134 0.0000
 19  -1583.5662995790  -0.000009593066 0.00416491  0.00004212  0.0002943 0.0000
               *** Restarting incremental Fock matrix formation ***
                                   *** Resetting DIIS ***
 20  -1583.5663057858  -0.000006206766 0.00052081  0.00000562  0.0002089 0.0000
 21  -1583.5663048659   0.000000919896 0.00020488  0.00000210  0.0011618 0.0000
 22  -1583.5663058088  -0.000000942867 0.00030142  0.00000291  0.0004210 0.0000
 23  -1583.5663060069  -0.000000198144 0.00012927  0.00000117  0.0001359 0.0000
 24  -1583.5663060639  -0.000000057012 0.00038516  0.00000246  0.0000444 0.0000
 25  -1583.5663061389  -0.000000075017 0.00029260  0.00000185  0.0000300 0.0000
                 **** Energy Check signals convergence ****

               *****************************************************
               *                     SUCCESS                       *
               *           SCF CONVERGED AFTER  26 CYCLES          *
               *****************************************************


----------------
TOTAL SCF ENERGY
----------------

Total Energy       :        -1583.56630617 Eh          -43091.02990 eV

Components:
Nuclear Repulsion  :           72.73283397 Eh            1979.16103 eV
Electronic Energy  :        -1656.29914014 Eh          -45070.19093 eV
One Electron Energy:        -2344.65525182 Eh          -63801.31300 eV
Two Electron Energy:          688.35611168 Eh           18731.12207 eV

Virial components:
Potential Energy   :        -3164.83399944 Eh          -86119.51136 eV
Kinetic Energy     :         1581.26769326 Eh           43028.48146 eV
Virial Ratio       :            2.00145365


DFT components:
N(Alpha)           :       19.000000377618 electrons
N(Beta)            :       17.000002128479 electrons
N(Total)           :       36.000002506097 electrons
E(X)               :      -63.173595462636 Eh       
E(C)               :       -1.556868886261 Eh       
E(XC)              :      -64.730464348897 Eh       
DFET-embed. en.    :        0.000000000000 Eh       

---------------
SCF CONVERGENCE
---------------

  Last Energy change         ...   -3.5735e-08  Tolerance :   1.0000e-06
  Last MAX-Density change    ...    3.2848e-04  Tolerance :   1.0000e-05
  Last RMS-Density change    ...    2.0515e-06  Tolerance :   1.0000e-06
  Last DIIS Error            ...    1.9627e-05  Tolerance :   1.0000e-06

             **** THE GBW FILE WAS UPDATED (47_NiO.gbw) ****
             **** DENSITY FILE WAS UPDATED (47_NiO.scfp) ****
             **** ENERGY FILE WAS UPDATED (47_NiO.en.tmp) ****
----------------------
UHF SPIN CONTAMINATION
----------------------

Warning: in a DFT calculation there is little theoretical justification to 
         calculate <S**2> as in Hartree-Fock theory. We will do it anyways
         but you should keep in mind that the values have only limited relevance

Expectation value of <S**2>     :     2.013706
Ideal value S*(S+1) for S=1.0   :     2.000000
Deviation                       :     0.013706

             **** THE GBW FILE WAS UPDATED (47_NiO.gbw) ****
             **** DENSITY FILE WAS UPDATED (47_NiO.scfp) ****
----------------
ORBITAL ENERGIES
----------------
                 SPIN UP ORBITALS
  NO   OCC          E(Eh)            E(eV) 
   0   1.0000    -299.621380     -8153.1123 
   1   1.0000     -35.643021      -969.8959 
   2   1.0000     -31.054261      -845.0294 
   3   1.0000     -31.030226      -844.3754 
   4   1.0000     -31.030192      -844.3745 
   5   1.0000     -19.069007      -518.8941 
   6   1.0000      -4.024987      -109.5255 
   7   1.0000      -2.649210       -72.0887 
   8   1.0000      -2.593805       -70.5810 
   9   1.0000      -2.593737       -70.5792 
  10   1.0000      -0.894685       -24.3456 
  11   1.0000      -0.368164       -10.0182 
  12   1.0000      -0.367478        -9.9996 
  13   1.0000      -0.367469        -9.9993 
  14   1.0000      -0.274988        -7.4828 
  15   1.0000      -0.274988        -7.4828 
  16   1.0000      -0.260860        -7.0984 
  17   1.0000      -0.260839        -7.0978 
  18   1.0000      -0.235113        -6.3978 
  19   0.0000      -0.121101        -3.2953 
  20   0.0000      -0.008895        -0.2420 
  21   0.0000      -0.008894        -0.2420 
  22   0.0000       0.010694         0.2910 
  23   0.0000       0.017116         0.4658 
  24   0.0000       0.045971         1.2509 
  25   0.0000       0.045973         1.2510 
  26   0.0000       0.073870         2.0101 
  27   0.0000       0.084424         2.2973 
  28   0.0000       0.084424         2.2973 
  29   0.0000       0.088553         2.4096 
  30   0.0000       0.088555         2.4097 
  31   0.0000       0.098235         2.6731 
  32   0.0000       0.125922         3.4265 
  33   0.0000       0.199901         5.4396 
  34   0.0000       0.206705         5.6247 
  35   0.0000       0.206706         5.6248 
  36   0.0000       0.213769         5.8169 
  37   0.0000       0.213770         5.8170 
  38   0.0000       0.277861         7.5610 
  39   0.0000       0.355989         9.6870 
  40   0.0000       0.355990         9.6870 
  41   0.0000       0.361254         9.8302 
  42   0.0000       0.368191        10.0190 
  43   0.0000       0.368193        10.0190 
  44   0.0000       0.538823        14.6621 
  45   0.0000       0.585674        15.9370 
  46   0.0000       0.585679        15.9371 
  47   0.0000       0.645699        17.5704 
  48   0.0000       0.712512        19.3884 
  49   0.0000       0.712524        19.3888 
  50   0.0000       0.729484        19.8503 
  51   0.0000       0.887721        24.1561 
  52   0.0000       0.887722        24.1562 
  53   0.0000       0.944991        25.7145 
  54   0.0000       0.945011        25.7151 
  55   0.0000       1.043379        28.3918 
  56   0.0000       1.107941        30.1486 
  57   0.0000       1.243479        33.8368 
  58   0.0000       1.243479        33.8368 
  59   0.0000       1.317256        35.8444 
  60   0.0000       1.317258        35.8444 
  61   0.0000       1.333932        36.2981 
  62   0.0000       1.333955        36.2988 
  63   0.0000       1.379197        37.5299 
  64   0.0000       1.379197        37.5299 
  65   0.0000       1.408637        38.3310 
  66   0.0000       1.582621        43.0653 
  67   0.0000       1.582623        43.0654 
  68   0.0000       1.797741        48.9190 
  69   0.0000       1.856061        50.5060 
  70   0.0000       1.871890        50.9367 
  71   0.0000       1.871890        50.9367 
  72   0.0000       1.923206        52.3331 
  73   0.0000       1.923230        52.3338 
  74   0.0000       2.133147        58.0459 
  75   0.0000       2.133181        58.0468 
  76   0.0000       2.158001        58.7222 
  77   0.0000       2.158025        58.7228 
  78   0.0000       2.325234        63.2728 
  79   0.0000       2.751386        74.8690 
  80   0.0000       2.751400        74.8694 
  81   0.0000       3.115565        84.7788 
  82   0.0000       3.550813        96.6225 
  83   0.0000       3.800055       103.4048 
  84   0.0000       3.800109       103.4062 
  85   0.0000       3.829251       104.1992 
  86   0.0000       3.829251       104.1992 
  87   0.0000       3.858343       104.9909 
  88   0.0000       3.858346       104.9909 
  89   0.0000       3.896259       106.0226 
  90   0.0000       3.897076       106.0448 
  91   0.0000       3.897119       106.0460 
  92   0.0000       3.982586       108.3717 
  93   0.0000       3.982610       108.3723 
  94   0.0000       4.264078       116.0315 
  95   0.0000       4.604310       125.2896 
  96   0.0000       5.012549       136.3984 
  97   0.0000       5.012549       136.3984 
  98   0.0000       5.027606       136.8081 
  99   0.0000       5.027629       136.8087 
 100   0.0000       5.134027       139.7040 
 101   0.0000       5.134029       139.7040 
 102   0.0000       5.178015       140.9009 
 103   0.0000       5.178038       140.9016 
 104   0.0000       5.426927       147.6742 
 105   0.0000       5.613595       152.7537 
 106   0.0000       5.613599       152.7538 
 107   0.0000       5.981249       162.7581 
 108   0.0000       5.981287       162.7591 
 109   0.0000       6.105959       166.1516 
 110   0.0000       6.105959       166.1516 
 111   0.0000       6.201562       168.7531 
 112   0.0000       6.201579       168.7535 
 113   0.0000       6.460950       175.8114 
 114   0.0000       6.460998       175.8127 
 115   0.0000       6.469775       176.0515 
 116   0.0000       6.533197       177.7773 
 117   0.0000       6.533356       177.7817 
 118   0.0000       6.990007       190.2078 
 119   0.0000       6.990060       190.2092 
 120   0.0000       7.053104       191.9247 
 121   0.0000       7.677739       208.9219 
 122   0.0000      10.843953       295.0790 
 123   0.0000      12.340706       335.8077 
 124   0.0000      12.340712       335.8078 
 125   0.0000      12.357645       336.2686 
 126   0.0000      12.357645       336.2686 
 127   0.0000      12.414008       337.8023 
 128   0.0000      12.414083       337.8044 
 129   0.0000      12.591651       342.6362 
 130   0.0000      13.971148       380.1743 
 131   0.0000      13.971148       380.1743 
 132   0.0000      14.007564       381.1652 
 133   0.0000      14.007644       381.1674 
 134   0.0000      14.032325       381.8390 
 135   0.0000      14.032354       381.8398 
 136   0.0000      14.273132       388.3917 
 137   0.0000      14.273194       388.3933 
 138   0.0000      14.534397       395.5010 

                 SPIN DOWN ORBITALS
  NO   OCC          E(Eh)            E(eV) 
   0   1.0000    -299.620921     -8153.0998 
   1   1.0000     -35.617079      -969.1900 
   2   1.0000     -31.025131      -844.2367 
   3   1.0000     -31.011936      -843.8777 
   4   1.0000     -31.011920      -843.8772 
   5   1.0000     -19.044716      -518.2331 
   6   1.0000      -3.964773      -107.8870 
   7   1.0000      -2.565403       -69.8082 
   8   1.0000      -2.542646       -69.1889 
   9   1.0000      -2.542634       -69.1886 
  10   1.0000      -0.836311       -22.7572 
  11   1.0000      -0.348557        -9.4847 
  12   1.0000      -0.276021        -7.5109 
  13   1.0000      -0.276009        -7.5106 
  14   1.0000      -0.244964        -6.6658 
  15   1.0000      -0.244964        -6.6658 
  16   1.0000      -0.221362        -6.0236 
  17   0.0000      -0.128292        -3.4910 
  18   0.0000      -0.128268        -3.4903 
  19   0.0000      -0.104359        -2.8398 
  20   0.0000      -0.002277        -0.0620 
  21   0.0000      -0.002276        -0.0619 
  22   0.0000       0.012037         0.3275 
  23   0.0000       0.018581         0.5056 
  24   0.0000       0.049125         1.3368 
  25   0.0000       0.049126         1.3368 
  26   0.0000       0.075527         2.0552 
  27   0.0000       0.084645         2.3033 
  28   0.0000       0.084645         2.3033 
  29   0.0000       0.091372         2.4864 
  30   0.0000       0.091374         2.4864 
  31   0.0000       0.100958         2.7472 
  32   0.0000       0.131069         3.5666 
  33   0.0000       0.201295         5.4775 
  34   0.0000       0.210477         5.7274 
  35   0.0000       0.210478         5.7274 
  36   0.0000       0.220838         6.0093 
  37   0.0000       0.220842         6.0094 
  38   0.0000       0.282937         7.6991 
  39   0.0000       0.358405         9.7527 
  40   0.0000       0.358405         9.7527 
  41   0.0000       0.368431        10.0255 
  42   0.0000       0.379729        10.3329 
  43   0.0000       0.379735        10.3331 
  44   0.0000       0.544272        14.8104 
  45   0.0000       0.599813        16.3217 
  46   0.0000       0.599817        16.3218 
  47   0.0000       0.657073        17.8799 
  48   0.0000       0.723638        19.6912 
  49   0.0000       0.723643        19.6913 
  50   0.0000       0.740771        20.1574 
  51   0.0000       0.904055        24.6006 
  52   0.0000       0.904058        24.6007 
  53   0.0000       0.972646        26.4670 
  54   0.0000       0.972674        26.4678 
  55   0.0000       1.057893        28.7867 
  56   0.0000       1.124301        30.5938 
  57   0.0000       1.244357        33.8607 
  58   0.0000       1.244357        33.8607 
  59   0.0000       1.330721        36.2108 
  60   0.0000       1.330724        36.2108 
  61   0.0000       1.372320        37.3427 
  62   0.0000       1.372354        37.3436 
  63   0.0000       1.393500        37.9191 
  64   0.0000       1.393500        37.9191 
  65   0.0000       1.421225        38.6735 
  66   0.0000       1.597162        43.4610 
  67   0.0000       1.597168        43.4611 
  68   0.0000       1.813790        49.3557 
  69   0.0000       1.878416        51.1143 
  70   0.0000       1.898508        51.6610 
  71   0.0000       1.898508        51.6610 
  72   0.0000       1.970253        53.6133 
  73   0.0000       1.970267        53.6137 
  74   0.0000       2.154637        58.6307 
  75   0.0000       2.154641        58.6308 
  76   0.0000       2.175778        59.2059 
  77   0.0000       2.175796        59.2064 
  78   0.0000       2.342339        63.7383 
  79   0.0000       2.771511        75.4167 
  80   0.0000       2.771512        75.4167 
  81   0.0000       3.146476        85.6200 
  82   0.0000       3.584732        97.5455 
  83   0.0000       3.843113       104.5764 
  84   0.0000       3.843113       104.5764 
  85   0.0000       3.854368       104.8827 
  86   0.0000       3.854388       104.8832 
  87   0.0000       3.908205       106.3477 
  88   0.0000       3.908209       106.3478 
  89   0.0000       3.926322       106.8407 
  90   0.0000       3.929210       106.9192 
  91   0.0000       3.929219       106.9195 
  92   0.0000       4.023866       109.4950 
  93   0.0000       4.023877       109.4953 
  94   0.0000       4.298666       116.9726 
  95   0.0000       4.632001       126.0432 
  96   0.0000       5.034386       136.9926 
  97   0.0000       5.034406       136.9932 
  98   0.0000       5.043319       137.2357 
  99   0.0000       5.043319       137.2357 
 100   0.0000       5.169002       140.6557 
 101   0.0000       5.169003       140.6557 
 102   0.0000       5.217201       141.9673 
 103   0.0000       5.217223       141.9679 
 104   0.0000       5.452143       148.3603 
 105   0.0000       5.639004       153.4451 
 106   0.0000       5.639007       153.4452 
 107   0.0000       6.038064       164.3041 
 108   0.0000       6.038072       164.3043 
 109   0.0000       6.161875       167.6731 
 110   0.0000       6.161875       167.6731 
 111   0.0000       6.247720       170.0091 
 112   0.0000       6.247721       170.0091 
 113   0.0000       6.501436       176.9131 
 114   0.0000       6.501461       176.9137 
 115   0.0000       6.507003       177.0646 
 116   0.0000       6.622059       180.1954 
 117   0.0000       6.622201       180.1993 
 118   0.0000       7.045617       191.7210 
 119   0.0000       7.045626       191.7212 
 120   0.0000       7.094563       193.0529 
 121   0.0000       7.711499       209.8406 
 122   0.0000      10.888903       296.3021 
 123   0.0000      12.393164       337.2351 
 124   0.0000      12.393164       337.2351 
 125   0.0000      12.437979       338.4546 
 126   0.0000      12.437983       338.4547 
 127   0.0000      12.486859       339.7847 
 128   0.0000      12.486874       339.7851 
 129   0.0000      12.642283       344.0140 
 130   0.0000      14.033993       381.8844 
 131   0.0000      14.033993       381.8844 
 132   0.0000      14.038406       382.0044 
 133   0.0000      14.038480       382.0065 
 134   0.0000      14.095505       383.5582 
 135   0.0000      14.095522       383.5586 
 136   0.0000      14.327018       389.8580 
 137   0.0000      14.327029       389.8583 
 138   0.0000      14.583244       396.8302 

                    ********************************
                    * MULLIKEN POPULATION ANALYSIS *
                    ********************************

--------------------------------------------
MULLIKEN ATOMIC CHARGES AND SPIN POPULATIONS
--------------------------------------------
   0 Ni:    0.551111    1.096800
   1 O :   -0.551111    0.903200
Sum of atomic charges         :   -0.0000000
Sum of atomic spin populations:    2.0000000

-----------------------------------------------------
MULLIKEN REDUCED ORBITAL CHARGES AND SPIN POPULATIONS
-----------------------------------------------------
CHARGE
  0 Nis       :     6.649046  s :     6.649046
      pz      :     4.037830  p :    12.137215
      px      :     4.049697
      py      :     4.049687
      dz2     :     1.759373  d :     8.646006
      dxz     :     1.444421
      dyz     :     1.444588
      dx2y2   :     1.998812
      dxy     :     1.998812
      f0      :     0.005833  f :     0.015886
      f+1     :     0.004894
      f-1     :     0.004894
      f+2     :     0.000132
      f-2     :     0.000132
      f+3     :     0.000000
      f-3     :     0.000000
      g0      :     0.000248  g :     0.000736
      g+1     :     0.000229
      g-1     :     0.000229
      g+2     :     0.000015
      g-2     :     0.000015
      g+3     :     0.000000
      g-3     :     0.000000
      g+4     :     0.000000
      g-4     :     0.000000
  1 O s       :     3.981646  s :     3.981646
      pz      :     1.560590  p :     4.542933
      px      :     1.491250
      py      :     1.491093
      dz2     :     0.003966  d :     0.021640
      dxz     :     0.008295
      dyz     :     0.008295
      dx2y2   :     0.000542
      dxy     :     0.000542
      f0      :     0.001468  f :     0.004893
      f+1     :     0.001214
      f-1     :     0.001215
      f+2     :     0.000498
      f-2     :     0.000498
      f+3     :     0.000000
      f-3     :     0.000000

SPIN
  0 Nis       :    -0.039135  s :    -0.039135
      pz      :    -0.001069  p :     0.034118
      px      :     0.017593
      py      :     0.017594
      dz2     :     0.020353  d :     1.097211
      dxz     :     0.538711
      dyz     :     0.538544
      dx2y2   :    -0.000199
      dxy     :    -0.000199
      f0      :     0.000448  f :     0.004654
      f+1     :     0.002037
      f-1     :     0.002038
      f+2     :     0.000065
      f-2     :     0.000065
      f+3     :     0.000000
      f-3     :     0.000000
      g0      :    -0.000058  g :    -0.000047
      g+1     :    -0.000010
      g-1     :    -0.000010
      g+2     :     0.000015
      g-2     :     0.000015
      g+3     :     0.000000
      g-3     :     0.000000
      g+4     :     0.000000
      g-4     :     0.000000
  1 O s       :     0.002295  s :     0.002295
      pz      :     0.016893  p :     0.907113
      px      :     0.445027
      py      :     0.445193
      dz2     :     0.000170  d :    -0.005183
      dxz     :    -0.002735
      dyz     :    -0.002735
      dx2y2   :     0.000058
      dxy     :     0.000058
      f0      :     0.000103  f :    -0.001025
      f+1     :    -0.000624
      f-1     :    -0.000624
      f+2     :     0.000060
      f-2     :     0.000060
      f+3     :     0.000000
      f-3     :     0.000000


                     *******************************
                     * LOEWDIN POPULATION ANALYSIS *
                     *******************************

-------------------------------------------
LOEWDIN ATOMIC CHARGES AND SPIN POPULATIONS
-------------------------------------------
   0 Ni:    0.514401    1.183872
   1 O :   -0.514401    0.816128

----------------------------------------------------
LOEWDIN REDUCED ORBITAL CHARGES AND SPIN POPULATIONS
----------------------------------------------------
CHARGE
  0 Nis       :     6.446106  s :     6.446106
      pz      :     4.141370  p :    12.228040
      px      :     4.043343
      py      :     4.043327
      dz2     :     1.854786  d :     8.693572
      dxz     :     1.435209
      dyz     :     1.435358
      dx2y2   :     1.984110
      dxy     :     1.984110
      f0      :     0.053158  f :     0.113853
      f+1     :     0.029712
      f-1     :     0.029709
      f+2     :     0.000637
      f-2     :     0.000637
      f+3     :     0.000000
      f-3     :     0.000000
      g0      :     0.002282  g :     0.004027
      g+1     :     0.000853
      g-1     :     0.000853
      g+2     :     0.000020
      g-2     :     0.000020
      g+3     :     0.000000
      g-3     :     0.000000
      g+4     :     0.000000
      g-4     :     0.000000
  1 O s       :     3.603608  s :     3.603608
      pz      :     1.693195  p :     4.502136
      px      :     1.404539
      py      :     1.404402
      dz2     :     0.135138  d :     0.252318
      dxz     :     0.051297
      dyz     :     0.051301
      dx2y2   :     0.007291
      dxy     :     0.007291
      f0      :     0.070358  f :     0.156339
      f+1     :     0.035047
      f-1     :     0.035050
      f+2     :     0.007942
      f-2     :     0.007942
      f+3     :     0.000000
      f-3     :     0.000000

SPIN
  0 Nis       :    -0.029904  s :    -0.029904
      pz      :    -0.004406  p :     0.092673
      px      :     0.048537
      py      :     0.048542
      dz2     :     0.018450  d :     1.085315
      dxz     :     0.532989
      dyz     :     0.532835
      dx2y2   :     0.000521
      dxy     :     0.000521
      f0      :     0.001654  f :     0.034816
      f+1     :     0.016436
      f-1     :     0.016439
      f+2     :     0.000143
      f-2     :     0.000143
      f+3     :     0.000000
      f-3     :     0.000000
      g0      :    -0.000002  g :     0.000972
      g+1     :     0.000488
      g-1     :     0.000488
      g+2     :    -0.000001
      g-2     :    -0.000001
      g+3     :     0.000000
      g-3     :     0.000000
      g+4     :     0.000000
      g-4     :     0.000000
  1 O s       :     0.006184  s :     0.006184
      pz      :     0.008441  p :     0.778252
      px      :     0.384831
      py      :     0.384981
      dz2     :    -0.000188  d :     0.014067
      dxz     :     0.007551
      dyz     :     0.007548
      dx2y2   :    -0.000422
      dxy     :    -0.000422
      f0      :    -0.000229  f :     0.017624
      f+1     :     0.009170
      f-1     :     0.009167
      f+2     :    -0.000242
      f-2     :    -0.000242
      f+3     :     0.000000
      f-3     :     0.000000


                      *****************************
                      * MAYER POPULATION ANALYSIS *
                      *****************************

  NA   - Mulliken gross atomic population
  ZA   - Total nuclear charge
  QA   - Mulliken gross atomic charge
  VA   - Mayer's total valence
  BVA  - Mayer's bonded valence
  FA   - Mayer's free valence

  ATOM       NA         ZA         QA         VA         BVA        FA
  0 Ni    27.4489    28.0000     0.5511     2.6535     1.9205     0.7331
  1 O      8.5511     8.0000    -0.5511     2.3226     1.9205     0.4022

  Mayer bond orders larger than 0.100000
B(  0-Ni,  1-O ) :   1.9205 

-------
TIMINGS
-------

Total SCF time: 0 days 0 hours 2 min 57 sec 

Total time                  ....     177.766 sec
Sum of individual times     ....     177.383 sec  ( 99.8%)

Fock matrix formation       ....     176.922 sec  ( 99.5%)
  XC integration            ....       0.932 sec  (  0.5% of F)
    Basis function eval.    ....       0.128 sec  ( 13.7% of XC)
    Density eval.           ....       0.139 sec  ( 14.9% of XC)
    XC-Functional eval.     ....       0.037 sec  (  3.9% of XC)
    XC-Potential eval.      ....       0.377 sec  ( 40.4% of XC)
Diagonalization             ....       0.134 sec  (  0.1%)
Density matrix formation    ....       0.017 sec  (  0.0%)
Population analysis         ....       0.006 sec  (  0.0%)
Initial guess               ....       0.099 sec  (  0.1%)
Orbital Transformation      ....       0.000 sec  (  0.0%)
Orbital Orthonormalization  ....       0.000 sec  (  0.0%)
DIIS solution               ....       0.048 sec  (  0.0%)
Grid generation             ....       0.156 sec  (  0.1%)


-------------------------------------------------------------------------------
                          DFT DISPERSION CORRECTION                            
                                                                               
                              DFTD3 V3.1  Rev 1                                
                          USING Becke-Johnson damping                          
-------------------------------------------------------------------------------
The TPSSH functional is recognized
Active option DFTDOPT                   ...         4   

molecular C6(AA) [au] = 345.977259 


            DFT-D V3
 parameters
 s6 scaling factor         :     1.0000 
 a1 scaling factor         :     0.4529 
 s8 scaling factor         :     2.2382 
 a2 scaling factor         :     4.6550 
 ad hoc parameters k1-k3   :    16.0000     1.3333    -4.0000 

 Edisp/kcal,au: -0.428669757370  -0.000683128669 
 E6   /kcal   :  -0.163813430 
 E8   /kcal   :  -0.264856328 
 % E8         :  61.785634078 

-------------------------   ----------------
Dispersion correction           -0.000683129
-------------------------   ----------------


-------------------------   --------------------
FINAL SINGLE POINT ENERGY     -1583.566989303340
-------------------------   --------------------


                            ***************************************
                            *     ORCA property calculations      *
                            ***************************************

                                    ---------------------
                                    Active property flags
                                    ---------------------
   (+) Dipole Moment


------------------------------------------------------------------------------
                       ORCA ELECTRIC PROPERTIES CALCULATION
------------------------------------------------------------------------------

Dipole Moment Calculation                       ... on
Quadrupole Moment Calculation                   ... off
Polarizability Calculation                      ... off
GBWName                                         ... 47_NiO.gbw
Electron density file                           ... 47_NiO.scfp
The origin for moment calculation is the CENTER OF MASS  = ( 0.000000,  0.000000  1.009467)

-------------
DIPOLE MOMENT
-------------
                                X             Y             Z
Electronic contribution:      0.00000       0.00000      -2.70247
Nuclear contribution   :      0.00000       0.00000       0.89170
                        -----------------------------------------
Total Dipole Moment    :      0.00000       0.00000      -1.81077
                        -----------------------------------------
Magnitude (a.u.)       :      1.81077
Magnitude (Debye)      :      4.60260



--------------------
Rotational spectrum 
--------------------
 
Rotational constants in cm-1:     0.000000     0.504828     0.504828 
Rotational constants in MHz :     0.000000 15134.363944 15134.363944 

 Dipole components along the rotational axes: 
x,y,z [a.u.] :    -1.810766     0.000000     0.000000 
x,y,z [Debye]:    -4.602602     0.000000     0.000000 

 

Timings for individual modules:

Sum of individual times         ...      181.344 sec (=   3.022 min)
GTO integral calculation        ...        3.149 sec (=   0.052 min)   1.7 %
SCF iterations                  ...      178.195 sec (=   2.970 min)  98.3 %
                             ****ORCA TERMINATED NORMALLY****
TOTAL RUN TIME: 0 days 0 hours 3 minutes 2 seconds 30 msec
