
                                 *****************
                                 * O   R   C   A *
                                 *****************

           --- An Ab Initio, DFT and Semiempirical electronic structure package ---

                  #######################################################
                  #                        -***-                        #
                  #          Department of theory and spectroscopy      #
                  #               Directorship: Frank Neese             #
                  #        Max Planck Institute fuer Kohlenforschung    #
                  #                Kaiser Wilhelm Platz 1               #
                  #                 D-45470 Muelheim/Ruhr               #
                  #                      Germany                        #
                  #                                                     #
                  #                  All rights reserved                #
                  #                        -***-                        #
                  #######################################################


                         Program Version 4.2.0 -  RELEASE  -


 With contributions from (in alphabetic order):
   Daniel Aravena         : Magnetic Suceptibility
   Michael Atanasov       : Ab Initio Ligand Field Theory (pilot matlab implementation)
   Alexander A. Auer      : GIAO ZORA, VPT2
   Ute Becker             : Parallelization
   Giovanni Bistoni       : ED, misc. LED, open-shell LED, HFLED
   Martin Brehm           : Molecular dynamics
   Dmytro Bykov           : SCF Hessian
   Vijay G. Chilkuri      : MRCI spin determinant printing, contributions to CSF-ICE
   Dipayan Datta          : RHF DLPNO-CCSD density
   Achintya Kumar Dutta   : EOM-CC, STEOM-CC
   Dmitry Ganyushin       : Spin-Orbit,Spin-Spin,Magnetic field MRCI
   Miquel Garcia          : C-PCM Hessian, Gaussian charge scheme
   Yang Guo               : DLPNO-NEVPT2, CIM, IAO-localization
   Andreas Hansen         : Spin unrestricted coupled pair/coupled cluster methods
   Benjamin Helmich-Paris : CASSCF linear response (MC-RPA)
   Lee Huntington         : MR-EOM, pCC
   Robert Izsak           : Overlap fitted RIJCOSX, COSX-SCS-MP3, EOM
   Christian Kollmar      : KDIIS, OOCD, Brueckner-CCSD(T), CCSD density
   Simone Kossmann        : Meta GGA functionals, TD-DFT gradient, OOMP2, MP2 Hessian
   Martin Krupicka        : AUTO-CI
   Lucas Lang             : DCDCAS
   Dagmar Lenk            : GEPOL surface, SMD
   Dimitrios Liakos       : Extrapolation schemes; Compound Job, initial MDCI parallelization
   Dimitrios Manganas     : Further ROCIS development; embedding schemes
   Dimitrios Pantazis     : SARC Basis sets
   Taras Petrenko         : DFT Hessian,TD-DFT gradient, ASA, ECA, R-Raman, ABS, FL, XAS/XES, NRVS
   Peter Pinski           : DLPNO-MP2, DLPNO-MP2 Gradient
   Christoph Reimann      : Effective Core Potentials
   Marius Retegan         : Local ZFS, SOC
   Christoph Riplinger    : Optimizer, TS searches, QM/MM, DLPNO-CCSD(T), (RO)-DLPNO pert. Triples
   Tobias Risthaus        : Range-separated hybrids, TD-DFT gradient, RPA, STAB
   Michael Roemelt        : Original ROCIS implementation
   Masaaki Saitow         : Open-shell DLPNO-CCSD energy and density
   Barbara Sandhoefer     : DKH picture change effects
   Avijit Sen             : IP-ROCIS
   Kantharuban Sivalingam : CASSCF convergence, NEVPT2, FIC-MRCI
   Bernardo de Souza      : ESD, SOC TD-DFT
   Georgi Stoychev        : AutoAux, RI-MP2 NMR
   Willem Van den Heuvel  : Paramagnetic NMR
   Boris Wezisla          : Elementary symmetry handling
   Frank Wennmohs         : Technical directorship


 We gratefully acknowledge several colleagues who have allowed us to
 interface, adapt or use parts of their codes:
   Stefan Grimme, W. Hujo, H. Kruse,             : VdW corrections, initial TS optimization,
                  C. Bannwarth                     DFT functionals, gCP, sTDA/sTD-DF
   Ed Valeev, F. Pavosevic, A. Kumar             : LibInt (2-el integral package), F12 methods
   Garnet Chan, S. Sharma, J. Yang, R. Olivares  : DMRG
   Ulf Ekstrom                                   : XCFun DFT Library
   Mihaly Kallay                                 : mrcc  (arbitrary order and MRCC methods)
   Andreas Klamt, Michael Diedenhofen            : otool_cosmo (COSMO solvation model)
   Jiri Pittner, Ondrej Demel                    : Mk-CCSD
   Frank Weinhold                                : gennbo (NPA and NBO analysis)
   Christopher J. Cramer and Donald G. Truhlar   : smd solvation model
   Lars Goerigk                                  : TD-DFT with DH, B97 family of functionals
   V. Asgeirsson, H. Jonsson                     : NEB implementation
   FAccTs GmbH                                   : IRC, NEB, NEB-TS, Multilevel, MM, QM/MM, CI optimization
   S Lehtola, MJT Oliveira, MAL Marques          : LibXC Library


 Your calculation uses the libint2 library for the computation of 2-el integrals
 For citations please refer to: http://libint.valeyev.net

 Your ORCA version has been built with support for libXC version: 4.2.3
 For citations please refer to: https://tddft.org/programs/libxc/

 This ORCA versions uses:
   CBLAS   interface :  Fast vector & matrix operations
   LAPACKE interface :  Fast linear algebra routines
   SCALAPACK package :  Parallel linear algebra routines


Your calculation utilizes the atom-pairwise dispersion correction
with the Becke-Johnson damping scheme (D3BJ)
Cite in your paper:
S.Grimme, S.Ehrlich, L.Goerigk, J Comput Chem, (2011), 32, 1456–1465 
S.Grimme, J.Antony, S.Ehrlich and H.Krieg, J.Chem.Phys., 132, (2010), 154104 
   

----- Orbital basis set information -----
Your calculation utilizes the basis: aug-cc-pVTZ 
    H, B-Ne : Obtained from the ccRepo (grant-hill.group.shef.ac.uk/ccrepo) Feb. 2017
              R. A. Kendall, T. H. Dunning, Jr., R. J. Harrison, J. Chem. Phys. 96, 6796 (1992)
         He : Obtained from the ccRepo (grant-hill.group.shef.ac.uk/ccrepo) Feb. 2017
              D. E. Woon, T. H. Dunning, Jr., J. Chem. Phys. 100, 2975 (1994)
  Li-Be, Na : Obtained from the ccRepo (grant-hill.group.shef.ac.uk/ccrepo) Feb. 2017
              B. P. Prascher, D. E. Woon, K. A. Peterson, T. H. Dunning, Jr., A. K. Wilson, Theor. Chem. Acc. 128, 69 (2011)
         Mg : Obtained from the Peterson Research Group Website (tyr0.chem.wsu.edu/~kipeters) Feb. 2017
              B. P. Prascher, D. E. Woon, K. A. Peterson, T. H. Dunning, Jr., A. K. Wilson, Theor. Chem. Acc. 128, 69 (2011)
      Al-Ar : Obtained from the ccRepo (grant-hill.group.shef.ac.uk/ccrepo) Feb. 2017
              D. E. Woon, T. H. Dunning, Jr., J. Chem. Phys. 98, 1358 (1993)
      Sc-Zn : Obtained from the ccRepo (grant-hill.group.shef.ac.uk/ccrepo) Feb. 2017
              N. B. Balabanov, K. A. Peterson, J. Chem. Phys. 123, 064107 (2005)
              N. B. Balabanov, K. A. Peterson, J. Chem. Phys. 125, 074110 (2006)
      Ga-Kr : Obtained from the ccRepo (grant-hill.group.shef.ac.uk/ccrepo) Feb. 2017
              A. K. Wilson, D. E. Woon, K. A. Peterson, T. H. Dunning, Jr., J. Chem. Phys. 110, 7667 (1999)
     Ag, Au : Obtained from the Peterson Research Group Website (tyr0.chem.wsu.edu/~kipeters) Feb. 2017
              K. A. Peterson, C. Puzzarini, Theor. Chem. Acc. 114, 283 (2005)

----- AuxJK basis set information -----
Your calculation utilizes the auxiliary basis: def2/JK
   H-Ba, Hf-Rn: F. Weigend, J. Comput. Chem. 29, 167 (2008).

================================================================================
                                        WARNINGS
                       Please study these warnings very carefully!
================================================================================


WARNING: your system is open-shell and RHF/RKS was chosen
  ===> : WILL SWITCH to UHF/UKS


INFO   : the flag for use of LIBINT has been found!

================================================================================
                                       INPUT FILE
================================================================================
NAME = 53_CuO.in
|  1> #
|  2> # 53_CuO tpssh/aug-cc-pvtz
|  3> #
|  4> ! tpssh d3bj aug-cc-pvtz def2/jk grid4 nofinalgrid
|  5> 
|  6> *xyz 0 2
|  7>   Cu  0.00000000000000      0.00000000000000      0.13870993735929
|  8>   O   0.00000000000000      0.00000000000000      1.86129006264071
|  9> *
| 10> 
| 11> %pal
| 12> nprocs 24
| 13> end
| 14> 
| 15> 
| 16>                          ****END OF INPUT****
================================================================================

                       ****************************
                       * Single Point Calculation *
                       ****************************

---------------------------------
CARTESIAN COORDINATES (ANGSTROEM)
---------------------------------
  Cu     0.000000    0.000000    0.138710
  O      0.000000    0.000000    1.861290

----------------------------
CARTESIAN COORDINATES (A.U.)
----------------------------
  NO LB      ZA    FRAG     MASS         X           Y           Z
   0 Cu   29.0000    0    63.550    0.000000    0.000000    0.262124
   1 O     8.0000    0    15.999    0.000000    0.000000    3.517328

--------------------------------
INTERNAL COORDINATES (ANGSTROEM)
--------------------------------
 Cu     0   0   0     0.000000000000     0.00000000     0.00000000
 O      1   0   0     1.722580125281     0.00000000     0.00000000

---------------------------
INTERNAL COORDINATES (A.U.)
---------------------------
 Cu     0   0   0     0.000000000000     0.00000000     0.00000000
 O      1   0   0     3.255204680518     0.00000000     0.00000000

---------------------
BASIS SET INFORMATION
---------------------
There are 2 groups of distinct atoms

 Group   1 Type Cu  : 116s77p23d3f2g contracted to 8s7p5d3f2g pattern {19191919191911/151515151511/77711/111/11}
 Group   2 Type O   : 19s6p3d2f contracted to 5s4p3d2f pattern {88111/3111/111/11}

Atom   0Cu   basis set group =>   1
Atom   1O    basis set group =>   2
----------------------------------
AUXILIARY/JK BASIS SET INFORMATION
----------------------------------
There are 2 groups of distinct atoms

 Group   1 Type Cu  : 19s14p12d10f7g3h1i contracted to 16s13p11d9f5g3h1i pattern {4111111111111111/2111111111111/21111111111/211111111/31111/111/1}
 Group   2 Type O   : 14s10p6d2f1g contracted to 10s8p4d2f1g pattern {5111111111/31111111/3111/11/1}

Atom   0Cu   basis set group =>   1
Atom   1O    basis set group =>   2


           ************************************************************
           *        Program running with 24 parallel MPI-processes    *
           *              working on a common directory               *
           ************************************************************
------------------------------------------------------------------------------
                           ORCA GTO INTEGRAL CALCULATION
------------------------------------------------------------------------------

                         BASIS SET STATISTICS AND STARTUP INFO

 # of primitive gaussian shells          ...  251
 # of primitive gaussian functions       ...  567
 # of contracted shells                  ...   39
 # of contracted basis functions         ...  139
 Highest angular momentum                ...    4
 Maximum contraction depth               ...   19
 Integral package used                   ... LIBINT
 Integral threshhold            Thresh   ...  1.000e-10
 Primitive cut-off              TCut     ...  1.000e-11


------------------------------ INTEGRAL EVALUATION ----------------------------


 * One electron integrals 
 Pre-screening matrix                    ... done
 Shell pair data                         ... done (   0.001 sec)



           ************************************************************
           *        Program running with 24 parallel MPI-processes    *
           *              working on a common directory               *
           ************************************************************
-------------------------------------------------------------------------------
                                 ORCA SCF
-------------------------------------------------------------------------------

------------
SCF SETTINGS
------------
Hamiltonian:
 Density Functional     Method          .... DFT(GTOs)
 Exchange Functional    Exchange        .... TPSS
 Correlation Functional Correlation     .... TPSS
 LDA part of GGA corr.  LDAOpt          .... PW91-LDA
 Gradients option       PostSCFGGA      .... off
 Hybrid DFT is turned on
   Fraction HF Exchange ScalHFX         ....  0.100000
   Scaling of DF-GGA-X  ScalDFX         ....  0.900000
   Scaling of DF-GGA-C  ScalDFC         ....  1.000000
   Scaling of DF-LDA-C  ScalLDAC        ....  1.000000
   Perturbative correction              ....  0.000000
   Density functional embedding theory  .... OFF
   NL short-range parameter             ....  5.200000


General Settings:
 Integral files         IntName         .... 53_CuO
 Hartree-Fock type      HFTyp           .... UHF
 Total Charge           Charge          ....    0
 Multiplicity           Mult            ....    2
 Number of Electrons    NEL             ....   37
 Basis Dimension        Dim             ....  139
 Nuclear Repulsion      ENuc            ....     71.2704799758 Eh

Convergence Acceleration:
 DIIS                   CNVDIIS         .... on
   Start iteration      DIISMaxIt       ....    12
   Startup error        DIISStart       ....  0.200000
   # of expansion vecs  DIISMaxEq       ....     5
   Bias factor          DIISBfac        ....   1.050
   Max. coefficient     DIISMaxC        ....  10.000
 Newton-Raphson         CNVNR           .... off
 SOSCF                  CNVSOSCF        .... off
 Level Shifting         CNVShift        .... on
   Level shift para.    LevelShift      ....    0.2500
   Turn off err/grad.   ShiftErr        ....    0.0010
 Zerner damping         CNVZerner       .... off
 Static damping         CNVDamp         .... on
   Fraction old density DampFac         ....    0.7000
   Max. Damping (<1)    DampMax         ....    0.9800
   Min. Damping (>=0)   DampMin         ....    0.0000
   Turn off err/grad.   DampErr         ....    0.1000
 Fernandez-Rico         CNVRico         .... off

SCF Procedure:
 Maximum # iterations   MaxIter         ....   125
 SCF integral mode      SCFMode         .... Direct
   Integral package                     .... LIBINT
 Reset frequency        DirectResetFreq ....    20
 Integral Threshold     Thresh          ....  1.000e-10 Eh
 Primitive CutOff       TCut            ....  1.000e-11 Eh

Convergence Tolerance:
 Convergence Check Mode ConvCheckMode   .... Total+1el-Energy
 Convergence forced     ConvForced      .... 0
 Energy Change          TolE            ....  1.000e-06 Eh
 1-El. energy change                    ....  1.000e-03 Eh
 DIIS Error             TolErr          ....  1.000e-06


Diagonalization of the overlap matrix:
Smallest eigenvalue                        ... 3.564e-04
Time for diagonalization                   ...    0.004 sec
Threshold for overlap eigenvalues          ... 1.000e-08
Number of eigenvalues below threshold      ... 0
Time for construction of square roots      ...    0.002 sec
Total time needed                          ...    0.007 sec

-------------------
DFT GRID GENERATION
-------------------

General Integration Accuracy     IntAcc      ...  4.670
Radial Grid Type                 RadialGrid  ... Gauss-Chebyshev
Angular Grid (max. acc.)         AngularGrid ... Lebedev-302
Angular grid pruning method      GridPruning ... 3 (G Style)
Weight generation scheme         WeightScheme... Becke
Basis function cutoff            BFCut       ...    1.0000e-10
Integration weight cutoff        WCut        ...    1.0000e-14
Grids for H and He will be reduced by one unit

# of grid points (after initial pruning)     ...  15768 (   0.0 sec)
# of grid points (after weights+screening)   ...  15731 (   0.0 sec)
nearest neighbour list constructed           ...    0.0 sec
Grid point re-assignment to atoms done       ...    0.0 sec
Grid point division into batches done        ...    0.1 sec
Reduced shell lists constructed in    0.1 sec

Total number of grid points                  ...    15731
Total number of batches                      ...      247
Average number of points per batch           ...       63
Average number of grid points per atom       ...     7866
Average number of shells per batch           ...    14.17 (36.32%)
Average number of basis functions per batch  ...    32.17 (23.14%)
Average number of large shells per batch     ...     7.75 (54.71%)
Average number of large basis fcns per batch ...    18.42 (57.25%)
Maximum spatial batch extension              ...  22.45, 22.17, 15.93 au
Average spatial batch extension              ...   0.81,  0.80,  0.61 au

Time for grid setup =    0.158 sec

------------------------------
INITIAL GUESS: MODEL POTENTIAL
------------------------------
Loading Hartree-Fock densities                     ... done
Calculating cut-offs                               ... done
Setting up the integral package                    ... done
Initializing the effective Hamiltonian             ... done
Starting the Coulomb interaction                   ... done (   0.0 sec)
Reading the grid                                   ... done
Mapping shells                                     ... done
Starting the XC term evaluation                    ... done (   0.0 sec)
  promolecular density results
     # of electrons  =     37.000019605
     EX              =    -73.536318498
     EC              =     -1.603849604
     EX+EC           =    -75.140168102
Transforming the Hamiltonian                       ... done (   0.0 sec)
Diagonalizing the Hamiltonian                      ... done (   0.0 sec)
Back transforming the eigenvectors                 ... done (   0.0 sec)
Now organizing SCF variables                       ... done
                      ------------------
                      INITIAL GUESS DONE (   0.3 sec)
                      ------------------
--------------
SCF ITERATIONS
--------------
ITER       Energy         Delta-E        Max-DP      RMS-DP      [F,P]     Damp
               ***  Starting incremental Fock matrix formation  ***
  0  -1715.3055594088   0.000000000000 0.20816165  0.00213888  0.5250971 0.7000
  1  -1715.4487787582  -0.143219349404 0.07049918  0.00102822  0.1321991 0.7000
                               ***Turning on DIIS***
  2  -1715.4733922078  -0.024613449580 0.10576510  0.00096119  0.1685475 0.7000
  3  -1715.5535028234  -0.080110615542 0.21359430  0.00218732  0.0704792 0.0000
  4  -1715.6910355706  -0.137532747250 0.01572861  0.00020819  0.1544420 0.7000
  5  -1715.7018252165  -0.010789645880 0.02023607  0.00023353  0.1243300 0.7000
  6  -1715.7113322440  -0.009507027526 0.06390803  0.00072296  0.0940736 0.0000
  7  -1715.7322748485  -0.020942604536 0.00816701  0.00017446  0.0591321 0.0000
  8  -1715.7339051769  -0.001630328359 0.01672943  0.00030216  0.0371746 0.0000
  9  -1715.7367232959  -0.002818119042 0.01420630  0.00012499  0.0166216 0.0000
 10  -1715.7374017551  -0.000678459162 0.00767961  0.00006848  0.0032463 0.0000
 11  -1715.7375504898  -0.000148734727 0.00458448  0.00004680  0.0051678 0.0000
 12  -1715.7376484443  -0.000097954435 0.00339752  0.00003929  0.0030987 0.0000
 13  -1715.7377133092  -0.000064864939 0.00261631  0.00003367  0.0015220 0.0000
 14  -1715.7377490015  -0.000035692340 0.00178075  0.00002071  0.0010038 0.0000
 15  -1715.7377645500  -0.000015548473 0.00417060  0.00005694  0.0004878 0.0000
 16  -1715.7377924277  -0.000027877728 0.00158175  0.00001833  0.0006403 0.0000
 17  -1715.7377977533  -0.000005325508 0.00060788  0.00000782  0.0005046 0.0000
 18  -1715.7377994934  -0.000001740126 0.00072309  0.00001025  0.0001384 0.0000
 19  -1715.7378011429  -0.000001649486 0.00060883  0.00000896  0.0000270 0.0000
               *** Restarting incremental Fock matrix formation ***
                                   *** Resetting DIIS ***
 20  -1715.7378020881  -0.000000945214 0.00029556  0.00000449  0.0000217 0.0000
                 **** Energy Check signals convergence ****

               *****************************************************
               *                     SUCCESS                       *
               *           SCF CONVERGED AFTER  21 CYCLES          *
               *****************************************************


----------------
TOTAL SCF ENERGY
----------------

Total Energy       :        -1715.73780238 Eh          -46687.59915 eV

Components:
Nuclear Repulsion  :           71.27047998 Eh            1939.36836 eV
Electronic Energy  :        -1787.00828236 Eh          -48626.96751 eV
One Electron Energy:        -2532.22830401 Eh          -68905.43524 eV
Two Electron Energy:          745.22002166 Eh           20278.46773 eV

Virial components:
Potential Energy   :        -3429.05884304 Eh          -93309.43488 eV
Kinetic Energy     :         1713.32104065 Eh           46621.83572 eV
Virial Ratio       :            2.00141057


DFT components:
N(Alpha)           :       19.000008106094 electrons
N(Beta)            :       18.000008408409 electrons
N(Total)           :       37.000016514503 electrons
E(X)               :      -66.707578082417 Eh       
E(C)               :       -1.620697663049 Eh       
E(XC)              :      -68.328275745465 Eh       
DFET-embed. en.    :        0.000000000000 Eh       

---------------
SCF CONVERGENCE
---------------

  Last Energy change         ...   -2.9414e-07  Tolerance :   1.0000e-06
  Last MAX-Density change    ...    8.1558e-05  Tolerance :   1.0000e-05
  Last RMS-Density change    ...    1.0298e-06  Tolerance :   1.0000e-06
  Last DIIS Error            ...    5.4230e-05  Tolerance :   1.0000e-06

             **** THE GBW FILE WAS UPDATED (53_CuO.gbw) ****
             **** DENSITY FILE WAS UPDATED (53_CuO.scfp) ****
             **** ENERGY FILE WAS UPDATED (53_CuO.en.tmp) ****
----------------------
UHF SPIN CONTAMINATION
----------------------

Warning: in a DFT calculation there is little theoretical justification to 
         calculate <S**2> as in Hartree-Fock theory. We will do it anyways
         but you should keep in mind that the values have only limited relevance

Expectation value of <S**2>     :     0.763585
Ideal value S*(S+1) for S=0.5   :     0.750000
Deviation                       :     0.013585

             **** THE GBW FILE WAS UPDATED (53_CuO.gbw) ****
             **** DENSITY FILE WAS UPDATED (53_CuO.scfp) ****
----------------
ORBITAL ENERGIES
----------------
                 SPIN UP ORBITALS
  NO   OCC          E(Eh)            E(eV) 
   0   1.0000    -322.792107     -8783.6198 
   1   1.0000     -38.675308     -1052.4086 
   2   1.0000     -33.852482      -921.1729 
   3   1.0000     -33.851829      -921.1551 
   4   1.0000     -33.845343      -920.9786 
   5   1.0000     -19.064127      -518.7613 
   6   1.0000      -4.297144      -116.9312 
   7   1.0000      -2.796530       -76.0975 
   8   1.0000      -2.788624       -75.8823 
   9   1.0000      -2.776422       -75.5503 
  10   1.0000      -0.885668       -24.1003 
  11   1.0000      -0.359602        -9.7853 
  12   1.0000      -0.353159        -9.6099 
  13   1.0000      -0.321571        -8.7504 
  14   1.0000      -0.286423        -7.7940 
  15   1.0000      -0.286318        -7.7911 
  16   1.0000      -0.272632        -7.4187 
  17   1.0000      -0.244033        -6.6405 
  18   1.0000      -0.233646        -6.3578 
  19   0.0000      -0.119833        -3.2608 
  20   0.0000      -0.009878        -0.2688 
  21   0.0000      -0.005893        -0.1603 
  22   0.0000       0.012840         0.3494 
  23   0.0000       0.017706         0.4818 
  24   0.0000       0.046841         1.2746 
  25   0.0000       0.048780         1.3274 
  26   0.0000       0.081028         2.2049 
  27   0.0000       0.129454         3.5226 
  28   0.0000       0.132903         3.6165 
  29   0.0000       0.132948         3.6177 
  30   0.0000       0.141872         3.8605 
  31   0.0000       0.142443         3.8761 
  32   0.0000       0.149576         4.0702 
  33   0.0000       0.201817         5.4917 
  34   0.0000       0.203641         5.5414 
  35   0.0000       0.203879         5.5478 
  36   0.0000       0.219661         5.9773 
  37   0.0000       0.223501         6.0818 
  38   0.0000       0.283857         7.7241 
  39   0.0000       0.430643        11.7184 
  40   0.0000       0.544886        14.8271 
  41   0.0000       0.545011        14.8305 
  42   0.0000       0.602754        16.4018 
  43   0.0000       0.605035        16.4638 
  44   0.0000       0.605110        16.4659 
  45   0.0000       0.612457        16.6658 
  46   0.0000       0.644582        17.5400 
  47   0.0000       0.672089        18.2885 
  48   0.0000       0.704985        19.1836 
  49   0.0000       0.719736        19.5850 
  50   0.0000       0.766588        20.8599 
  51   0.0000       0.879340        23.9281 
  52   0.0000       0.901121        24.5207 
  53   0.0000       0.959111        26.0987 
  54   0.0000       0.967974        26.3399 
  55   0.0000       1.045171        28.4406 
  56   0.0000       1.140622        31.0379 
  57   0.0000       1.408419        38.3250 
  58   0.0000       1.408422        38.3251 
  59   0.0000       1.430526        38.9266 
  60   0.0000       1.430634        38.9295 
  61   0.0000       1.623557        44.1792 
  62   0.0000       1.639376        44.6097 
  63   0.0000       1.768198        48.1151 
  64   0.0000       1.823758        49.6270 
  65   0.0000       1.870246        50.8920 
  66   0.0000       1.870316        50.8939 
  67   0.0000       1.920611        52.2625 
  68   0.0000       1.924176        52.3595 
  69   0.0000       1.983487        53.9734 
  70   0.0000       2.001450        54.4622 
  71   0.0000       2.009746        54.6880 
  72   0.0000       2.074939        56.4620 
  73   0.0000       2.075053        56.4651 
  74   0.0000       2.107774        57.3554 
  75   0.0000       2.137409        58.1619 
  76   0.0000       2.169706        59.0407 
  77   0.0000       2.169845        59.0445 
  78   0.0000       2.307168        62.7812 
  79   0.0000       2.786544        75.8257 
  80   0.0000       2.806219        76.3611 
  81   0.0000       3.378567        91.9355 
  82   0.0000       3.769348       102.5692 
  83   0.0000       3.802530       103.4721 
  84   0.0000       3.823953       104.0551 
  85   0.0000       4.160644       113.2169 
  86   0.0000       4.241530       115.4179 
  87   0.0000       4.251133       115.6792 
  88   0.0000       4.332603       117.8961 
  89   0.0000       4.332613       117.8964 
  90   0.0000       4.397904       119.6730 
  91   0.0000       4.397937       119.6740 
  92   0.0000       4.538432       123.4970 
  93   0.0000       4.546963       123.7291 
  94   0.0000       4.638542       126.2211 
  95   0.0000       4.937505       134.3563 
  96   0.0000       6.003233       163.3563 
  97   0.0000       6.013635       163.6393 
  98   0.0000       6.013650       163.6397 
  99   0.0000       6.016599       163.7200 
 100   0.0000       6.022293       163.8749 
 101   0.0000       6.043831       164.4610 
 102   0.0000       6.043845       164.4614 
 103   0.0000       6.065942       165.0627 
 104   0.0000       6.087326       165.6446 
 105   0.0000       6.131312       166.8415 
 106   0.0000       6.131529       166.8474 
 107   0.0000       6.260642       170.3607 
 108   0.0000       6.262138       170.4014 
 109   0.0000       6.362114       173.1219 
 110   0.0000       6.400987       174.1797 
 111   0.0000       6.532184       177.7498 
 112   0.0000       6.533618       177.7888 
 113   0.0000       6.696315       182.2160 
 114   0.0000       6.841055       186.1546 
 115   0.0000       6.880322       187.2231 
 116   0.0000       7.133192       194.1040 
 117   0.0000       7.877645       214.3616 
 118   0.0000       7.877654       214.3619 
 119   0.0000       8.119977       220.9558 
 120   0.0000       8.133106       221.3131 
 121   0.0000       9.007497       245.1065 
 122   0.0000      10.946295       297.8638 
 123   0.0000      13.949264       379.5788 
 124   0.0000      13.949265       379.5788 
 125   0.0000      13.979967       380.4142 
 126   0.0000      13.980211       380.4209 
 127   0.0000      14.060005       382.5922 
 128   0.0000      14.072650       382.9363 
 129   0.0000      14.133728       384.5983 
 130   0.0000      16.508959       449.2316 
 131   0.0000      16.508962       449.2317 
 132   0.0000      16.513392       449.3522 
 133   0.0000      16.513430       449.3533 
 134   0.0000      16.538816       450.0441 
 135   0.0000      16.538966       450.0481 
 136   0.0000      16.654672       453.1967 
 137   0.0000      16.665478       453.4907 
 138   0.0000      16.800955       457.1772 

                 SPIN DOWN ORBITALS
  NO   OCC          E(Eh)            E(eV) 
   0   1.0000    -322.792103     -8783.6197 
   1   1.0000     -38.671073     -1052.2934 
   2   1.0000     -33.847582      -921.0395 
   3   1.0000     -33.847371      -921.0338 
   4   1.0000     -33.843852      -920.9380 
   5   1.0000     -19.039744      -518.0978 
   6   1.0000      -4.288027      -116.6831 
   7   1.0000      -2.783504       -75.7430 
   8   1.0000      -2.777023       -75.5666 
   9   1.0000      -2.772819       -75.4523 
  10   1.0000      -0.818622       -22.2758 
  11   1.0000      -0.334858        -9.1119 
  12   1.0000      -0.313418        -8.5285 
  13   1.0000      -0.293417        -7.9843 
  14   1.0000      -0.282268        -7.6809 
  15   1.0000      -0.282226        -7.6798 
  16   1.0000      -0.234588        -6.3835 
  17   1.0000      -0.218414        -5.9434 
  18   0.0000      -0.136383        -3.7112 
  19   0.0000      -0.114853        -3.1253 
  20   0.0000      -0.007629        -0.2076 
  21   0.0000      -0.003027        -0.0824 
  22   0.0000       0.011721         0.3190 
  23   0.0000       0.018423         0.5013 
  24   0.0000       0.047662         1.2969 
  25   0.0000       0.049128         1.3368 
  26   0.0000       0.082584         2.2472 
  27   0.0000       0.129979         3.5369 
  28   0.0000       0.132053         3.5933 
  29   0.0000       0.132211         3.5976 
  30   0.0000       0.142648         3.8816 
  31   0.0000       0.150562         4.0970 
  32   0.0000       0.157139         4.2760 
  33   0.0000       0.202314         5.5052 
  34   0.0000       0.203878         5.5478 
  35   0.0000       0.203892         5.5482 
  36   0.0000       0.219949         5.9851 
  37   0.0000       0.220445         5.9986 
  38   0.0000       0.288811         7.8589 
  39   0.0000       0.435132        11.8405 
  40   0.0000       0.548918        14.9368 
  41   0.0000       0.549526        14.9534 
  42   0.0000       0.610714        16.6184 
  43   0.0000       0.613114        16.6837 
  44   0.0000       0.614010        16.7081 
  45   0.0000       0.615273        16.7424 
  46   0.0000       0.647319        17.6144 
  47   0.0000       0.677933        18.4475 
  48   0.0000       0.722207        19.6523 
  49   0.0000       0.729221        19.8431 
  50   0.0000       0.770254        20.9597 
  51   0.0000       0.906960        24.6796 
  52   0.0000       0.920803        25.0563 
  53   0.0000       0.967687        26.3321 
  54   0.0000       0.970274        26.4025 
  55   0.0000       1.051454        28.6115 
  56   0.0000       1.159251        31.5448 
  57   0.0000       1.405406        38.2430 
  58   0.0000       1.405413        38.2432 
  59   0.0000       1.431878        38.9634 
  60   0.0000       1.432331        38.9757 
  61   0.0000       1.638408        44.5833 
  62   0.0000       1.640605        44.6431 
  63   0.0000       1.786249        48.6063 
  64   0.0000       1.845209        50.2107 
  65   0.0000       1.897400        51.6309 
  66   0.0000       1.897614        51.6367 
  67   0.0000       1.966861        53.5210 
  68   0.0000       1.972675        53.6792 
  69   0.0000       1.991298        54.1860 
  70   0.0000       2.010173        54.6996 
  71   0.0000       2.013362        54.7864 
  72   0.0000       2.081822        56.6493 
  73   0.0000       2.082843        56.6770 
  74   0.0000       2.144350        58.3507 
  75   0.0000       2.146998        58.4228 
  76   0.0000       2.178998        59.2935 
  77   0.0000       2.180672        59.3391 
  78   0.0000       2.319961        63.1294 
  79   0.0000       2.809069        76.4387 
  80   0.0000       2.809507        76.4506 
  81   0.0000       3.406202        92.6875 
  82   0.0000       3.808627       103.6380 
  83   0.0000       3.857492       104.9677 
  84   0.0000       3.874408       105.4280 
  85   0.0000       4.183772       113.8462 
  86   0.0000       4.247308       115.5751 
  87   0.0000       4.252446       115.7149 
  88   0.0000       4.334239       117.9406 
  89   0.0000       4.334243       117.9408 
  90   0.0000       4.403772       119.8327 
  91   0.0000       4.403892       119.8360 
  92   0.0000       4.546837       123.7257 
  93   0.0000       4.548408       123.7685 
  94   0.0000       4.650287       126.5407 
  95   0.0000       4.946967       134.6138 
  96   0.0000       6.026063       163.9775 
  97   0.0000       6.026201       163.9813 
  98   0.0000       6.032328       164.1480 
  99   0.0000       6.034310       164.2019 
 100   0.0000       6.040375       164.3670 
 101   0.0000       6.044698       164.4846 
 102   0.0000       6.044772       164.4866 
 103   0.0000       6.099002       165.9623 
 104   0.0000       6.101010       166.0169 
 105   0.0000       6.182943       168.2464 
 106   0.0000       6.183972       168.2744 
 107   0.0000       6.299752       171.4250 
 108   0.0000       6.302247       171.4929 
 109   0.0000       6.417773       174.6365 
 110   0.0000       6.435129       175.1088 
 111   0.0000       6.634679       180.5388 
 112   0.0000       6.636427       180.5864 
 113   0.0000       6.732182       183.1920 
 114   0.0000       6.913250       188.1191 
 115   0.0000       6.918357       188.2581 
 116   0.0000       7.172393       195.1707 
 117   0.0000       7.881934       214.4783 
 118   0.0000       7.881977       214.4795 
 119   0.0000       8.137406       221.4301 
 120   0.0000       8.138414       221.4575 
 121   0.0000       9.023213       245.5341 
 122   0.0000      10.991533       299.0948 
 123   0.0000      13.954876       379.7315 
 124   0.0000      13.954877       379.7315 
 125   0.0000      13.993496       380.7824 
 126   0.0000      13.993546       380.7837 
 127   0.0000      14.076809       383.0494 
 128   0.0000      14.078096       383.0845 
 129   0.0000      14.142869       384.8470 
 130   0.0000      16.517913       449.4753 
 131   0.0000      16.517914       449.4753 
 132   0.0000      16.518230       449.4839 
 133   0.0000      16.518268       449.4849 
 134   0.0000      16.548175       450.2987 
 135   0.0000      16.548205       450.2995 
 136   0.0000      16.666277       453.5124 
 137   0.0000      16.670885       453.6379 
 138   0.0000      16.809290       457.4040 

                    ********************************
                    * MULLIKEN POPULATION ANALYSIS *
                    ********************************

--------------------------------------------
MULLIKEN ATOMIC CHARGES AND SPIN POPULATIONS
--------------------------------------------
   0 Cu:    0.604972    0.069042
   1 O :   -0.604972    0.930958
Sum of atomic charges         :   -0.0000000
Sum of atomic spin populations:    1.0000000

-----------------------------------------------------
MULLIKEN REDUCED ORBITAL CHARGES AND SPIN POPULATIONS
-----------------------------------------------------
CHARGE
  0 Cus       :     6.565649  s :     6.565649
      pz      :     4.034628  p :    12.137828
      px      :     4.080290
      py      :     4.022910
      dz2     :     1.819238  d :     9.680974
      dxz     :     1.988606
      dyz     :     1.874455
      dx2y2   :     1.999260
      dxy     :     1.999415
      f0      :     0.004398  f :     0.010408
      f+1     :     0.003981
      f-1     :     0.001850
      f+2     :     0.000090
      f-2     :     0.000085
      f+3     :     0.000001
      f-3     :     0.000001
      g0      :     0.000061  g :     0.000168
      g+1     :     0.000061
      g-1     :     0.000041
      g+2     :     0.000002
      g-2     :     0.000001
      g+3     :     0.000000
      g-3     :     0.000000
      g+4     :     0.000000
      g-4     :     0.000000
  1 O s       :     3.996810  s :     3.996810
      pz      :     1.575277  p :     4.589388
      px      :     1.917431
      py      :     1.096679
      dz2     :     0.003023  d :     0.014695
      dxz     :     0.005316
      dyz     :     0.005624
      dx2y2   :     0.000533
      dxy     :     0.000200
      f0      :     0.000695  f :     0.004079
      f+1     :     0.001093
      f-1     :     0.001546
      f+2     :     0.000331
      f-2     :     0.000301
      f+3     :     0.000059
      f-3     :     0.000054

SPIN
  0 Cus       :    -0.078824  s :    -0.078824
      pz      :     0.001074  p :     0.010107
      px      :    -0.010458
      py      :     0.019491
      dz2     :     0.018652  d :     0.135780
      dxz     :     0.000817
      dyz     :     0.116331
      dx2y2   :     0.000076
      dxy     :    -0.000097
      f0      :     0.000219  f :     0.001961
      f+1     :    -0.000072
      f-1     :     0.001799
      f+2     :     0.000007
      f-2     :     0.000008
      f+3     :     0.000000
      f-3     :     0.000000
      g0      :    -0.000001  g :     0.000018
      g+1     :    -0.000000
      g-1     :     0.000017
      g+2     :     0.000001
      g-2     :     0.000001
      g+3     :     0.000000
      g-3     :     0.000000
      g+4     :     0.000000
      g-4     :     0.000000
  1 O s       :     0.000040  s :     0.000040
      pz      :     0.058591  p :     0.931628
      px      :     0.012974
      py      :     0.860063
      dz2     :    -0.000138  d :    -0.000460
      dxz     :    -0.000127
      dyz     :    -0.000471
      dx2y2   :     0.000207
      dxy     :     0.000069
      f0      :     0.000034  f :    -0.000250
      f+1     :    -0.000025
      f-1     :    -0.000441
      f+2     :     0.000057
      f-2     :     0.000023
      f+3     :     0.000052
      f-3     :     0.000051


                     *******************************
                     * LOEWDIN POPULATION ANALYSIS *
                     *******************************

-------------------------------------------
LOEWDIN ATOMIC CHARGES AND SPIN POPULATIONS
-------------------------------------------
   0 Cu:    0.408056    0.139535
   1 O :   -0.408056    0.860465

----------------------------------------------------
LOEWDIN REDUCED ORBITAL CHARGES AND SPIN POPULATIONS
----------------------------------------------------
CHARGE
  0 Cus       :     6.454275  s :     6.454275
      pz      :     4.141830  p :    12.275936
      px      :     4.114452
      py      :     4.019654
      dz2     :     1.928177  d :     9.782472
      dxz     :     2.005446
      dyz     :     1.862712
      dx2y2   :     1.992991
      dxy     :     1.993146
      f0      :     0.037998  f :     0.078120
      f+1     :     0.026150
      f-1     :     0.013513
      f+2     :     0.000232
      f-2     :     0.000226
      f+3     :     0.000001
      f-3     :     0.000001
      g0      :     0.000624  g :     0.001141
      g+1     :     0.000335
      g-1     :     0.000179
      g+2     :     0.000001
      g-2     :     0.000001
      g+3     :     0.000000
      g-3     :     0.000000
      g+4     :     0.000000
      g-4     :     0.000000
  1 O s       :     3.637735  s :     3.637735
      pz      :     1.646023  p :     4.472347
      px      :     1.784396
      py      :     1.041928
      dz2     :     0.104110  d :     0.186183
      dxz     :     0.037389
      dyz     :     0.037746
      dx2y2   :     0.003635
      dxy     :     0.003303
      f0      :     0.049009  f :     0.111791
      f+1     :     0.028611
      f-1     :     0.027373
      f+2     :     0.003358
      f-2     :     0.003327
      f+3     :     0.000059
      f-3     :     0.000054

SPIN
  0 Cus       :    -0.064722  s :    -0.064722
      pz      :    -0.001183  p :     0.031074
      px      :    -0.012482
      py      :     0.044739
      dz2     :     0.017438  d :     0.158758
      dxz     :     0.000689
      dyz     :     0.140409
      dx2y2   :     0.000197
      dxy     :     0.000024
      f0      :     0.001282  f :     0.014235
      f+1     :     0.000151
      f-1     :     0.012778
      f+2     :     0.000012
      f-2     :     0.000012
      f+3     :     0.000000
      f-3     :     0.000000
      g0      :     0.000022  g :     0.000190
      g+1     :     0.000002
      g-1     :     0.000164
      g+2     :     0.000000
      g-2     :     0.000000
      g+3     :     0.000000
      g-3     :     0.000000
      g+4     :     0.000000
      g-4     :     0.000000
  1 O s       :     0.006316  s :     0.006316
      pz      :     0.040425  p :     0.852190
      px      :     0.014749
      py      :     0.797016
      dz2     :    -0.000112  d :     0.000227
      dxz     :    -0.000005
      dyz     :     0.000222
      dx2y2   :     0.000129
      dxy     :    -0.000008
      f0      :     0.000182  f :     0.001732
      f+1     :     0.000004
      f-1     :     0.001460
      f+2     :     0.000009
      f-2     :    -0.000024
      f+3     :     0.000052
      f-3     :     0.000051


                      *****************************
                      * MAYER POPULATION ANALYSIS *
                      *****************************

  NA   - Mulliken gross atomic population
  ZA   - Total nuclear charge
  QA   - Mulliken gross atomic charge
  VA   - Mayer's total valence
  BVA  - Mayer's bonded valence
  FA   - Mayer's free valence

  ATOM       NA         ZA         QA         VA         BVA        FA
  0 Cu    28.3950    29.0000     0.6050     1.1640     1.1196     0.0444
  1 O      8.6050     8.0000    -0.6050     1.8725     1.1196     0.7529

  Mayer bond orders larger than 0.100000
B(  0-Cu,  1-O ) :   1.1196 

-------
TIMINGS
-------

Total SCF time: 0 days 0 hours 2 min 28 sec 

Total time                  ....     148.484 sec
Sum of individual times     ....     148.112 sec  ( 99.7%)

Fock matrix formation       ....     147.692 sec  ( 99.5%)
  XC integration            ....       0.734 sec  (  0.5% of F)
    Basis function eval.    ....       0.099 sec  ( 13.5% of XC)
    Density eval.           ....       0.107 sec  ( 14.6% of XC)
    XC-Functional eval.     ....       0.029 sec  (  3.9% of XC)
    XC-Potential eval.      ....       0.287 sec  ( 39.1% of XC)
Diagonalization             ....       0.106 sec  (  0.1%)
Density matrix formation    ....       0.014 sec  (  0.0%)
Population analysis         ....       0.006 sec  (  0.0%)
Initial guess               ....       0.097 sec  (  0.1%)
Orbital Transformation      ....       0.000 sec  (  0.0%)
Orbital Orthonormalization  ....       0.000 sec  (  0.0%)
DIIS solution               ....       0.040 sec  (  0.0%)
Grid generation             ....       0.158 sec  (  0.1%)


-------------------------------------------------------------------------------
                          DFT DISPERSION CORRECTION                            
                                                                               
                              DFTD3 V3.1  Rev 1                                
                          USING Becke-Johnson damping                          
-------------------------------------------------------------------------------
The TPSSH functional is recognized
Active option DFTDOPT                   ...         4   

molecular C6(AA) [au] = 276.305245 


            DFT-D V3
 parameters
 s6 scaling factor         :     1.0000 
 a1 scaling factor         :     0.4529 
 s8 scaling factor         :     2.2382 
 a2 scaling factor         :     4.6550 
 ad hoc parameters k1-k3   :    16.0000     1.3333    -4.0000 

 Edisp/kcal,au: -0.379371497542  -0.000604566899 
 E6   /kcal   :  -0.145466797 
 E8   /kcal   :  -0.233904700 
 % E8         :  61.655844452 

-------------------------   ----------------
Dispersion correction           -0.000604567
-------------------------   ----------------


-------------------------   --------------------
FINAL SINGLE POINT ENERGY     -1715.738406949126
-------------------------   --------------------


                            ***************************************
                            *     ORCA property calculations      *
                            ***************************************

                                    ---------------------
                                    Active property flags
                                    ---------------------
   (+) Dipole Moment


------------------------------------------------------------------------------
                       ORCA ELECTRIC PROPERTIES CALCULATION
------------------------------------------------------------------------------

Dipole Moment Calculation                       ... on
Quadrupole Moment Calculation                   ... off
Polarizability Calculation                      ... off
GBWName                                         ... 53_CuO.gbw
Electron density file                           ... 53_CuO.scfp
The origin for moment calculation is the CENTER OF MASS  = ( 0.000000,  0.000000  0.916815)

-------------
DIPOLE MOMENT
-------------
                                X             Y             Z
Electronic contribution:     -0.00000      -0.00000      -3.60724
Nuclear contribution   :      0.00000       0.00000       1.81807
                        -----------------------------------------
Total Dipole Moment    :     -0.00000      -0.00000      -1.78917
                        -----------------------------------------
Magnitude (a.u.)       :      1.78917
Magnitude (Debye)      :      4.54771



--------------------
Rotational spectrum 
--------------------
 
Rotational constants in cm-1:     0.000000     0.444492     0.444492 
Rotational constants in MHz :     0.000000 13325.547784 13325.547784 

 Dipole components along the rotational axes: 
x,y,z [a.u.] :    -1.789169    -0.000000    -0.000000 
x,y,z [Debye]:    -4.547707    -0.000000    -0.000000 

 

Timings for individual modules:

Sum of individual times         ...      152.098 sec (=   2.535 min)
GTO integral calculation        ...        3.163 sec (=   0.053 min)   2.1 %
SCF iterations                  ...      148.935 sec (=   2.482 min)  97.9 %
                             ****ORCA TERMINATED NORMALLY****
TOTAL RUN TIME: 0 days 0 hours 2 minutes 32 seconds 757 msec
