
                                 *****************
                                 * O   R   C   A *
                                 *****************

           --- An Ab Initio, DFT and Semiempirical electronic structure package ---

                  #######################################################
                  #                        -***-                        #
                  #          Department of theory and spectroscopy      #
                  #               Directorship: Frank Neese             #
                  #        Max Planck Institute fuer Kohlenforschung    #
                  #                Kaiser Wilhelm Platz 1               #
                  #                 D-45470 Muelheim/Ruhr               #
                  #                      Germany                        #
                  #                                                     #
                  #                  All rights reserved                #
                  #                        -***-                        #
                  #######################################################


                         Program Version 4.2.0 -  RELEASE  -


 With contributions from (in alphabetic order):
   Daniel Aravena         : Magnetic Suceptibility
   Michael Atanasov       : Ab Initio Ligand Field Theory (pilot matlab implementation)
   Alexander A. Auer      : GIAO ZORA, VPT2
   Ute Becker             : Parallelization
   Giovanni Bistoni       : ED, misc. LED, open-shell LED, HFLED
   Martin Brehm           : Molecular dynamics
   Dmytro Bykov           : SCF Hessian
   Vijay G. Chilkuri      : MRCI spin determinant printing, contributions to CSF-ICE
   Dipayan Datta          : RHF DLPNO-CCSD density
   Achintya Kumar Dutta   : EOM-CC, STEOM-CC
   Dmitry Ganyushin       : Spin-Orbit,Spin-Spin,Magnetic field MRCI
   Miquel Garcia          : C-PCM Hessian, Gaussian charge scheme
   Yang Guo               : DLPNO-NEVPT2, CIM, IAO-localization
   Andreas Hansen         : Spin unrestricted coupled pair/coupled cluster methods
   Benjamin Helmich-Paris : CASSCF linear response (MC-RPA)
   Lee Huntington         : MR-EOM, pCC
   Robert Izsak           : Overlap fitted RIJCOSX, COSX-SCS-MP3, EOM
   Christian Kollmar      : KDIIS, OOCD, Brueckner-CCSD(T), CCSD density
   Simone Kossmann        : Meta GGA functionals, TD-DFT gradient, OOMP2, MP2 Hessian
   Martin Krupicka        : AUTO-CI
   Lucas Lang             : DCDCAS
   Dagmar Lenk            : GEPOL surface, SMD
   Dimitrios Liakos       : Extrapolation schemes; Compound Job, initial MDCI parallelization
   Dimitrios Manganas     : Further ROCIS development; embedding schemes
   Dimitrios Pantazis     : SARC Basis sets
   Taras Petrenko         : DFT Hessian,TD-DFT gradient, ASA, ECA, R-Raman, ABS, FL, XAS/XES, NRVS
   Peter Pinski           : DLPNO-MP2, DLPNO-MP2 Gradient
   Christoph Reimann      : Effective Core Potentials
   Marius Retegan         : Local ZFS, SOC
   Christoph Riplinger    : Optimizer, TS searches, QM/MM, DLPNO-CCSD(T), (RO)-DLPNO pert. Triples
   Tobias Risthaus        : Range-separated hybrids, TD-DFT gradient, RPA, STAB
   Michael Roemelt        : Original ROCIS implementation
   Masaaki Saitow         : Open-shell DLPNO-CCSD energy and density
   Barbara Sandhoefer     : DKH picture change effects
   Avijit Sen             : IP-ROCIS
   Kantharuban Sivalingam : CASSCF convergence, NEVPT2, FIC-MRCI
   Bernardo de Souza      : ESD, SOC TD-DFT
   Georgi Stoychev        : AutoAux, RI-MP2 NMR
   Willem Van den Heuvel  : Paramagnetic NMR
   Boris Wezisla          : Elementary symmetry handling
   Frank Wennmohs         : Technical directorship


 We gratefully acknowledge several colleagues who have allowed us to
 interface, adapt or use parts of their codes:
   Stefan Grimme, W. Hujo, H. Kruse,             : VdW corrections, initial TS optimization,
                  C. Bannwarth                     DFT functionals, gCP, sTDA/sTD-DF
   Ed Valeev, F. Pavosevic, A. Kumar             : LibInt (2-el integral package), F12 methods
   Garnet Chan, S. Sharma, J. Yang, R. Olivares  : DMRG
   Ulf Ekstrom                                   : XCFun DFT Library
   Mihaly Kallay                                 : mrcc  (arbitrary order and MRCC methods)
   Andreas Klamt, Michael Diedenhofen            : otool_cosmo (COSMO solvation model)
   Jiri Pittner, Ondrej Demel                    : Mk-CCSD
   Frank Weinhold                                : gennbo (NPA and NBO analysis)
   Christopher J. Cramer and Donald G. Truhlar   : smd solvation model
   Lars Goerigk                                  : TD-DFT with DH, B97 family of functionals
   V. Asgeirsson, H. Jonsson                     : NEB implementation
   FAccTs GmbH                                   : IRC, NEB, NEB-TS, Multilevel, MM, QM/MM, CI optimization
   S Lehtola, MJT Oliveira, MAL Marques          : LibXC Library


 Your calculation uses the libint2 library for the computation of 2-el integrals
 For citations please refer to: http://libint.valeyev.net

 Your ORCA version has been built with support for libXC version: 4.2.3
 For citations please refer to: https://tddft.org/programs/libxc/

 This ORCA versions uses:
   CBLAS   interface :  Fast vector & matrix operations
   LAPACKE interface :  Fast linear algebra routines
   SCALAPACK package :  Parallel linear algebra routines


Your calculation utilizes the DFT-NL dispersion correction.
Cite in your paper:
Vydrov, O. A.; Van Voorhis, T. J. Chem. Phys. 2010, 133, 244103
Hujo, W.; Grimme, S. J. Chem. Theory Comput. 2011, 7, 3866 
   

----- Orbital basis set information -----
Your calculation utilizes the basis: aug-cc-pVTZ 
    H, B-Ne : Obtained from the ccRepo (grant-hill.group.shef.ac.uk/ccrepo) Feb. 2017
              R. A. Kendall, T. H. Dunning, Jr., R. J. Harrison, J. Chem. Phys. 96, 6796 (1992)
         He : Obtained from the ccRepo (grant-hill.group.shef.ac.uk/ccrepo) Feb. 2017
              D. E. Woon, T. H. Dunning, Jr., J. Chem. Phys. 100, 2975 (1994)
  Li-Be, Na : Obtained from the ccRepo (grant-hill.group.shef.ac.uk/ccrepo) Feb. 2017
              B. P. Prascher, D. E. Woon, K. A. Peterson, T. H. Dunning, Jr., A. K. Wilson, Theor. Chem. Acc. 128, 69 (2011)
         Mg : Obtained from the Peterson Research Group Website (tyr0.chem.wsu.edu/~kipeters) Feb. 2017
              B. P. Prascher, D. E. Woon, K. A. Peterson, T. H. Dunning, Jr., A. K. Wilson, Theor. Chem. Acc. 128, 69 (2011)
      Al-Ar : Obtained from the ccRepo (grant-hill.group.shef.ac.uk/ccrepo) Feb. 2017
              D. E. Woon, T. H. Dunning, Jr., J. Chem. Phys. 98, 1358 (1993)
      Sc-Zn : Obtained from the ccRepo (grant-hill.group.shef.ac.uk/ccrepo) Feb. 2017
              N. B. Balabanov, K. A. Peterson, J. Chem. Phys. 123, 064107 (2005)
              N. B. Balabanov, K. A. Peterson, J. Chem. Phys. 125, 074110 (2006)
      Ga-Kr : Obtained from the ccRepo (grant-hill.group.shef.ac.uk/ccrepo) Feb. 2017
              A. K. Wilson, D. E. Woon, K. A. Peterson, T. H. Dunning, Jr., J. Chem. Phys. 110, 7667 (1999)
     Ag, Au : Obtained from the Peterson Research Group Website (tyr0.chem.wsu.edu/~kipeters) Feb. 2017
              K. A. Peterson, C. Puzzarini, Theor. Chem. Acc. 114, 283 (2005)

----- AuxJK basis set information -----
Your calculation utilizes the auxiliary basis: def2/JK
   H-Ba, Hf-Rn: F. Weigend, J. Comput. Chem. 29, 167 (2008).

================================================================================
                                        WARNINGS
                       Please study these warnings very carefully!
================================================================================


WARNING: your system is open-shell and RHF/RKS was chosen
  ===> : WILL SWITCH to UHF/UKS


INFO   : the flag for use of LIBINT has been found!

================================================================================
                                       INPUT FILE
================================================================================
NAME = 05_ScO.in
|  1> #
|  2> # 05_ScO wb97x-v/aug-cc-pvtz
|  3> #
|  4> ! wb97x-v aug-cc-pvtz def2/jk grid4 nofinalgrid
|  5> 
|  6> *xyz 0 2
|  7>   Sc  0.00000000000000      0.00000000000000      0.16492994527036
|  8>   O   0.00000000000000      0.00000000000000      1.83507005472964
|  9> *
| 10> 
| 11> %pal
| 12> nprocs 24
| 13> end
| 14> 
| 15> 
| 16>                          ****END OF INPUT****
================================================================================

                       ****************************
                       * Single Point Calculation *
                       ****************************

---------------------------------
CARTESIAN COORDINATES (ANGSTROEM)
---------------------------------
  Sc     0.000000    0.000000    0.164930
  O      0.000000    0.000000    1.835070

----------------------------
CARTESIAN COORDINATES (A.U.)
----------------------------
  NO LB      ZA    FRAG     MASS         X           Y           Z
   0 Sc   21.0000    0    44.960    0.000000    0.000000    0.311672
   1 O     8.0000    0    15.999    0.000000    0.000000    3.467780

--------------------------------
INTERNAL COORDINATES (ANGSTROEM)
--------------------------------
 Sc     0   0   0     0.000000000000     0.00000000     0.00000000
 O      1   0   0     1.670140109459     0.00000000     0.00000000

---------------------------
INTERNAL COORDINATES (A.U.)
---------------------------
 Sc     0   0   0     0.000000000000     0.00000000     0.00000000
 O      1   0   0     3.156107412155     0.00000000     0.00000000

---------------------
BASIS SET INFORMATION
---------------------
There are 2 groups of distinct atoms

 Group   1 Type Sc  : 116s77p23d3f2g contracted to 8s7p5d3f2g pattern {19191919191911/151515151511/77711/111/11}
 Group   2 Type O   : 19s6p3d2f contracted to 5s4p3d2f pattern {88111/3111/111/11}

Atom   0Sc   basis set group =>   1
Atom   1O    basis set group =>   2
----------------------------------
AUXILIARY/JK BASIS SET INFORMATION
----------------------------------
There are 2 groups of distinct atoms

 Group   1 Type Sc  : 19s14p12d10f7g3h1i contracted to 16s13p11d9f5g3h1i pattern {4111111111111111/2111111111111/21111111111/211111111/31111/111/1}
 Group   2 Type O   : 14s10p6d2f1g contracted to 10s8p4d2f1g pattern {5111111111/31111111/3111/11/1}

Atom   0Sc   basis set group =>   1
Atom   1O    basis set group =>   2


           ************************************************************
           *        Program running with 24 parallel MPI-processes    *
           *              working on a common directory               *
           ************************************************************
------------------------------------------------------------------------------
                           ORCA GTO INTEGRAL CALCULATION
------------------------------------------------------------------------------

                         BASIS SET STATISTICS AND STARTUP INFO

 # of primitive gaussian shells          ...  251
 # of primitive gaussian functions       ...  567
 # of contracted shells                  ...   39
 # of contracted basis functions         ...  139
 Highest angular momentum                ...    4
 Maximum contraction depth               ...   19
 Integral package used                   ... LIBINT
 Integral threshhold            Thresh   ...  1.000e-10
 Primitive cut-off              TCut     ...  1.000e-11


------------------------------ INTEGRAL EVALUATION ----------------------------


 * One electron integrals 
 Pre-screening matrix                    ... done
 Shell pair data                         ... done (   0.001 sec)



           ************************************************************
           *        Program running with 24 parallel MPI-processes    *
           *              working on a common directory               *
           ************************************************************
-------------------------------------------------------------------------------
                                 ORCA SCF
-------------------------------------------------------------------------------

------------
SCF SETTINGS
------------
Hamiltonian:
 Density Functional     Method          .... DFT(GTOs)
 Exchange Functional    Exchange        .... WB97X-V
 Correlation Functional Correlation     .... WB97X-V
 Gradients option       PostSCFGGA      .... off
 Hybrid DFT is turned on
   Fraction HF Exchange ScalHFX         ....  0.167000
   Scaling of DF-GGA-X  ScalDFX         ....  0.000000
   Scaling of DF-GGA-C  ScalDFC         ....  1.000000
   Scaling of DF-LDA-C  ScalLDAC        ....  1.000000
   Perturbative correction              ....  0.000000
   Density functional embedding theory  .... OFF
 Long-range corrected/Screened/Range-Separated Hybrid DFT is turned on
   Amount of maximum screened exact exchange              ....  0.833000
   Range separation parameter mu (erf(mu*r12)/r12)        ....  0.300000
   NL short-range parameter             ....  6.000000
   NL long-range parameter              ....  0.010000


General Settings:
 Integral files         IntName         .... 05_ScO
 Hartree-Fock type      HFTyp           .... UHF
 Total Charge           Charge          ....    0
 Multiplicity           Mult            ....    2
 Number of Electrons    NEL             ....   29
 Basis Dimension        Dim             ....  139
 Nuclear Repulsion      ENuc            ....     53.2301275150 Eh

Convergence Acceleration:
 DIIS                   CNVDIIS         .... on
   Start iteration      DIISMaxIt       ....    12
   Startup error        DIISStart       ....  0.200000
   # of expansion vecs  DIISMaxEq       ....     5
   Bias factor          DIISBfac        ....   1.050
   Max. coefficient     DIISMaxC        ....  10.000
 Newton-Raphson         CNVNR           .... off
 SOSCF                  CNVSOSCF        .... off
 Level Shifting         CNVShift        .... on
   Level shift para.    LevelShift      ....    0.2500
   Turn off err/grad.   ShiftErr        ....    0.0010
 Zerner damping         CNVZerner       .... off
 Static damping         CNVDamp         .... on
   Fraction old density DampFac         ....    0.7000
   Max. Damping (<1)    DampMax         ....    0.9800
   Min. Damping (>=0)   DampMin         ....    0.0000
   Turn off err/grad.   DampErr         ....    0.1000
 Fernandez-Rico         CNVRico         .... off

SCF Procedure:
 Maximum # iterations   MaxIter         ....   125
 SCF integral mode      SCFMode         .... Direct
   Integral package                     .... LIBINT
 Reset frequency        DirectResetFreq ....    20
 Integral Threshold     Thresh          ....  1.000e-10 Eh
 Primitive CutOff       TCut            ....  1.000e-11 Eh

Convergence Tolerance:
 Convergence Check Mode ConvCheckMode   .... Total+1el-Energy
 Convergence forced     ConvForced      .... 0
 Energy Change          TolE            ....  1.000e-06 Eh
 1-El. energy change                    ....  1.000e-03 Eh
 DIIS Error             TolErr          ....  1.000e-06


Diagonalization of the overlap matrix:
Smallest eigenvalue                        ... 5.912e-05
Time for diagonalization                   ...    0.005 sec
Threshold for overlap eigenvalues          ... 1.000e-08
Number of eigenvalues below threshold      ... 0
Time for construction of square roots      ...    0.003 sec
Total time needed                          ...    0.008 sec

-------------------
DFT GRID GENERATION
-------------------

General Integration Accuracy     IntAcc      ...  4.670
Radial Grid Type                 RadialGrid  ... Gauss-Chebyshev
Angular Grid (max. acc.)         AngularGrid ... Lebedev-302
Angular grid pruning method      GridPruning ... 3 (G Style)
Weight generation scheme         WeightScheme... Becke
Basis function cutoff            BFCut       ...    1.0000e-10
Integration weight cutoff        WCut        ...    1.0000e-14
Grids for H and He will be reduced by one unit

# of grid points (after initial pruning)     ...  15876 (   0.0 sec)
# of grid points (after weights+screening)   ...  15826 (   0.0 sec)
nearest neighbour list constructed           ...    0.0 sec
Grid point re-assignment to atoms done       ...    0.0 sec
Grid point division into batches done        ...    0.1 sec
Reduced shell lists constructed in    0.1 sec

Total number of grid points                  ...    15826
Total number of batches                      ...      248
Average number of points per batch           ...       63
Average number of grid points per atom       ...     7913
Average number of shells per batch           ...    20.67 (52.99%)
Average number of basis functions per batch  ...    66.50 (47.84%)
Average number of large shells per batch     ...    13.58 (65.73%)
Average number of large basis fcns per batch ...    45.08 (67.79%)
Maximum spatial batch extension              ...  30.95, 34.02, 18.21 au
Average spatial batch extension              ...   0.97,  1.03,  0.71 au

Time for grid setup =    0.172 sec

------------------------------
INITIAL GUESS: MODEL POTENTIAL
------------------------------
Loading Hartree-Fock densities                     ... done
Calculating cut-offs                               ... done
Setting up the integral package                    ... done
Initializing the effective Hamiltonian             ... done
Starting the Coulomb interaction                   ... done (   0.0 sec)
Reading the grid                                   ... done
Mapping shells                                     ... done
Starting the XC term evaluation                    ... done (   0.0 sec)
  promolecular density results
     # of electrons  =     29.000005899
     EX              =    -34.325386016
     EC              =     -1.488626640
     EX+EC           =    -35.814012656
Transforming the Hamiltonian                       ... done (   0.0 sec)
Diagonalizing the Hamiltonian                      ... done (   0.0 sec)
Back transforming the eigenvectors                 ... done (   0.0 sec)
Now organizing SCF variables                       ... done
                      ------------------
                      INITIAL GUESS DONE (   0.3 sec)
                      ------------------
--------------
SCF ITERATIONS
--------------
ITER       Energy         Delta-E        Max-DP      RMS-DP      [F,P]     Damp
               ***  Starting incremental Fock matrix formation  ***
  0   -835.7310298219   0.000000000000 0.32513599  0.00694150  0.3073311 0.7000
  1   -835.8323337109  -0.101303889028 0.13853057  0.00256052  0.1116766 0.7000
                               ***Turning on DIIS***
  2   -835.8593808275  -0.027047116589 0.18202374  0.00472150  0.0833691 0.0000
  3   -835.9489089826  -0.089528155099 0.04764082  0.00108058  0.0230516 0.0000
  4   -835.9512511248  -0.002342142158 0.06570932  0.00088322  0.0196591 0.0000
  5   -835.9524972397  -0.001246114959 0.03632133  0.00030827  0.0071877 0.0000
  6   -835.9531336858  -0.000636446065 0.03201186  0.00026186  0.0048878 0.0000
  7   -835.9534997871  -0.000366101269 0.02652645  0.00021535  0.0030517 0.0000
  8   -835.9536644560  -0.000164668971 0.01629043  0.00012946  0.0018019 0.0000
  9   -835.9537208760  -0.000056419926 0.00999273  0.00008094  0.0010225 0.0000
 10   -835.9537427987  -0.000021922771 0.01145833  0.00009381  0.0006425 0.0000
 11   -835.9537557568  -0.000012958104 0.00363552  0.00003114  0.0004876 0.0000
 12   -835.9537583148  -0.000002557938 0.00176762  0.00001597  0.0002338 0.0000
 13   -835.9537592128  -0.000000898046 0.00101546  0.00000921  0.0000831 0.0000
                 **** Energy Check signals convergence ****

               *****************************************************
               *                     SUCCESS                       *
               *           SCF CONVERGED AFTER  14 CYCLES          *
               *****************************************************


Setting up the DFT-NL grid :

General Integration Accuracy     IntAcc      ...  4.340
Radial Grid Type                 RadialGrid  ... Gauss-Chebyshev
Angular Grid (max. acc.)         AngularGrid ... Lebedev-110
Angular grid pruning method      GridPruning ... 3 (G Style)
Weight generation scheme         WeightScheme... Becke
Basis function cutoff            BFCut       ...    1.0000e-10
Integration weight cutoff        WCut        ...    1.0000e-14
Grids for H and He will be reduced by one unit

# of grid points (after initial pruning)     ...   4688 (   0.0 sec)
# of grid points (after weights+screening)   ...   4661 (   0.0 sec)
nearest neighbour list constructed           ...    0.0 sec
Grid point re-assignment to atoms done       ...    0.0 sec
Grid point division into batches done        ...    0.0 sec
Reduced shell lists constructed in    0.0 sec

Total number of grid points                  ...     4661
Total number of batches                      ...       74
Average number of points per batch           ...       62
Average number of grid points per atom       ...     2330
Average number of shells per batch           ...    23.20 (59.49%)
Average number of basis functions per batch  ...    79.20 (56.98%)
Average number of large shells per batch     ...    18.60 (80.17%)
Average number of large basis fcns per batch ...    65.40 (82.58%)
Maximum spatial batch extension              ...  21.18, 31.13, 17.09 au
Average spatial batch extension              ...   1.09,  1.42,  0.92 au

Final grid set up in    0.0 sec

-------------------------------------------------------------------------------
                         DFT-NL dispersion correction                          
-------------------------------------------------------------------------------

SC Energy -835.953759439 
NL    Energy 0.121286000 
SC+NL Energy -835.832473439 
NL done in    0.0 sec
-------------------------------------------------------------------------------

----------------
TOTAL SCF ENERGY
----------------

Total Energy       :         -835.83247344 Eh          -22744.15789 eV

Components:
Nuclear Repulsion  :           53.23012751 Eh            1448.46541 eV
Electronic Energy  :         -889.06260095 Eh          -24192.62330 eV
One Electron Energy:        -1251.44010248 Eh          -34053.41643 eV
Two Electron Energy:          362.37750153 Eh            9860.79313 eV

Virial components:
Potential Energy   :        -1670.17209864 Eh          -45447.69332 eV
Kinetic Energy     :          834.33962520 Eh           22703.53543 eV
Virial Ratio       :            2.00178926


DFT components:
N(Alpha)           :       14.999995839238 electrons
N(Beta)            :       13.999995881375 electrons
N(Total)           :       28.999991720614 electrons
E(X)               :      -34.490854893974 Eh       
E(C)               :       -1.495188446920 Eh       
NL Energy, E(C,NL) :        0.121286000400 Eh       
E(XC)              :      -35.864757340494 Eh       
DFET-embed. en.    :        0.000000000000 Eh       

---------------
SCF CONVERGENCE
---------------

  Last Energy change         ...   -2.2646e-07  Tolerance :   1.0000e-06
  Last MAX-Density change    ...    1.6227e-04  Tolerance :   1.0000e-05
  Last RMS-Density change    ...    2.0839e-06  Tolerance :   1.0000e-06
  Last DIIS Error            ...    2.2245e-05  Tolerance :   1.0000e-06

             **** THE GBW FILE WAS UPDATED (05_ScO.gbw) ****
             **** DENSITY FILE WAS UPDATED (05_ScO.scfp) ****
             **** ENERGY FILE WAS UPDATED (05_ScO.en.tmp) ****
----------------------
UHF SPIN CONTAMINATION
----------------------

Warning: in a DFT calculation there is little theoretical justification to 
         calculate <S**2> as in Hartree-Fock theory. We will do it anyways
         but you should keep in mind that the values have only limited relevance

Expectation value of <S**2>     :     0.750986
Ideal value S*(S+1) for S=0.5   :     0.750000
Deviation                       :     0.000986

             **** THE GBW FILE WAS UPDATED (05_ScO.gbw) ****
             **** DENSITY FILE WAS UPDATED (05_ScO.scfp) ****
----------------
ORBITAL ENERGIES
----------------
                 SPIN UP ORBITALS
  NO   OCC          E(Eh)            E(eV) 
   0   1.0000    -161.665721     -4399.1479 
   1   1.0000     -19.157735      -521.3085 
   2   1.0000     -17.706859      -481.8281 
   3   1.0000     -14.626486      -398.0069 
   4   1.0000     -14.626486      -398.0069 
   5   1.0000     -14.618328      -397.7849 
   6   1.0000      -2.235034       -60.8184 
   7   1.0000      -1.437232       -39.1091 
   8   1.0000      -1.422824       -38.7170 
   9   1.0000      -1.422824       -38.7170 
  10   1.0000      -0.941361       -25.6157 
  11   1.0000      -0.394163       -10.7257 
  12   1.0000      -0.394163       -10.7257 
  13   1.0000      -0.388175       -10.5628 
  14   1.0000      -0.238902        -6.5009 
  15   0.0000      -0.002294        -0.0624 
  16   0.0000      -0.002294        -0.0624 
  17   0.0000       0.012545         0.3414 
  18   0.0000       0.022479         0.6117 
  19   0.0000       0.026691         0.7263 
  20   0.0000       0.026691         0.7263 
  21   0.0000       0.033413         0.9092 
  22   0.0000       0.033413         0.9092 
  23   0.0000       0.039973         1.0877 
  24   0.0000       0.040705         1.1076 
  25   0.0000       0.040705         1.1076 
  26   0.0000       0.042472         1.1557 
  27   0.0000       0.042472         1.1557 
  28   0.0000       0.048968         1.3325 
  29   0.0000       0.103492         2.8162 
  30   0.0000       0.103492         2.8162 
  31   0.0000       0.109659         2.9840 
  32   0.0000       0.121939         3.3181 
  33   0.0000       0.136864         3.7243 
  34   0.0000       0.136864         3.7243 
  35   0.0000       0.137764         3.7488 
  36   0.0000       0.137764         3.7488 
  37   0.0000       0.149274         4.0619 
  38   0.0000       0.151091         4.1114 
  39   0.0000       0.151091         4.1114 
  40   0.0000       0.160413         4.3651 
  41   0.0000       0.160413         4.3651 
  42   0.0000       0.165748         4.5102 
  43   0.0000       0.169767         4.6196 
  44   0.0000       0.169767         4.6196 
  45   0.0000       0.187100         5.0913 
  46   0.0000       0.187100         5.0913 
  47   0.0000       0.284546         7.7429 
  48   0.0000       0.318405         8.6642 
  49   0.0000       0.318405         8.6642 
  50   0.0000       0.343751         9.3539 
  51   0.0000       0.413657        11.2562 
  52   0.0000       0.430502        11.7145 
  53   0.0000       0.430502        11.7145 
  54   0.0000       0.439690        11.9646 
  55   0.0000       0.446855        12.1596 
  56   0.0000       0.446855        12.1596 
  57   0.0000       0.454266        12.3612 
  58   0.0000       0.454267        12.3612 
  59   0.0000       0.463538        12.6135 
  60   0.0000       0.463538        12.6135 
  61   0.0000       0.468365        12.7448 
  62   0.0000       0.469429        12.7738 
  63   0.0000       0.469429        12.7738 
  64   0.0000       0.474538        12.9128 
  65   0.0000       0.474538        12.9128 
  66   0.0000       0.555909        15.1270 
  67   0.0000       0.555909        15.1270 
  68   0.0000       0.584973        15.9179 
  69   0.0000       0.584974        15.9179 
  70   0.0000       0.597580        16.2610 
  71   0.0000       0.597580        16.2610 
  72   0.0000       0.641638        17.4599 
  73   0.0000       0.770300        20.9609 
  74   0.0000       0.781862        21.2755 
  75   0.0000       0.781862        21.2755 
  76   0.0000       0.903445        24.5840 
  77   0.0000       0.903445        24.5840 
  78   0.0000       0.915955        24.9244 
  79   0.0000       0.956728        26.0339 
  80   0.0000       0.956729        26.0339 
  81   0.0000       1.134883        30.8817 
  82   0.0000       1.281970        34.8842 
  83   0.0000       1.281970        34.8842 
  84   0.0000       1.408199        38.3191 
  85   0.0000       1.435224        39.0544 
  86   0.0000       1.435225        39.0545 
  87   0.0000       1.633985        44.4630 
  88   0.0000       1.633985        44.4630 
  89   0.0000       1.653142        44.9843 
  90   0.0000       1.729874        47.0723 
  91   0.0000       1.737440        47.2782 
  92   0.0000       1.737440        47.2782 
  93   0.0000       1.814610        49.3780 
  94   0.0000       1.814614        49.3781 
  95   0.0000       1.840417        50.0803 
  96   0.0000       1.840417        50.0803 
  97   0.0000       1.902068        51.7579 
  98   0.0000       1.902070        51.7580 
  99   0.0000       1.925825        52.4044 
 100   0.0000       1.925825        52.4044 
 101   0.0000       2.019542        54.9545 
 102   0.0000       2.046187        55.6796 
 103   0.0000       2.063560        56.1523 
 104   0.0000       2.063560        56.1523 
 105   0.0000       2.097421        57.0737 
 106   0.0000       2.097421        57.0737 
 107   0.0000       2.134236        58.0755 
 108   0.0000       2.134236        58.0755 
 109   0.0000       2.171277        59.0834 
 110   0.0000       2.171277        59.0834 
 111   0.0000       2.293493        62.4091 
 112   0.0000       2.293498        62.4093 
 113   0.0000       2.324516        63.2533 
 114   0.0000       2.501055        68.0572 
 115   0.0000       2.544658        69.2437 
 116   0.0000       2.544658        69.2437 
 117   0.0000       2.671926        72.7068 
 118   0.0000       2.671936        72.7071 
 119   0.0000       2.840870        77.3040 
 120   0.0000       3.328252        90.5663 
 121   0.0000       3.328252        90.5663 
 122   0.0000       3.655226        99.4638 
 123   0.0000       4.281083       116.4942 
 124   0.0000       4.281083       116.4942 
 125   0.0000       5.077145       138.1561 
 126   0.0000       6.256218       170.2404 
 127   0.0000       6.256218       170.2404 
 128   0.0000       6.365027       173.2012 
 129   0.0000       6.365065       173.2022 
 130   0.0000       6.471766       176.1057 
 131   0.0000       6.471766       176.1057 
 132   0.0000       6.612359       179.9314 
 133   0.0000       6.806590       185.2167 
 134   0.0000       6.806629       185.2178 
 135   0.0000       6.976477       189.8396 
 136   0.0000       6.976477       189.8396 
 137   0.0000       7.186548       195.5559 
 138   0.0000      11.506469       313.1069 

                 SPIN DOWN ORBITALS
  NO   OCC          E(Eh)            E(eV) 
   0   1.0000    -161.664744     -4399.1213 
   1   1.0000     -19.158276      -521.3232 
   2   1.0000     -17.705214      -481.7834 
   3   1.0000     -14.625370      -397.9766 
   4   1.0000     -14.625370      -397.9766 
   5   1.0000     -14.616668      -397.7397 
   6   1.0000      -2.230080       -60.6836 
   7   1.0000      -1.430277       -38.9198 
   8   1.0000      -1.419576       -38.6286 
   9   1.0000      -1.419576       -38.6286 
  10   1.0000      -0.942295       -25.6412 
  11   1.0000      -0.394966       -10.7476 
  12   1.0000      -0.394966       -10.7476 
  13   1.0000      -0.388921       -10.5831 
  14   0.0000      -0.009861        -0.2683 
  15   0.0000       0.023865         0.6494 
  16   0.0000       0.023865         0.6494 
  17   0.0000       0.026461         0.7200 
  18   0.0000       0.032121         0.8741 
  19   0.0000       0.038597         1.0503 
  20   0.0000       0.038598         1.0503 
  21   0.0000       0.044884         1.2214 
  22   0.0000       0.044885         1.2214 
  23   0.0000       0.046035         1.2527 
  24   0.0000       0.048534         1.3207 
  25   0.0000       0.048534         1.3207 
  26   0.0000       0.061964         1.6861 
  27   0.0000       0.061964         1.6861 
  28   0.0000       0.074020         2.0142 
  29   0.0000       0.112584         3.0636 
  30   0.0000       0.112584         3.0636 
  31   0.0000       0.119423         3.2497 
  32   0.0000       0.144231         3.9247 
  33   0.0000       0.151146         4.1129 
  34   0.0000       0.151146         4.1129 
  35   0.0000       0.161403         4.3920 
  36   0.0000       0.161404         4.3920 
  37   0.0000       0.173554         4.7226 
  38   0.0000       0.174549         4.7497 
  39   0.0000       0.174549         4.7497 
  40   0.0000       0.179752         4.8913 
  41   0.0000       0.182562         4.9678 
  42   0.0000       0.182563         4.9678 
  43   0.0000       0.186416         5.0726 
  44   0.0000       0.186418         5.0727 
  45   0.0000       0.208975         5.6865 
  46   0.0000       0.208975         5.6865 
  47   0.0000       0.290825         7.9138 
  48   0.0000       0.322589         8.7781 
  49   0.0000       0.322589         8.7781 
  50   0.0000       0.348568         9.4850 
  51   0.0000       0.437967        11.9177 
  52   0.0000       0.453418        12.3381 
  53   0.0000       0.453418        12.3381 
  54   0.0000       0.462815        12.5938 
  55   0.0000       0.469172        12.7668 
  56   0.0000       0.469172        12.7668 
  57   0.0000       0.483867        13.1667 
  58   0.0000       0.483868        13.1667 
  59   0.0000       0.493202        13.4207 
  60   0.0000       0.493208        13.4209 
  61   0.0000       0.498028        13.5520 
  62   0.0000       0.498028        13.5520 
  63   0.0000       0.501568        13.6484 
  64   0.0000       0.505046        13.7430 
  65   0.0000       0.505046        13.7430 
  66   0.0000       0.575576        15.6622 
  67   0.0000       0.575576        15.6622 
  68   0.0000       0.600552        16.3418 
  69   0.0000       0.600552        16.3418 
  70   0.0000       0.617342        16.7987 
  71   0.0000       0.617342        16.7987 
  72   0.0000       0.651869        17.7383 
  73   0.0000       0.780131        21.2284 
  74   0.0000       0.793754        21.5991 
  75   0.0000       0.793754        21.5991 
  76   0.0000       0.906193        24.6588 
  77   0.0000       0.906193        24.6588 
  78   0.0000       0.919609        25.0238 
  79   0.0000       0.961868        26.1738 
  80   0.0000       0.961869        26.1738 
  81   0.0000       1.142443        31.0875 
  82   0.0000       1.288954        35.0742 
  83   0.0000       1.288954        35.0742 
  84   0.0000       1.412683        38.4411 
  85   0.0000       1.441773        39.2326 
  86   0.0000       1.441774        39.2327 
  87   0.0000       1.638879        44.5962 
  88   0.0000       1.638879        44.5962 
  89   0.0000       1.661709        45.2174 
  90   0.0000       1.742783        47.4235 
  91   0.0000       1.746106        47.5140 
  92   0.0000       1.746106        47.5140 
  93   0.0000       1.816465        49.4285 
  94   0.0000       1.816469        49.4286 
  95   0.0000       1.844009        50.1780 
  96   0.0000       1.844009        50.1780 
  97   0.0000       1.905863        51.8612 
  98   0.0000       1.905869        51.8613 
  99   0.0000       1.932862        52.5958 
 100   0.0000       1.932862        52.5958 
 101   0.0000       2.022631        55.0386 
 102   0.0000       2.049967        55.7824 
 103   0.0000       2.067290        56.2538 
 104   0.0000       2.067290        56.2538 
 105   0.0000       2.102430        57.2100 
 106   0.0000       2.102433        57.2101 
 107   0.0000       2.139584        58.2210 
 108   0.0000       2.139584        58.2210 
 109   0.0000       2.173793        59.1519 
 110   0.0000       2.173793        59.1519 
 111   0.0000       2.294250        62.4297 
 112   0.0000       2.294254        62.4298 
 113   0.0000       2.329608        63.3919 
 114   0.0000       2.502454        68.0952 
 115   0.0000       2.545291        69.2609 
 116   0.0000       2.545291        69.2609 
 117   0.0000       2.673104        72.7389 
 118   0.0000       2.673115        72.7392 
 119   0.0000       2.843058        77.3635 
 120   0.0000       3.330326        90.6228 
 121   0.0000       3.330326        90.6228 
 122   0.0000       3.656495        99.4983 
 123   0.0000       4.280697       116.4837 
 124   0.0000       4.280697       116.4837 
 125   0.0000       5.077454       138.1645 
 126   0.0000       6.255397       170.2180 
 127   0.0000       6.255397       170.2180 
 128   0.0000       6.364066       173.1750 
 129   0.0000       6.364104       173.1761 
 130   0.0000       6.470697       176.0766 
 131   0.0000       6.470697       176.0766 
 132   0.0000       6.611444       179.9065 
 133   0.0000       6.805293       185.1814 
 134   0.0000       6.805333       185.1825 
 135   0.0000       6.974784       189.7935 
 136   0.0000       6.974784       189.7935 
 137   0.0000       7.184912       195.5114 
 138   0.0000      11.506807       313.1161 

                    ********************************
                    * MULLIKEN POPULATION ANALYSIS *
                    ********************************

--------------------------------------------
MULLIKEN ATOMIC CHARGES AND SPIN POPULATIONS
--------------------------------------------
   0 Sc:    0.847870    1.000508
   1 O :   -0.847870   -0.000508
Sum of atomic charges         :   -0.0000000
Sum of atomic spin populations:    1.0000000

-----------------------------------------------------
MULLIKEN REDUCED ORBITAL CHARGES AND SPIN POPULATIONS
-----------------------------------------------------
CHARGE
  0 Scs       :     6.830047  s :     6.830047
      pz      :     4.140213  p :    12.150444
      px      :     4.005115
      py      :     4.005115
      dz2     :     0.559693  d :     1.154177
      dxz     :     0.297242
      dyz     :     0.297242
      dx2y2   :     0.000000
      dxy     :     0.000000
      f0      :     0.009428  f :     0.018352
      f+1     :     0.004462
      f-1     :     0.004462
      f+2     :     0.000000
      f-2     :     0.000000
      f+3     :     0.000000
      f-3     :     0.000000
      g0      :     0.000369  g :    -0.000890
      g+1     :    -0.000629
      g-1     :    -0.000629
      g+2     :     0.000000
      g-2     :     0.000000
      g+3     :     0.000000
      g-3     :     0.000000
      g+4     :     0.000000
      g-4     :     0.000000
  1 O s       :     3.941658  s :     3.941658
      pz      :     1.509066  p :     4.862104
      px      :     1.676519
      py      :     1.676519
      dz2     :     0.008154  d :     0.038313
      dxz     :     0.015079
      dyz     :     0.015079
      dx2y2   :     0.000000
      dxy     :     0.000000
      f0      :     0.001371  f :     0.005796
      f+1     :     0.002212
      f-1     :     0.002212
      f+2     :    -0.000000
      f-2     :    -0.000000
      f+3     :     0.000000
      f-3     :     0.000000

SPIN
  0 Scs       :     0.790110  s :     0.790110
      pz      :     0.143847  p :     0.144927
      px      :     0.000540
      py      :     0.000540
      dz2     :     0.061236  d :     0.068762
      dxz     :     0.003763
      dyz     :     0.003763
      dx2y2   :     0.000000
      dxy     :     0.000000
      f0      :    -0.000165  f :    -0.003079
      f+1     :    -0.001457
      f-1     :    -0.001457
      f+2     :    -0.000000
      f-2     :    -0.000000
      f+3     :    -0.000000
      f-3     :    -0.000000
      g0      :     0.000106  g :    -0.000212
      g+1     :    -0.000159
      g-1     :    -0.000159
      g+2     :    -0.000000
      g-2     :    -0.000000
      g+3     :    -0.000000
      g-3     :    -0.000000
      g+4     :    -0.000000
      g-4     :    -0.000000
  1 O s       :     0.011270  s :     0.011270
      pz      :    -0.007039  p :    -0.013253
      px      :    -0.003107
      py      :    -0.003107
      dz2     :     0.000408  d :     0.001253
      dxz     :     0.000423
      dyz     :     0.000423
      dx2y2   :     0.000000
      dxy     :     0.000000
      f0      :     0.000227  f :     0.000222
      f+1     :    -0.000003
      f-1     :    -0.000003
      f+2     :     0.000000
      f-2     :     0.000000
      f+3     :    -0.000000
      f-3     :    -0.000000


                     *******************************
                     * LOEWDIN POPULATION ANALYSIS *
                     *******************************

-------------------------------------------
LOEWDIN ATOMIC CHARGES AND SPIN POPULATIONS
-------------------------------------------
   0 Sc:    0.712028    0.939370
   1 O :   -0.712028    0.060630

----------------------------------------------------
LOEWDIN REDUCED ORBITAL CHARGES AND SPIN POPULATIONS
----------------------------------------------------
CHARGE
  0 Scs       :     6.426395  s :     6.426395
      pz      :     4.161111  p :    11.985692
      px      :     3.912290
      py      :     3.912290
      dz2     :     0.727573  d :     1.486318
      dxz     :     0.379372
      dyz     :     0.379372
      dx2y2   :     0.000000
      dxy     :     0.000000
      f0      :     0.117801  f :     0.258865
      f+1     :     0.070532
      f-1     :     0.070532
      f+2     :     0.000000
      f-2     :     0.000000
      f+3     :     0.000000
      f-3     :     0.000000
      g0      :     0.055483  g :     0.130702
      g+1     :     0.037609
      g-1     :     0.037609
      g+2     :     0.000000
      g-2     :     0.000000
      g+3     :     0.000000
      g-3     :     0.000000
      g+4     :     0.000000
      g-4     :     0.000000
  1 O s       :     3.547362  s :     3.547362
      pz      :     1.692232  p :     4.673882
      px      :     1.490825
      py      :     1.490825
      dz2     :     0.201117  d :     0.357945
      dxz     :     0.078414
      dyz     :     0.078414
      dx2y2   :     0.000000
      dxy     :     0.000000
      f0      :     0.070925  f :     0.132838
      f+1     :     0.030957
      f-1     :     0.030957
      f+2     :     0.000000
      f-2     :     0.000000
      f+3     :     0.000000
      f-3     :     0.000000

SPIN
  0 Scs       :     0.722609  s :     0.722609
      pz      :     0.149958  p :     0.151353
      px      :     0.000698
      py      :     0.000698
      dz2     :     0.058898  d :     0.068197
      dxz     :     0.004650
      dyz     :     0.004650
      dx2y2   :     0.000000
      dxy     :     0.000000
      f0      :     0.000245  f :    -0.002240
      f+1     :    -0.001242
      f-1     :    -0.001242
      f+2     :    -0.000000
      f-2     :    -0.000000
      f+3     :    -0.000000
      f-3     :    -0.000000
      g0      :    -0.000082  g :    -0.000550
      g+1     :    -0.000234
      g-1     :    -0.000234
      g+2     :    -0.000000
      g-2     :    -0.000000
      g+3     :    -0.000000
      g-3     :    -0.000000
      g+4     :    -0.000000
      g-4     :    -0.000000
  1 O s       :     0.026798  s :     0.026798
      pz      :     0.039904  p :     0.031319
      px      :    -0.004293
      py      :    -0.004293
      dz2     :     0.000334  d :     0.001140
      dxz     :     0.000403
      dyz     :     0.000403
      dx2y2   :    -0.000000
      dxy     :    -0.000000
      f0      :     0.001337  f :     0.001374
      f+1     :     0.000019
      f-1     :     0.000019
      f+2     :    -0.000000
      f-2     :     0.000000
      f+3     :    -0.000000
      f-3     :    -0.000000


                      *****************************
                      * MAYER POPULATION ANALYSIS *
                      *****************************

  NA   - Mulliken gross atomic population
  ZA   - Total nuclear charge
  QA   - Mulliken gross atomic charge
  VA   - Mayer's total valence
  BVA  - Mayer's bonded valence
  FA   - Mayer's free valence

  ATOM       NA         ZA         QA         VA         BVA        FA
  0 Sc    20.1521    21.0000     0.8479     2.9334     1.9763     0.9572
  1 O      8.8479     8.0000    -0.8479     1.9772     1.9763     0.0009

  Mayer bond orders larger than 0.100000
B(  0-Sc,  1-O ) :   1.9763 

-------
TIMINGS
-------

Total SCF time: 0 days 0 hours 3 min 8 sec 

Total time                  ....     188.274 sec
Sum of individual times     ....     187.938 sec  ( 99.8%)

Fock matrix formation       ....     187.537 sec  ( 99.6%)
  XC integration            ....       0.361 sec  (  0.2% of F)
    Basis function eval.    ....       0.078 sec  ( 21.5% of XC)
    Density eval.           ....       0.045 sec  ( 12.4% of XC)
    XC-Functional eval.     ....       0.018 sec  (  4.9% of XC)
    XC-Potential eval.      ....       0.114 sec  ( 31.4% of XC)
Diagonalization             ....       0.074 sec  (  0.0%)
Density matrix formation    ....       0.009 sec  (  0.0%)
Population analysis         ....       0.006 sec  (  0.0%)
Initial guess               ....       0.100 sec  (  0.1%)
Orbital Transformation      ....       0.000 sec  (  0.0%)
Orbital Orthonormalization  ....       0.000 sec  (  0.0%)
DIIS solution               ....       0.026 sec  (  0.0%)
Grid generation             ....       0.186 sec  (  0.1%)

-------------------------   --------------------
FINAL SINGLE POINT ENERGY      -835.832473438885
-------------------------   --------------------


                            ***************************************
                            *     ORCA property calculations      *
                            ***************************************

                                    ---------------------
                                    Active property flags
                                    ---------------------
   (+) Dipole Moment


------------------------------------------------------------------------------
                       ORCA ELECTRIC PROPERTIES CALCULATION
------------------------------------------------------------------------------

Dipole Moment Calculation                       ... on
Quadrupole Moment Calculation                   ... off
Polarizability Calculation                      ... off
GBWName                                         ... 05_ScO.gbw
Electron density file                           ... 05_ScO.scfp
The origin for moment calculation is the CENTER OF MASS  = ( 0.000000,  0.000000  1.140009)

-------------
DIPOLE MOMENT
-------------
                                X             Y             Z
Electronic contribution:     -0.00000      -0.00000      -2.73555
Nuclear contribution   :      0.00000       0.00000       1.22710
                        -----------------------------------------
Total Dipole Moment    :     -0.00000      -0.00000      -1.50845
                        -----------------------------------------
Magnitude (a.u.)       :      1.50845
Magnitude (Debye)      :      3.83418



--------------------
Rotational spectrum 
--------------------
 
Rotational constants in cm-1:     0.000000     0.512165     0.512165 
Rotational constants in MHz :     0.000000 15354.316375 15354.316375 

 Dipole components along the rotational axes: 
x,y,z [a.u.] :    -1.508451    -0.000000    -0.000000 
x,y,z [Debye]:    -3.834178    -0.000000    -0.000000 

 

Timings for individual modules:

Sum of individual times         ...      191.696 sec (=   3.195 min)
GTO integral calculation        ...        2.903 sec (=   0.048 min)   1.5 %
SCF iterations                  ...      188.793 sec (=   3.147 min)  98.5 %
                             ****ORCA TERMINATED NORMALLY****
TOTAL RUN TIME: 0 days 0 hours 3 minutes 12 seconds 302 msec
