
                                 *****************
                                 * O   R   C   A *
                                 *****************

           --- An Ab Initio, DFT and Semiempirical electronic structure package ---

                  #######################################################
                  #                        -***-                        #
                  #          Department of theory and spectroscopy      #
                  #               Directorship: Frank Neese             #
                  #        Max Planck Institute fuer Kohlenforschung    #
                  #                Kaiser Wilhelm Platz 1               #
                  #                 D-45470 Muelheim/Ruhr               #
                  #                      Germany                        #
                  #                                                     #
                  #                  All rights reserved                #
                  #                        -***-                        #
                  #######################################################


                         Program Version 4.2.0 -  RELEASE  -


 With contributions from (in alphabetic order):
   Daniel Aravena         : Magnetic Suceptibility
   Michael Atanasov       : Ab Initio Ligand Field Theory (pilot matlab implementation)
   Alexander A. Auer      : GIAO ZORA, VPT2
   Ute Becker             : Parallelization
   Giovanni Bistoni       : ED, misc. LED, open-shell LED, HFLED
   Martin Brehm           : Molecular dynamics
   Dmytro Bykov           : SCF Hessian
   Vijay G. Chilkuri      : MRCI spin determinant printing, contributions to CSF-ICE
   Dipayan Datta          : RHF DLPNO-CCSD density
   Achintya Kumar Dutta   : EOM-CC, STEOM-CC
   Dmitry Ganyushin       : Spin-Orbit,Spin-Spin,Magnetic field MRCI
   Miquel Garcia          : C-PCM Hessian, Gaussian charge scheme
   Yang Guo               : DLPNO-NEVPT2, CIM, IAO-localization
   Andreas Hansen         : Spin unrestricted coupled pair/coupled cluster methods
   Benjamin Helmich-Paris : CASSCF linear response (MC-RPA)
   Lee Huntington         : MR-EOM, pCC
   Robert Izsak           : Overlap fitted RIJCOSX, COSX-SCS-MP3, EOM
   Christian Kollmar      : KDIIS, OOCD, Brueckner-CCSD(T), CCSD density
   Simone Kossmann        : Meta GGA functionals, TD-DFT gradient, OOMP2, MP2 Hessian
   Martin Krupicka        : AUTO-CI
   Lucas Lang             : DCDCAS
   Dagmar Lenk            : GEPOL surface, SMD
   Dimitrios Liakos       : Extrapolation schemes; Compound Job, initial MDCI parallelization
   Dimitrios Manganas     : Further ROCIS development; embedding schemes
   Dimitrios Pantazis     : SARC Basis sets
   Taras Petrenko         : DFT Hessian,TD-DFT gradient, ASA, ECA, R-Raman, ABS, FL, XAS/XES, NRVS
   Peter Pinski           : DLPNO-MP2, DLPNO-MP2 Gradient
   Christoph Reimann      : Effective Core Potentials
   Marius Retegan         : Local ZFS, SOC
   Christoph Riplinger    : Optimizer, TS searches, QM/MM, DLPNO-CCSD(T), (RO)-DLPNO pert. Triples
   Tobias Risthaus        : Range-separated hybrids, TD-DFT gradient, RPA, STAB
   Michael Roemelt        : Original ROCIS implementation
   Masaaki Saitow         : Open-shell DLPNO-CCSD energy and density
   Barbara Sandhoefer     : DKH picture change effects
   Avijit Sen             : IP-ROCIS
   Kantharuban Sivalingam : CASSCF convergence, NEVPT2, FIC-MRCI
   Bernardo de Souza      : ESD, SOC TD-DFT
   Georgi Stoychev        : AutoAux, RI-MP2 NMR
   Willem Van den Heuvel  : Paramagnetic NMR
   Boris Wezisla          : Elementary symmetry handling
   Frank Wennmohs         : Technical directorship


 We gratefully acknowledge several colleagues who have allowed us to
 interface, adapt or use parts of their codes:
   Stefan Grimme, W. Hujo, H. Kruse,             : VdW corrections, initial TS optimization,
                  C. Bannwarth                     DFT functionals, gCP, sTDA/sTD-DF
   Ed Valeev, F. Pavosevic, A. Kumar             : LibInt (2-el integral package), F12 methods
   Garnet Chan, S. Sharma, J. Yang, R. Olivares  : DMRG
   Ulf Ekstrom                                   : XCFun DFT Library
   Mihaly Kallay                                 : mrcc  (arbitrary order and MRCC methods)
   Andreas Klamt, Michael Diedenhofen            : otool_cosmo (COSMO solvation model)
   Jiri Pittner, Ondrej Demel                    : Mk-CCSD
   Frank Weinhold                                : gennbo (NPA and NBO analysis)
   Christopher J. Cramer and Donald G. Truhlar   : smd solvation model
   Lars Goerigk                                  : TD-DFT with DH, B97 family of functionals
   V. Asgeirsson, H. Jonsson                     : NEB implementation
   FAccTs GmbH                                   : IRC, NEB, NEB-TS, Multilevel, MM, QM/MM, CI optimization
   S Lehtola, MJT Oliveira, MAL Marques          : LibXC Library


 Your calculation uses the libint2 library for the computation of 2-el integrals
 For citations please refer to: http://libint.valeyev.net

 Your ORCA version has been built with support for libXC version: 4.2.3
 For citations please refer to: https://tddft.org/programs/libxc/

 This ORCA versions uses:
   CBLAS   interface :  Fast vector & matrix operations
   LAPACKE interface :  Fast linear algebra routines
   SCALAPACK package :  Parallel linear algebra routines


Your calculation utilizes the DFT-NL dispersion correction.
Cite in your paper:
Vydrov, O. A.; Van Voorhis, T. J. Chem. Phys. 2010, 133, 244103
Hujo, W.; Grimme, S. J. Chem. Theory Comput. 2011, 7, 3866 
   

----- Orbital basis set information -----
Your calculation utilizes the basis: aug-cc-pVTZ 
    H, B-Ne : Obtained from the ccRepo (grant-hill.group.shef.ac.uk/ccrepo) Feb. 2017
              R. A. Kendall, T. H. Dunning, Jr., R. J. Harrison, J. Chem. Phys. 96, 6796 (1992)
         He : Obtained from the ccRepo (grant-hill.group.shef.ac.uk/ccrepo) Feb. 2017
              D. E. Woon, T. H. Dunning, Jr., J. Chem. Phys. 100, 2975 (1994)
  Li-Be, Na : Obtained from the ccRepo (grant-hill.group.shef.ac.uk/ccrepo) Feb. 2017
              B. P. Prascher, D. E. Woon, K. A. Peterson, T. H. Dunning, Jr., A. K. Wilson, Theor. Chem. Acc. 128, 69 (2011)
         Mg : Obtained from the Peterson Research Group Website (tyr0.chem.wsu.edu/~kipeters) Feb. 2017
              B. P. Prascher, D. E. Woon, K. A. Peterson, T. H. Dunning, Jr., A. K. Wilson, Theor. Chem. Acc. 128, 69 (2011)
      Al-Ar : Obtained from the ccRepo (grant-hill.group.shef.ac.uk/ccrepo) Feb. 2017
              D. E. Woon, T. H. Dunning, Jr., J. Chem. Phys. 98, 1358 (1993)
      Sc-Zn : Obtained from the ccRepo (grant-hill.group.shef.ac.uk/ccrepo) Feb. 2017
              N. B. Balabanov, K. A. Peterson, J. Chem. Phys. 123, 064107 (2005)
              N. B. Balabanov, K. A. Peterson, J. Chem. Phys. 125, 074110 (2006)
      Ga-Kr : Obtained from the ccRepo (grant-hill.group.shef.ac.uk/ccrepo) Feb. 2017
              A. K. Wilson, D. E. Woon, K. A. Peterson, T. H. Dunning, Jr., J. Chem. Phys. 110, 7667 (1999)
     Ag, Au : Obtained from the Peterson Research Group Website (tyr0.chem.wsu.edu/~kipeters) Feb. 2017
              K. A. Peterson, C. Puzzarini, Theor. Chem. Acc. 114, 283 (2005)

----- AuxJK basis set information -----
Your calculation utilizes the auxiliary basis: def2/JK
   H-Ba, Hf-Rn: F. Weigend, J. Comput. Chem. 29, 167 (2008).

================================================================================
                                        WARNINGS
                       Please study these warnings very carefully!
================================================================================


WARNING: your system is open-shell and RHF/RKS was chosen
  ===> : WILL SWITCH to UHF/UKS


INFO   : the flag for use of LIBINT has been found!

================================================================================
                                       INPUT FILE
================================================================================
NAME = 09_TiCl.in
|  1> #
|  2> # 09_TiCl wb97x-v/aug-cc-pvtz
|  3> #
|  4> ! wb97x-v aug-cc-pvtz def2/jk grid4 nofinalgrid
|  5> 
|  6> *xyz 0 4
|  7>   Ti  0.00000000000000      0.00000000000000     -0.11680209456005
|  8>   Cl  0.00000000000000      0.00000000000000      2.11680209456005
|  9> *
| 10> 
| 11> %pal
| 12> nprocs 24
| 13> end
| 14> 
| 15> 
| 16>                          ****END OF INPUT****
================================================================================

                       ****************************
                       * Single Point Calculation *
                       ****************************

---------------------------------
CARTESIAN COORDINATES (ANGSTROEM)
---------------------------------
  Ti     0.000000    0.000000   -0.116802
  Cl     0.000000    0.000000    2.116802

----------------------------
CARTESIAN COORDINATES (A.U.)
----------------------------
  NO LB      ZA    FRAG     MASS         X           Y           Z
   0 Ti   22.0000    0    47.900    0.000000    0.000000   -0.220724
   1 Cl   17.0000    0    35.453    0.000000    0.000000    4.000176

--------------------------------
INTERNAL COORDINATES (ANGSTROEM)
--------------------------------
 Ti     0   0   0     0.000000000000     0.00000000     0.00000000
 Cl     1   0   0     2.233604189120     0.00000000     0.00000000

---------------------------
INTERNAL COORDINATES (A.U.)
---------------------------
 Ti     0   0   0     0.000000000000     0.00000000     0.00000000
 Cl     1   0   0     4.220900209016     0.00000000     0.00000000

---------------------
BASIS SET INFORMATION
---------------------
There are 2 groups of distinct atoms

 Group   1 Type Ti  : 116s77p23d3f2g contracted to 8s7p5d3f2g pattern {19191919191911/151515151511/77711/111/11}
 Group   2 Type Cl  : 42s17p3d2f contracted to 6s5p3d2f pattern {131313111/77111/111/11}

Atom   0Ti   basis set group =>   1
Atom   1Cl   basis set group =>   2
----------------------------------
AUXILIARY/JK BASIS SET INFORMATION
----------------------------------
There are 2 groups of distinct atoms

 Group   1 Type Ti  : 19s14p12d10f7g3h1i contracted to 16s13p11d9f5g3h1i pattern {4111111111111111/2111111111111/21111111111/211111111/31111/111/1}
 Group   2 Type Cl  : 16s12p10d4f1g contracted to 13s11p9d4f1g pattern {4111111111111/21111111111/211111111/1111/1}

Atom   0Ti   basis set group =>   1
Atom   1Cl   basis set group =>   2


           ************************************************************
           *        Program running with 24 parallel MPI-processes    *
           *              working on a common directory               *
           ************************************************************
------------------------------------------------------------------------------
                           ORCA GTO INTEGRAL CALCULATION
------------------------------------------------------------------------------

                         BASIS SET STATISTICS AND STARTUP INFO

 # of primitive gaussian shells          ...  285
 # of primitive gaussian functions       ...  623
 # of contracted shells                  ...   41
 # of contracted basis functions         ...  143
 Highest angular momentum                ...    4
 Maximum contraction depth               ...   19
 Integral package used                   ... LIBINT
 Integral threshhold            Thresh   ...  1.000e-10
 Primitive cut-off              TCut     ...  1.000e-11


------------------------------ INTEGRAL EVALUATION ----------------------------


 * One electron integrals 
 Pre-screening matrix                    ... done
 Shell pair data                         ... done (   0.001 sec)



           ************************************************************
           *        Program running with 24 parallel MPI-processes    *
           *              working on a common directory               *
           ************************************************************
-------------------------------------------------------------------------------
                                 ORCA SCF
-------------------------------------------------------------------------------

------------
SCF SETTINGS
------------
Hamiltonian:
 Density Functional     Method          .... DFT(GTOs)
 Exchange Functional    Exchange        .... WB97X-V
 Correlation Functional Correlation     .... WB97X-V
 Gradients option       PostSCFGGA      .... off
 Hybrid DFT is turned on
   Fraction HF Exchange ScalHFX         ....  0.167000
   Scaling of DF-GGA-X  ScalDFX         ....  0.000000
   Scaling of DF-GGA-C  ScalDFC         ....  1.000000
   Scaling of DF-LDA-C  ScalLDAC        ....  1.000000
   Perturbative correction              ....  0.000000
   Density functional embedding theory  .... OFF
 Long-range corrected/Screened/Range-Separated Hybrid DFT is turned on
   Amount of maximum screened exact exchange              ....  0.833000
   Range separation parameter mu (erf(mu*r12)/r12)        ....  0.300000
   NL short-range parameter             ....  6.000000
   NL long-range parameter              ....  0.010000


General Settings:
 Integral files         IntName         .... 09_TiCl
 Hartree-Fock type      HFTyp           .... UHF
 Total Charge           Charge          ....    0
 Multiplicity           Mult            ....    4
 Number of Electrons    NEL             ....   39
 Basis Dimension        Dim             ....  143
 Nuclear Repulsion      ENuc            ....     88.6066908668 Eh

Convergence Acceleration:
 DIIS                   CNVDIIS         .... on
   Start iteration      DIISMaxIt       ....    12
   Startup error        DIISStart       ....  0.200000
   # of expansion vecs  DIISMaxEq       ....     5
   Bias factor          DIISBfac        ....   1.050
   Max. coefficient     DIISMaxC        ....  10.000
 Newton-Raphson         CNVNR           .... off
 SOSCF                  CNVSOSCF        .... off
 Level Shifting         CNVShift        .... on
   Level shift para.    LevelShift      ....    0.2500
   Turn off err/grad.   ShiftErr        ....    0.0010
 Zerner damping         CNVZerner       .... off
 Static damping         CNVDamp         .... on
   Fraction old density DampFac         ....    0.7000
   Max. Damping (<1)    DampMax         ....    0.9800
   Min. Damping (>=0)   DampMin         ....    0.0000
   Turn off err/grad.   DampErr         ....    0.1000
 Fernandez-Rico         CNVRico         .... off

SCF Procedure:
 Maximum # iterations   MaxIter         ....   125
 SCF integral mode      SCFMode         .... Direct
   Integral package                     .... LIBINT
 Reset frequency        DirectResetFreq ....    20
 Integral Threshold     Thresh          ....  1.000e-10 Eh
 Primitive CutOff       TCut            ....  1.000e-11 Eh

Convergence Tolerance:
 Convergence Check Mode ConvCheckMode   .... Total+1el-Energy
 Convergence forced     ConvForced      .... 0
 Energy Change          TolE            ....  1.000e-06 Eh
 1-El. energy change                    ....  1.000e-03 Eh
 DIIS Error             TolErr          ....  1.000e-06


Diagonalization of the overlap matrix:
Smallest eigenvalue                        ... 4.724e-05
Time for diagonalization                   ...    0.006 sec
Threshold for overlap eigenvalues          ... 1.000e-08
Number of eigenvalues below threshold      ... 0
Time for construction of square roots      ...    0.002 sec
Total time needed                          ...    0.008 sec

-------------------
DFT GRID GENERATION
-------------------

General Integration Accuracy     IntAcc      ...  4.670
Radial Grid Type                 RadialGrid  ... Gauss-Chebyshev
Angular Grid (max. acc.)         AngularGrid ... Lebedev-302
Angular grid pruning method      GridPruning ... 3 (G Style)
Weight generation scheme         WeightScheme... Becke
Basis function cutoff            BFCut       ...    1.0000e-10
Integration weight cutoff        WCut        ...    1.0000e-14
Grids for H and He will be reduced by one unit

# of grid points (after initial pruning)     ...  16402 (   0.0 sec)
# of grid points (after weights+screening)   ...  16375 (   0.0 sec)
nearest neighbour list constructed           ...    0.0 sec
Grid point re-assignment to atoms done       ...    0.0 sec
Grid point division into batches done        ...    0.1 sec
Reduced shell lists constructed in    0.1 sec

Total number of grid points                  ...    16375
Total number of batches                      ...      257
Average number of points per batch           ...       63
Average number of grid points per atom       ...     8188
Average number of shells per batch           ...    17.83 (43.50%)
Average number of basis functions per batch  ...    49.50 (34.62%)
Average number of large shells per batch     ...    11.08 (62.15%)
Average number of large basis fcns per batch ...    32.25 (65.15%)
Maximum spatial batch extension              ...  24.49, 24.19, 18.13 au
Average spatial batch extension              ...   0.85,  0.83,  0.66 au

Time for grid setup =    0.162 sec

------------------------------
INITIAL GUESS: MODEL POTENTIAL
------------------------------
Loading Hartree-Fock densities                     ... done
Calculating cut-offs                               ... done
Setting up the integral package                    ... done
Initializing the effective Hamiltonian             ... done
Starting the Coulomb interaction                   ... done (   0.0 sec)
Reading the grid                                   ... done
Mapping shells                                     ... done
Starting the XC term evaluation                    ... done (   0.0 sec)
  promolecular density results
     # of electrons  =     39.000003298
     EX              =    -51.434796755
     EC              =     -2.105732502
     EX+EC           =    -53.540529258
Transforming the Hamiltonian                       ... done (   0.0 sec)
Diagonalizing the Hamiltonian                      ... done (   0.0 sec)
Back transforming the eigenvectors                 ... done (   0.0 sec)
Now organizing SCF variables                       ... done
                      ------------------
                      INITIAL GUESS DONE (   0.3 sec)
                      ------------------
--------------
SCF ITERATIONS
--------------
ITER       Energy         Delta-E        Max-DP      RMS-DP      [F,P]     Damp
               ***  Starting incremental Fock matrix formation  ***
  0  -1308.3387040466   0.000000000000 1.05264568  0.02017748  0.5242520 0.7000
  1  -1308.5591456064  -0.220441559799 0.55912995  0.00923594  0.2421074 0.7000
  2  -1308.8586929958  -0.299547389315 0.38866424  0.00655848  0.2132167 0.7000
                               ***Turning on DIIS***
  3  -1309.0905522407  -0.231859244915 0.27749209  0.00450008  0.1223011 0.7000
  4  -1309.2484602909  -0.157908050277 0.61176214  0.00980299  0.0655273 0.0000
  5  -1309.6356196278  -0.387159336865 0.06087892  0.00132044  0.0425488 0.0000
  6  -1309.6429012441  -0.007281616284 0.03724724  0.00058904  0.0105584 0.0000
  7  -1309.6443695952  -0.001468351061 0.01983789  0.00023125  0.0057238 0.0000
  8  -1309.6448278503  -0.000458255131 0.01170154  0.00013477  0.0033799 0.0000
  9  -1309.6449964267  -0.000168576442 0.00652697  0.00007656  0.0015228 0.0000
 10  -1309.6450411442  -0.000044717467 0.00580547  0.00006862  0.0006199 0.0000
 11  -1309.6450563645  -0.000015220333 0.00143416  0.00001585  0.0001605 0.0000
 12  -1309.6450569968  -0.000000632291 0.00084899  0.00000866  0.0000768 0.0000
                 **** Energy Check signals convergence ****

               *****************************************************
               *                     SUCCESS                       *
               *           SCF CONVERGED AFTER  13 CYCLES          *
               *****************************************************


Setting up the DFT-NL grid :

General Integration Accuracy     IntAcc      ...  4.340
Radial Grid Type                 RadialGrid  ... Gauss-Chebyshev
Angular Grid (max. acc.)         AngularGrid ... Lebedev-110
Angular grid pruning method      GridPruning ... 3 (G Style)
Weight generation scheme         WeightScheme... Becke
Basis function cutoff            BFCut       ...    1.0000e-10
Integration weight cutoff        WCut        ...    1.0000e-14
Grids for H and He will be reduced by one unit

# of grid points (after initial pruning)     ...   4816 (   0.0 sec)
# of grid points (after weights+screening)   ...   4791 (   0.0 sec)
nearest neighbour list constructed           ...    0.0 sec
Grid point re-assignment to atoms done       ...    0.0 sec
Grid point division into batches done        ...    0.0 sec
Reduced shell lists constructed in    0.0 sec

Total number of grid points                  ...     4791
Total number of batches                      ...       76
Average number of points per batch           ...       63
Average number of grid points per atom       ...     2396
Average number of shells per batch           ...    23.60 (57.56%)
Average number of basis functions per batch  ...    79.60 (55.66%)
Average number of large shells per batch     ...    18.80 (79.66%)
Average number of large basis fcns per batch ...    62.00 (77.89%)
Maximum spatial batch extension              ...  20.31, 28.73, 16.39 au
Average spatial batch extension              ...   0.97,  1.26,  0.86 au

Final grid set up in    0.0 sec

-------------------------------------------------------------------------------
                         DFT-NL dispersion correction                          
-------------------------------------------------------------------------------

SC Energy -1309.645057194 
NL    Energy 0.163022283 
SC+NL Energy -1309.482034910 
NL done in    0.0 sec
-------------------------------------------------------------------------------

----------------
TOTAL SCF ENERGY
----------------

Total Energy       :        -1309.48203491 Eh          -35632.81771 eV

Components:
Nuclear Repulsion  :           88.60669087 Eh            2411.11064 eV
Electronic Energy  :        -1398.08872578 Eh          -38043.92834 eV
One Electron Energy:        -1977.88566325 Eh          -53821.00510 eV
Two Electron Energy:          579.79693748 Eh           15777.07676 eV

Virial components:
Potential Energy   :        -2616.62037580 Eh          -71201.86026 eV
Kinetic Energy     :         1307.13834089 Eh           35569.04255 eV
Virial Ratio       :            2.00179300


DFT components:
N(Alpha)           :       20.999994393802 electrons
N(Beta)            :       17.999995884246 electrons
N(Total)           :       38.999990278048 electrons
E(X)               :      -51.590859103896 Eh       
E(C)               :       -2.090148204433 Eh       
NL Energy, E(C,NL) :        0.163022283416 Eh       
E(XC)              :      -53.517985024913 Eh       
DFET-embed. en.    :        0.000000000000 Eh       

---------------
SCF CONVERGENCE
---------------

  Last Energy change         ...   -1.9669e-07  Tolerance :   1.0000e-06
  Last MAX-Density change    ...    5.6244e-04  Tolerance :   1.0000e-05
  Last RMS-Density change    ...    5.8446e-06  Tolerance :   1.0000e-06
  Last DIIS Error            ...    5.4758e-05  Tolerance :   1.0000e-06

             **** THE GBW FILE WAS UPDATED (09_TiCl.gbw) ****
             **** DENSITY FILE WAS UPDATED (09_TiCl.scfp) ****
             **** ENERGY FILE WAS UPDATED (09_TiCl.en.tmp) ****
----------------------
UHF SPIN CONTAMINATION
----------------------

Warning: in a DFT calculation there is little theoretical justification to 
         calculate <S**2> as in Hartree-Fock theory. We will do it anyways
         but you should keep in mind that the values have only limited relevance

Expectation value of <S**2>     :     3.754349
Ideal value S*(S+1) for S=1.5   :     3.750000
Deviation                       :     0.004349

             **** THE GBW FILE WAS UPDATED (09_TiCl.gbw) ****
             **** DENSITY FILE WAS UPDATED (09_TiCl.scfp) ****
----------------
ORBITAL ENERGIES
----------------
                 SPIN UP ORBITALS
  NO   OCC          E(Eh)            E(eV) 
   0   1.0000    -178.764497     -4864.4293 
   1   1.0000    -101.495782     -2761.8406 
   2   1.0000     -19.911679      -541.8243 
   3   1.0000     -16.627315      -452.4522 
   4   1.0000     -16.614471      -452.1027 
   5   1.0000     -16.614471      -452.1027 
   6   1.0000      -9.513015      -258.8623 
   7   1.0000      -7.263370      -197.6463 
   8   1.0000      -7.262422      -197.6205 
   9   1.0000      -7.262422      -197.6205 
  10   1.0000      -2.478970       -67.4562 
  11   1.0000      -1.600365       -43.5481 
  12   1.0000      -1.587865       -43.2080 
  13   1.0000      -1.587865       -43.2080 
  14   1.0000      -0.887566       -24.1519 
  15   1.0000      -0.432844       -11.7783 
  16   1.0000      -0.401736       -10.9318 
  17   1.0000      -0.401736       -10.9318 
  18   1.0000      -0.275483        -7.4963 
  19   1.0000      -0.275481        -7.4962 
  20   1.0000      -0.258171        -7.0252 
  21   0.0000      -0.011620        -0.3162 
  22   0.0000       0.004454         0.1212 
  23   0.0000       0.004454         0.1212 
  24   0.0000       0.024062         0.6548 
  25   0.0000       0.028964         0.7882 
  26   0.0000       0.036560         0.9948 
  27   0.0000       0.036560         0.9948 
  28   0.0000       0.053034         1.4431 
  29   0.0000       0.053034         1.4431 
  30   0.0000       0.054634         1.4867 
  31   0.0000       0.054770         1.4904 
  32   0.0000       0.054770         1.4904 
  33   0.0000       0.064680         1.7600 
  34   0.0000       0.064680         1.7600 
  35   0.0000       0.098056         2.6682 
  36   0.0000       0.126302         3.4369 
  37   0.0000       0.170426         4.6375 
  38   0.0000       0.170935         4.6514 
  39   0.0000       0.170935         4.6514 
  40   0.0000       0.181521         4.9394 
  41   0.0000       0.181521         4.9394 
  42   0.0000       0.182448         4.9647 
  43   0.0000       0.185223         5.0402 
  44   0.0000       0.185223         5.0402 
  45   0.0000       0.202929         5.5220 
  46   0.0000       0.202929         5.5220 
  47   0.0000       0.262777         7.1505 
  48   0.0000       0.288814         7.8590 
  49   0.0000       0.288814         7.8590 
  50   0.0000       0.310455         8.4479 
  51   0.0000       0.310455         8.4479 
  52   0.0000       0.348785         9.4909 
  53   0.0000       0.362566         9.8659 
  54   0.0000       0.362566         9.8659 
  55   0.0000       0.384612        10.4658 
  56   0.0000       0.434614        11.8265 
  57   0.0000       0.434615        11.8265 
  58   0.0000       0.444016        12.0823 
  59   0.0000       0.444016        12.0823 
  60   0.0000       0.466391        12.6911 
  61   0.0000       0.485237        13.2040 
  62   0.0000       0.600688        16.3456 
  63   0.0000       0.600688        16.3456 
  64   0.0000       0.618698        16.8356 
  65   0.0000       0.618699        16.8357 
  66   0.0000       0.648772        17.6540 
  67   0.0000       0.648772        17.6540 
  68   0.0000       0.722798        19.6683 
  69   0.0000       0.806188        21.9375 
  70   0.0000       0.806188        21.9375 
  71   0.0000       0.808640        22.0042 
  72   0.0000       0.865911        23.5626 
  73   0.0000       0.865911        23.5626 
  74   0.0000       0.895093        24.3567 
  75   0.0000       0.895093        24.3567 
  76   0.0000       0.897016        24.4091 
  77   0.0000       0.934995        25.4425 
  78   0.0000       0.953948        25.9583 
  79   0.0000       0.953948        25.9583 
  80   0.0000       0.989208        26.9177 
  81   0.0000       0.989218        26.9180 
  82   0.0000       0.999926        27.2094 
  83   0.0000       0.999926        27.2094 
  84   0.0000       1.005271        27.3548 
  85   0.0000       1.005271        27.3548 
  86   0.0000       1.006396        27.3854 
  87   0.0000       1.006396        27.3854 
  88   0.0000       1.032151        28.0863 
  89   0.0000       1.052861        28.6498 
  90   0.0000       1.052864        28.6499 
  91   0.0000       1.220406        33.2089 
  92   0.0000       1.220406        33.2089 
  93   0.0000       1.315590        35.7990 
  94   0.0000       1.315590        35.7990 
  95   0.0000       1.355105        36.8743 
  96   0.0000       1.473223        40.0884 
  97   0.0000       1.473227        40.0886 
  98   0.0000       1.515745        41.2455 
  99   0.0000       1.715930        46.6928 
 100   0.0000       1.715930        46.6928 
 101   0.0000       1.949888        53.0592 
 102   0.0000       1.991838        54.2007 
 103   0.0000       1.991838        54.2007 
 104   0.0000       2.001159        54.4543 
 105   0.0000       2.221952        60.4624 
 106   0.0000       2.221961        60.4626 
 107   0.0000       2.342646        63.7466 
 108   0.0000       2.342646        63.7466 
 109   0.0000       2.343763        63.7770 
 110   0.0000       2.387835        64.9763 
 111   0.0000       2.387908        64.9783 
 112   0.0000       2.456197        66.8365 
 113   0.0000       2.492427        67.8224 
 114   0.0000       2.492427        67.8224 
 115   0.0000       2.663103        72.4667 
 116   0.0000       2.663103        72.4667 
 117   0.0000       2.683341        73.0174 
 118   0.0000       2.897566        78.8468 
 119   0.0000       2.897566        78.8468 
 120   0.0000       2.977884        81.0324 
 121   0.0000       2.977888        81.0325 
 122   0.0000       3.005308        81.7786 
 123   0.0000       3.035208        82.5922 
 124   0.0000       3.035208        82.5922 
 125   0.0000       3.176505        86.4371 
 126   0.0000       3.334420        90.7342 
 127   0.0000       3.334425        90.7343 
 128   0.0000       3.348266        91.1110 
 129   0.0000       3.348266        91.1110 
 130   0.0000       3.372072        91.7587 
 131   0.0000       3.372081        91.7590 
 132   0.0000       3.459721        94.1438 
 133   0.0000       3.459721        94.1438 
 134   0.0000       3.535857        96.2156 
 135   0.0000       3.535857        96.2156 
 136   0.0000       3.571794        97.1934 
 137   0.0000       3.571815        97.1940 
 138   0.0000       3.710842       100.9771 
 139   0.0000       3.763261       102.4035 
 140   0.0000       3.763261       102.4035 
 141   0.0000       4.286459       116.6405 
 142   0.0000       6.507591       177.0805 

                 SPIN DOWN ORBITALS
  NO   OCC          E(Eh)            E(eV) 
   0   1.0000    -178.763743     -4864.4088 
   1   1.0000    -101.496129     -2761.8501 
   2   1.0000     -19.889443      -541.2193 
   3   1.0000     -16.618438      -452.2107 
   4   1.0000     -16.591281      -451.4717 
   5   1.0000     -16.591281      -451.4717 
   6   1.0000      -9.513328      -258.8708 
   7   1.0000      -7.264051      -197.6649 
   8   1.0000      -7.262874      -197.6328 
   9   1.0000      -7.262874      -197.6328 
  10   1.0000      -2.405595       -65.4596 
  11   1.0000      -1.557732       -42.3881 
  12   1.0000      -1.485701       -40.4280 
  13   1.0000      -1.485701       -40.4280 
  14   1.0000      -0.889068       -24.1928 
  15   1.0000      -0.430918       -11.7259 
  16   1.0000      -0.402335       -10.9481 
  17   1.0000      -0.402335       -10.9481 
  18   0.0000      -0.001155        -0.0314 
  19   0.0000       0.027031         0.7356 
  20   0.0000       0.027031         0.7356 
  21   0.0000       0.027503         0.7484 
  22   0.0000       0.036084         0.9819 
  23   0.0000       0.052062         1.4167 
  24   0.0000       0.059327         1.6144 
  25   0.0000       0.059327         1.6144 
  26   0.0000       0.059757         1.6261 
  27   0.0000       0.059758         1.6261 
  28   0.0000       0.069332         1.8866 
  29   0.0000       0.075740         2.0610 
  30   0.0000       0.075740         2.0610 
  31   0.0000       0.095247         2.5918 
  32   0.0000       0.095247         2.5918 
  33   0.0000       0.112803         3.0695 
  34   0.0000       0.112805         3.0696 
  35   0.0000       0.114215         3.1080 
  36   0.0000       0.152362         4.1460 
  37   0.0000       0.175041         4.7631 
  38   0.0000       0.175041         4.7631 
  39   0.0000       0.175065         4.7638 
  40   0.0000       0.216082         5.8799 
  41   0.0000       0.216082         5.8799 
  42   0.0000       0.217499         5.9184 
  43   0.0000       0.227202         6.1825 
  44   0.0000       0.227203         6.1825 
  45   0.0000       0.232876         6.3369 
  46   0.0000       0.232876         6.3369 
  47   0.0000       0.274726         7.4757 
  48   0.0000       0.310453         8.4479 
  49   0.0000       0.310453         8.4479 
  50   0.0000       0.345893         9.4122 
  51   0.0000       0.345893         9.4122 
  52   0.0000       0.367061         9.9882 
  53   0.0000       0.390686        10.6311 
  54   0.0000       0.390686        10.6311 
  55   0.0000       0.405793        11.0422 
  56   0.0000       0.446819        12.1586 
  57   0.0000       0.446820        12.1586 
  58   0.0000       0.452353        12.3091 
  59   0.0000       0.452353        12.3091 
  60   0.0000       0.477547        12.9947 
  61   0.0000       0.516838        14.0639 
  62   0.0000       0.637182        17.3386 
  63   0.0000       0.637182        17.3386 
  64   0.0000       0.662809        18.0359 
  65   0.0000       0.662809        18.0360 
  66   0.0000       0.677868        18.4457 
  67   0.0000       0.677875        18.4459 
  68   0.0000       0.741847        20.1867 
  69   0.0000       0.821196        22.3459 
  70   0.0000       0.821196        22.3459 
  71   0.0000       0.828767        22.5519 
  72   0.0000       0.869844        23.6697 
  73   0.0000       0.869844        23.6697 
  74   0.0000       0.897685        24.4272 
  75   0.0000       0.899827        24.4855 
  76   0.0000       0.899827        24.4855 
  77   0.0000       0.946110        25.7450 
  78   0.0000       0.977405        26.5966 
  79   0.0000       0.977405        26.5966 
  80   0.0000       1.023995        27.8643 
  81   0.0000       1.023995        27.8643 
  82   0.0000       1.028463        27.9859 
  83   0.0000       1.028470        27.9861 
  84   0.0000       1.031157        28.0592 
  85   0.0000       1.031158        28.0592 
  86   0.0000       1.054471        28.6936 
  87   0.0000       1.067634        29.0518 
  88   0.0000       1.067634        29.0518 
  89   0.0000       1.076258        29.2865 
  90   0.0000       1.076267        29.2867 
  91   0.0000       1.227290        33.3963 
  92   0.0000       1.227290        33.3963 
  93   0.0000       1.328764        36.1575 
  94   0.0000       1.328764        36.1575 
  95   0.0000       1.365792        37.1651 
  96   0.0000       1.484609        40.3983 
  97   0.0000       1.484611        40.3983 
  98   0.0000       1.531049        41.6620 
  99   0.0000       1.725310        46.9481 
 100   0.0000       1.725310        46.9481 
 101   0.0000       1.959769        53.3280 
 102   0.0000       2.039138        55.4878 
 103   0.0000       2.050309        55.7917 
 104   0.0000       2.050309        55.7918 
 105   0.0000       2.297586        62.5205 
 106   0.0000       2.297610        62.5212 
 107   0.0000       2.376367        64.6642 
 108   0.0000       2.376367        64.6642 
 109   0.0000       2.386749        64.9467 
 110   0.0000       2.387452        64.9659 
 111   0.0000       2.387526        64.9679 
 112   0.0000       2.470717        67.2316 
 113   0.0000       2.492693        67.8296 
 114   0.0000       2.492693        67.8296 
 115   0.0000       2.668908        72.6247 
 116   0.0000       2.668908        72.6247 
 117   0.0000       2.703922        73.5775 
 118   0.0000       2.896664        78.8222 
 119   0.0000       2.896664        78.8222 
 120   0.0000       2.977610        81.0249 
 121   0.0000       2.977618        81.0251 
 122   0.0000       3.009558        81.8942 
 123   0.0000       3.036393        82.6245 
 124   0.0000       3.036393        82.6245 
 125   0.0000       3.196741        86.9878 
 126   0.0000       3.390676        92.2650 
 127   0.0000       3.390676        92.2650 
 128   0.0000       3.403351        92.6099 
 129   0.0000       3.403361        92.6101 
 130   0.0000       3.406948        92.7078 
 131   0.0000       3.407034        92.7101 
 132   0.0000       3.487907        94.9108 
 133   0.0000       3.487907        94.9108 
 134   0.0000       3.619169        98.4826 
 135   0.0000       3.619195        98.4833 
 136   0.0000       3.631630        98.8217 
 137   0.0000       3.631630        98.8217 
 138   0.0000       3.747029       101.9619 
 139   0.0000       3.805115       103.5425 
 140   0.0000       3.805115       103.5425 
 141   0.0000       4.312490       117.3488 
 142   0.0000       6.508795       177.1133 

                    ********************************
                    * MULLIKEN POPULATION ANALYSIS *
                    ********************************

--------------------------------------------
MULLIKEN ATOMIC CHARGES AND SPIN POPULATIONS
--------------------------------------------
   0 Ti:    0.410252    2.998365
   1 Cl:   -0.410252    0.001635
Sum of atomic charges         :   -0.0000000
Sum of atomic spin populations:    3.0000000

-----------------------------------------------------
MULLIKEN REDUCED ORBITAL CHARGES AND SPIN POPULATIONS
-----------------------------------------------------
CHARGE
  0 Tis       :     6.712304  s :     6.712304
      pz      :     4.132375  p :    12.187398
      px      :     4.027512
      py      :     4.027512
      dz2     :     0.497552  d :     2.648394
      dxz     :     0.077634
      dyz     :     0.077634
      dx2y2   :     0.997787
      dxy     :     0.997787
      f0      :     0.008767  f :     0.031478
      f+1     :     0.011097
      f-1     :     0.011097
      f+2     :     0.000259
      f-2     :     0.000259
      f+3     :     0.000000
      f-3     :     0.000000
      g0      :     0.002399  g :     0.010174
      g+1     :     0.003888
      g-1     :     0.003888
      g+2     :    -0.000000
      g-2     :    -0.000000
      g+3     :     0.000000
      g-3     :     0.000000
      g+4     :     0.000000
      g-4     :     0.000000
  1 Cls       :     5.951797  s :     5.951797
      pz      :     3.690926  p :    11.442236
      px      :     3.875655
      py      :     3.875655
      dz2     :     0.003033  d :     0.013846
      dxz     :     0.003834
      dyz     :     0.003834
      dx2y2   :     0.001573
      dxy     :     0.001573
      f0      :     0.000847  f :     0.002373
      f+1     :     0.000381
      f-1     :     0.000381
      f+2     :     0.000382
      f-2     :     0.000382
      f+3     :     0.000000
      f-3     :     0.000000

SPIN
  0 Tis       :     0.594838  s :     0.594838
      pz      :     0.043577  p :     0.052338
      px      :     0.004380
      py      :     0.004380
      dz2     :     0.345324  d :     2.353643
      dxz     :     0.006373
      dyz     :     0.006373
      dx2y2   :     0.997787
      dxy     :     0.997787
      f0      :    -0.000010  f :    -0.002495
      f+1     :    -0.001502
      f-1     :    -0.001502
      f+2     :     0.000259
      f-2     :     0.000259
      f+3     :     0.000000
      f-3     :     0.000000
      g0      :     0.000039  g :     0.000042
      g+1     :     0.000002
      g-1     :     0.000002
      g+2     :    -0.000000
      g-2     :    -0.000000
      g+3     :    -0.000000
      g-3     :    -0.000000
      g+4     :    -0.000000
      g-4     :    -0.000000
  1 Cls       :     0.021793  s :     0.021793
      pz      :    -0.008378  p :    -0.029146
      px      :    -0.010384
      py      :    -0.010384
      dz2     :     0.002163  d :     0.007126
      dxz     :     0.000909
      dyz     :     0.000909
      dx2y2   :     0.001573
      dxy     :     0.001573
      f0      :     0.000654  f :     0.001862
      f+1     :     0.000222
      f-1     :     0.000222
      f+2     :     0.000382
      f-2     :     0.000382
      f+3     :     0.000000
      f-3     :     0.000000


                     *******************************
                     * LOEWDIN POPULATION ANALYSIS *
                     *******************************

-------------------------------------------
LOEWDIN ATOMIC CHARGES AND SPIN POPULATIONS
-------------------------------------------
   0 Ti:   -0.173727    2.931404
   1 Cl:    0.173727    0.068596

----------------------------------------------------
LOEWDIN REDUCED ORBITAL CHARGES AND SPIN POPULATIONS
----------------------------------------------------
CHARGE
  0 Tis       :     6.542828  s :     6.542828
      pz      :     4.192532  p :    12.238118
      px      :     4.022793
      py      :     4.022793
      dz2     :     0.636459  d :     2.918063
      dxz     :     0.152780
      dyz     :     0.152780
      dx2y2   :     0.988022
      dxy     :     0.988022
      f0      :     0.128488  f :     0.323587
      f+1     :     0.096601
      f-1     :     0.096601
      f+2     :     0.000949
      f-2     :     0.000949
      f+3     :     0.000000
      f-3     :     0.000000
      g0      :     0.044295  g :     0.151131
      g+1     :     0.053296
      g-1     :     0.053296
      g+2     :     0.000122
      g-2     :     0.000122
      g+3     :     0.000000
      g-3     :     0.000000
      g+4     :     0.000000
      g-4     :     0.000000
  1 Cls       :     5.532080  s :     5.532080
      pz      :     3.750066  p :    11.036079
      px      :     3.643006
      py      :     3.643006
      dz2     :     0.123679  d :     0.180741
      dxz     :     0.021838
      dyz     :     0.021838
      dx2y2   :     0.006693
      dxy     :     0.006693
      f0      :     0.049573  f :     0.077373
      f+1     :     0.009685
      f-1     :     0.009685
      f+2     :     0.004215
      f-2     :     0.004215
      f+3     :     0.000000
      f-3     :     0.000000

SPIN
  0 Tis       :     0.569217  s :     0.569217
      pz      :     0.040494  p :     0.049761
      px      :     0.004633
      py      :     0.004633
      dz2     :     0.329358  d :     2.316092
      dxz     :     0.005345
      dyz     :     0.005345
      dx2y2   :     0.988022
      dxy     :     0.988022
      f0      :    -0.000398  f :    -0.002766
      f+1     :    -0.002133
      f-1     :    -0.002133
      f+2     :     0.000949
      f-2     :     0.000949
      f+3     :     0.000000
      f-3     :     0.000000
      g0      :    -0.000172  g :    -0.000900
      g+1     :    -0.000486
      g-1     :    -0.000486
      g+2     :     0.000122
      g-2     :     0.000122
      g+3     :    -0.000000
      g-3     :    -0.000000
      g+4     :    -0.000000
      g-4     :    -0.000000
  1 Cls       :     0.020562  s :     0.020562
      pz      :     0.035161  p :     0.019771
      px      :    -0.007695
      py      :    -0.007695
      dz2     :     0.004174  d :     0.018321
      dxz     :     0.000380
      dyz     :     0.000380
      dx2y2   :     0.006693
      dxy     :     0.006693
      f0      :     0.001604  f :     0.009942
      f+1     :    -0.000046
      f-1     :    -0.000046
      f+2     :     0.004215
      f-2     :     0.004215
      f+3     :    -0.000000
      f-3     :    -0.000000


                      *****************************
                      * MAYER POPULATION ANALYSIS *
                      *****************************

  NA   - Mulliken gross atomic population
  ZA   - Total nuclear charge
  QA   - Mulliken gross atomic charge
  VA   - Mayer's total valence
  BVA  - Mayer's bonded valence
  FA   - Mayer's free valence

  ATOM       NA         ZA         QA         VA         BVA        FA
  0 Ti    21.5897    22.0000     0.4103     4.0640     1.1522     2.9118
  1 Cl    17.4103    17.0000    -0.4103     1.1550     1.1522     0.0028

  Mayer bond orders larger than 0.100000
B(  0-Ti,  1-Cl) :   1.1522 

-------
TIMINGS
-------

Total SCF time: 0 days 0 hours 3 min 34 sec 

Total time                  ....     214.249 sec
Sum of individual times     ....     213.923 sec  ( 99.8%)

Fock matrix formation       ....     213.539 sec  ( 99.7%)
  XC integration            ....       0.339 sec  (  0.2% of F)
    Basis function eval.    ....       0.073 sec  ( 21.6% of XC)
    Density eval.           ....       0.040 sec  ( 11.7% of XC)
    XC-Functional eval.     ....       0.016 sec  (  4.6% of XC)
    XC-Potential eval.      ....       0.097 sec  ( 28.5% of XC)
Diagonalization             ....       0.070 sec  (  0.0%)
Density matrix formation    ....       0.010 sec  (  0.0%)
Population analysis         ....       0.007 sec  (  0.0%)
Initial guess               ....       0.098 sec  (  0.0%)
Orbital Transformation      ....       0.000 sec  (  0.0%)
Orbital Orthonormalization  ....       0.000 sec  (  0.0%)
DIIS solution               ....       0.021 sec  (  0.0%)
Grid generation             ....       0.178 sec  (  0.1%)

-------------------------   --------------------
FINAL SINGLE POINT ENERGY     -1309.482034910097
-------------------------   --------------------


                            ***************************************
                            *     ORCA property calculations      *
                            ***************************************

                                    ---------------------
                                    Active property flags
                                    ---------------------
   (+) Dipole Moment


------------------------------------------------------------------------------
                       ORCA ELECTRIC PROPERTIES CALCULATION
------------------------------------------------------------------------------

Dipole Moment Calculation                       ... on
Quadrupole Moment Calculation                   ... off
Polarizability Calculation                      ... off
GBWName                                         ... 09_TiCl.gbw
Electron density file                           ... 09_TiCl.scfp
The origin for moment calculation is the CENTER OF MASS  = ( 0.000000,  0.000000  1.574575)

-------------
DIPOLE MOMENT
-------------
                                X             Y             Z
Electronic contribution:     -0.00000      -0.00000      -3.68984
Nuclear contribution   :      0.00000       0.00000       1.73863
                        -----------------------------------------
Total Dipole Moment    :     -0.00000      -0.00000      -1.95120
                        -----------------------------------------
Magnitude (a.u.)       :      1.95120
Magnitude (Debye)      :      4.95957



--------------------
Rotational spectrum 
--------------------
 
Rotational constants in cm-1:     0.000000     0.165851     0.165851 
Rotational constants in MHz :     0.000000  4972.077671  4972.077671 

 Dipole components along the rotational axes: 
x,y,z [a.u.] :    -1.951205    -0.000000    -0.000000 
x,y,z [Debye]:    -4.959569    -0.000000    -0.000000 

 

Timings for individual modules:

Sum of individual times         ...      218.190 sec (=   3.636 min)
GTO integral calculation        ...        3.430 sec (=   0.057 min)   1.6 %
SCF iterations                  ...      214.760 sec (=   3.579 min)  98.4 %
                             ****ORCA TERMINATED NORMALLY****
TOTAL RUN TIME: 0 days 0 hours 3 minutes 38 seconds 804 msec
