
                                 *****************
                                 * O   R   C   A *
                                 *****************

           --- An Ab Initio, DFT and Semiempirical electronic structure package ---

                  #######################################################
                  #                        -***-                        #
                  #          Department of theory and spectroscopy      #
                  #               Directorship: Frank Neese             #
                  #        Max Planck Institute fuer Kohlenforschung    #
                  #                Kaiser Wilhelm Platz 1               #
                  #                 D-45470 Muelheim/Ruhr               #
                  #                      Germany                        #
                  #                                                     #
                  #                  All rights reserved                #
                  #                        -***-                        #
                  #######################################################


                         Program Version 4.2.0 -  RELEASE  -


 With contributions from (in alphabetic order):
   Daniel Aravena         : Magnetic Suceptibility
   Michael Atanasov       : Ab Initio Ligand Field Theory (pilot matlab implementation)
   Alexander A. Auer      : GIAO ZORA, VPT2
   Ute Becker             : Parallelization
   Giovanni Bistoni       : ED, misc. LED, open-shell LED, HFLED
   Martin Brehm           : Molecular dynamics
   Dmytro Bykov           : SCF Hessian
   Vijay G. Chilkuri      : MRCI spin determinant printing, contributions to CSF-ICE
   Dipayan Datta          : RHF DLPNO-CCSD density
   Achintya Kumar Dutta   : EOM-CC, STEOM-CC
   Dmitry Ganyushin       : Spin-Orbit,Spin-Spin,Magnetic field MRCI
   Miquel Garcia          : C-PCM Hessian, Gaussian charge scheme
   Yang Guo               : DLPNO-NEVPT2, CIM, IAO-localization
   Andreas Hansen         : Spin unrestricted coupled pair/coupled cluster methods
   Benjamin Helmich-Paris : CASSCF linear response (MC-RPA)
   Lee Huntington         : MR-EOM, pCC
   Robert Izsak           : Overlap fitted RIJCOSX, COSX-SCS-MP3, EOM
   Christian Kollmar      : KDIIS, OOCD, Brueckner-CCSD(T), CCSD density
   Simone Kossmann        : Meta GGA functionals, TD-DFT gradient, OOMP2, MP2 Hessian
   Martin Krupicka        : AUTO-CI
   Lucas Lang             : DCDCAS
   Dagmar Lenk            : GEPOL surface, SMD
   Dimitrios Liakos       : Extrapolation schemes; Compound Job, initial MDCI parallelization
   Dimitrios Manganas     : Further ROCIS development; embedding schemes
   Dimitrios Pantazis     : SARC Basis sets
   Taras Petrenko         : DFT Hessian,TD-DFT gradient, ASA, ECA, R-Raman, ABS, FL, XAS/XES, NRVS
   Peter Pinski           : DLPNO-MP2, DLPNO-MP2 Gradient
   Christoph Reimann      : Effective Core Potentials
   Marius Retegan         : Local ZFS, SOC
   Christoph Riplinger    : Optimizer, TS searches, QM/MM, DLPNO-CCSD(T), (RO)-DLPNO pert. Triples
   Tobias Risthaus        : Range-separated hybrids, TD-DFT gradient, RPA, STAB
   Michael Roemelt        : Original ROCIS implementation
   Masaaki Saitow         : Open-shell DLPNO-CCSD energy and density
   Barbara Sandhoefer     : DKH picture change effects
   Avijit Sen             : IP-ROCIS
   Kantharuban Sivalingam : CASSCF convergence, NEVPT2, FIC-MRCI
   Bernardo de Souza      : ESD, SOC TD-DFT
   Georgi Stoychev        : AutoAux, RI-MP2 NMR
   Willem Van den Heuvel  : Paramagnetic NMR
   Boris Wezisla          : Elementary symmetry handling
   Frank Wennmohs         : Technical directorship


 We gratefully acknowledge several colleagues who have allowed us to
 interface, adapt or use parts of their codes:
   Stefan Grimme, W. Hujo, H. Kruse,             : VdW corrections, initial TS optimization,
                  C. Bannwarth                     DFT functionals, gCP, sTDA/sTD-DF
   Ed Valeev, F. Pavosevic, A. Kumar             : LibInt (2-el integral package), F12 methods
   Garnet Chan, S. Sharma, J. Yang, R. Olivares  : DMRG
   Ulf Ekstrom                                   : XCFun DFT Library
   Mihaly Kallay                                 : mrcc  (arbitrary order and MRCC methods)
   Andreas Klamt, Michael Diedenhofen            : otool_cosmo (COSMO solvation model)
   Jiri Pittner, Ondrej Demel                    : Mk-CCSD
   Frank Weinhold                                : gennbo (NPA and NBO analysis)
   Christopher J. Cramer and Donald G. Truhlar   : smd solvation model
   Lars Goerigk                                  : TD-DFT with DH, B97 family of functionals
   V. Asgeirsson, H. Jonsson                     : NEB implementation
   FAccTs GmbH                                   : IRC, NEB, NEB-TS, Multilevel, MM, QM/MM, CI optimization
   S Lehtola, MJT Oliveira, MAL Marques          : LibXC Library


 Your calculation uses the libint2 library for the computation of 2-el integrals
 For citations please refer to: http://libint.valeyev.net

 Your ORCA version has been built with support for libXC version: 4.2.3
 For citations please refer to: https://tddft.org/programs/libxc/

 This ORCA versions uses:
   CBLAS   interface :  Fast vector & matrix operations
   LAPACKE interface :  Fast linear algebra routines
   SCALAPACK package :  Parallel linear algebra routines


Your calculation utilizes the DFT-NL dispersion correction.
Cite in your paper:
Vydrov, O. A.; Van Voorhis, T. J. Chem. Phys. 2010, 133, 244103
Hujo, W.; Grimme, S. J. Chem. Theory Comput. 2011, 7, 3866 
   

----- Orbital basis set information -----
Your calculation utilizes the basis: aug-cc-pVTZ 
    H, B-Ne : Obtained from the ccRepo (grant-hill.group.shef.ac.uk/ccrepo) Feb. 2017
              R. A. Kendall, T. H. Dunning, Jr., R. J. Harrison, J. Chem. Phys. 96, 6796 (1992)
         He : Obtained from the ccRepo (grant-hill.group.shef.ac.uk/ccrepo) Feb. 2017
              D. E. Woon, T. H. Dunning, Jr., J. Chem. Phys. 100, 2975 (1994)
  Li-Be, Na : Obtained from the ccRepo (grant-hill.group.shef.ac.uk/ccrepo) Feb. 2017
              B. P. Prascher, D. E. Woon, K. A. Peterson, T. H. Dunning, Jr., A. K. Wilson, Theor. Chem. Acc. 128, 69 (2011)
         Mg : Obtained from the Peterson Research Group Website (tyr0.chem.wsu.edu/~kipeters) Feb. 2017
              B. P. Prascher, D. E. Woon, K. A. Peterson, T. H. Dunning, Jr., A. K. Wilson, Theor. Chem. Acc. 128, 69 (2011)
      Al-Ar : Obtained from the ccRepo (grant-hill.group.shef.ac.uk/ccrepo) Feb. 2017
              D. E. Woon, T. H. Dunning, Jr., J. Chem. Phys. 98, 1358 (1993)
      Sc-Zn : Obtained from the ccRepo (grant-hill.group.shef.ac.uk/ccrepo) Feb. 2017
              N. B. Balabanov, K. A. Peterson, J. Chem. Phys. 123, 064107 (2005)
              N. B. Balabanov, K. A. Peterson, J. Chem. Phys. 125, 074110 (2006)
      Ga-Kr : Obtained from the ccRepo (grant-hill.group.shef.ac.uk/ccrepo) Feb. 2017
              A. K. Wilson, D. E. Woon, K. A. Peterson, T. H. Dunning, Jr., J. Chem. Phys. 110, 7667 (1999)
     Ag, Au : Obtained from the Peterson Research Group Website (tyr0.chem.wsu.edu/~kipeters) Feb. 2017
              K. A. Peterson, C. Puzzarini, Theor. Chem. Acc. 114, 283 (2005)

----- AuxJK basis set information -----
Your calculation utilizes the auxiliary basis: def2/JK
   H-Ba, Hf-Rn: F. Weigend, J. Comput. Chem. 29, 167 (2008).

================================================================================
                                        WARNINGS
                       Please study these warnings very carefully!
================================================================================


WARNING: your system is open-shell and RHF/RKS was chosen
  ===> : WILL SWITCH to UHF/UKS


INFO   : the flag for use of LIBINT has been found!

================================================================================
                                       INPUT FILE
================================================================================
NAME = 10_TiBr.in
|  1> #
|  2> # 10_TiBr wb97x-v/aug-cc-pvtz
|  3> #
|  4> ! wb97x-v aug-cc-pvtz def2/jk grid4 nofinalgrid
|  5> 
|  6> *xyz 0 4
|  7>   Ti  0.00000000000000      0.00000000000000     -0.20373332414567
|  8>   Br  0.00000000000000      0.00000000000000      2.20373332414567
|  9> *
| 10> 
| 11> %pal
| 12> nprocs 24
| 13> end
| 14> 
| 15> 
| 16>                          ****END OF INPUT****
================================================================================

                       ****************************
                       * Single Point Calculation *
                       ****************************

---------------------------------
CARTESIAN COORDINATES (ANGSTROEM)
---------------------------------
  Ti     0.000000    0.000000   -0.203733
  Br     0.000000    0.000000    2.203733

----------------------------
CARTESIAN COORDINATES (A.U.)
----------------------------
  NO LB      ZA    FRAG     MASS         X           Y           Z
   0 Ti   22.0000    0    47.900    0.000000    0.000000   -0.385000
   1 Br   35.0000    0    79.900    0.000000    0.000000    4.164452

--------------------------------
INTERNAL COORDINATES (ANGSTROEM)
--------------------------------
 Ti     0   0   0     0.000000000000     0.00000000     0.00000000
 Br     1   0   0     2.407466648291     0.00000000     0.00000000

---------------------------
INTERNAL COORDINATES (A.U.)
---------------------------
 Ti     0   0   0     0.000000000000     0.00000000     0.00000000
 Br     1   0   0     4.549452641820     0.00000000     0.00000000

---------------------
BASIS SET INFORMATION
---------------------
There are 2 groups of distinct atoms

 Group   1 Type Ti  : 116s77p23d3f2g contracted to 8s7p5d3f2g pattern {19191919191911/151515151511/77711/111/11}
 Group   2 Type Br  : 75s36p10d2f contracted to 7s6p4d2f pattern {18181818111/111111111/7111/11}

Atom   0Ti   basis set group =>   1
Atom   1Br   basis set group =>   2
----------------------------------
AUXILIARY/JK BASIS SET INFORMATION
----------------------------------
There are 2 groups of distinct atoms

 Group   1 Type Ti  : 19s14p12d10f7g3h1i contracted to 16s13p11d9f5g3h1i pattern {4111111111111111/2111111111111/21111111111/211111111/31111/111/1}
 Group   2 Type Br  : 20s14p13d10f7g3h contracted to 17s13p12d9f6g3h pattern {41111111111111111/2111111111111/211111111111/211111111/211111/111}

Atom   0Ti   basis set group =>   1
Atom   1Br   basis set group =>   2


           ************************************************************
           *        Program running with 24 parallel MPI-processes    *
           *              working on a common directory               *
           ************************************************************
------------------------------------------------------------------------------
                           ORCA GTO INTEGRAL CALCULATION
------------------------------------------------------------------------------

                         BASIS SET STATISTICS AND STARTUP INFO

 # of primitive gaussian shells          ...  344
 # of primitive gaussian functions       ...  748
 # of contracted shells                  ...   44
 # of contracted basis functions         ...  152
 Highest angular momentum                ...    4
 Maximum contraction depth               ...   19
 Integral package used                   ... LIBINT
 Integral threshhold            Thresh   ...  1.000e-10
 Primitive cut-off              TCut     ...  1.000e-11


------------------------------ INTEGRAL EVALUATION ----------------------------


 * One electron integrals 
 Pre-screening matrix                    ... done
 Shell pair data                         ... done (   0.002 sec)



           ************************************************************
           *        Program running with 24 parallel MPI-processes    *
           *              working on a common directory               *
           ************************************************************
-------------------------------------------------------------------------------
                                 ORCA SCF
-------------------------------------------------------------------------------

------------
SCF SETTINGS
------------
Hamiltonian:
 Density Functional     Method          .... DFT(GTOs)
 Exchange Functional    Exchange        .... WB97X-V
 Correlation Functional Correlation     .... WB97X-V
 Gradients option       PostSCFGGA      .... off
 Hybrid DFT is turned on
   Fraction HF Exchange ScalHFX         ....  0.167000
   Scaling of DF-GGA-X  ScalDFX         ....  0.000000
   Scaling of DF-GGA-C  ScalDFC         ....  1.000000
   Scaling of DF-LDA-C  ScalLDAC        ....  1.000000
   Perturbative correction              ....  0.000000
   Density functional embedding theory  .... OFF
 Long-range corrected/Screened/Range-Separated Hybrid DFT is turned on
   Amount of maximum screened exact exchange              ....  0.833000
   Range separation parameter mu (erf(mu*r12)/r12)        ....  0.300000
   NL short-range parameter             ....  6.000000
   NL long-range parameter              ....  0.010000


General Settings:
 Integral files         IntName         .... 10_TiBr
 Hartree-Fock type      HFTyp           .... UHF
 Total Charge           Charge          ....    0
 Multiplicity           Mult            ....    4
 Number of Electrons    NEL             ....   57
 Basis Dimension        Dim             ....  152
 Nuclear Repulsion      ENuc            ....    169.2511298880 Eh

Convergence Acceleration:
 DIIS                   CNVDIIS         .... on
   Start iteration      DIISMaxIt       ....    12
   Startup error        DIISStart       ....  0.200000
   # of expansion vecs  DIISMaxEq       ....     5
   Bias factor          DIISBfac        ....   1.050
   Max. coefficient     DIISMaxC        ....  10.000
 Newton-Raphson         CNVNR           .... off
 SOSCF                  CNVSOSCF        .... off
 Level Shifting         CNVShift        .... on
   Level shift para.    LevelShift      ....    0.2500
   Turn off err/grad.   ShiftErr        ....    0.0010
 Zerner damping         CNVZerner       .... off
 Static damping         CNVDamp         .... on
   Fraction old density DampFac         ....    0.7000
   Max. Damping (<1)    DampMax         ....    0.9800
   Min. Damping (>=0)   DampMin         ....    0.0000
   Turn off err/grad.   DampErr         ....    0.1000
 Fernandez-Rico         CNVRico         .... off

SCF Procedure:
 Maximum # iterations   MaxIter         ....   125
 SCF integral mode      SCFMode         .... Direct
   Integral package                     .... LIBINT
 Reset frequency        DirectResetFreq ....    20
 Integral Threshold     Thresh          ....  1.000e-10 Eh
 Primitive CutOff       TCut            ....  1.000e-11 Eh

Convergence Tolerance:
 Convergence Check Mode ConvCheckMode   .... Total+1el-Energy
 Convergence forced     ConvForced      .... 0
 Energy Change          TolE            ....  1.000e-06 Eh
 1-El. energy change                    ....  1.000e-03 Eh
 DIIS Error             TolErr          ....  1.000e-06


Diagonalization of the overlap matrix:
Smallest eigenvalue                        ... 4.839e-05
Time for diagonalization                   ...    0.006 sec
Threshold for overlap eigenvalues          ... 1.000e-08
Number of eigenvalues below threshold      ... 0
Time for construction of square roots      ...    0.003 sec
Total time needed                          ...    0.009 sec

-------------------
DFT GRID GENERATION
-------------------

General Integration Accuracy     IntAcc      ...  4.670
Radial Grid Type                 RadialGrid  ... Gauss-Chebyshev
Angular Grid (max. acc.)         AngularGrid ... Lebedev-302
Angular grid pruning method      GridPruning ... 3 (G Style)
Weight generation scheme         WeightScheme... Becke
Basis function cutoff            BFCut       ...    1.0000e-10
Integration weight cutoff        WCut        ...    1.0000e-14
Grids for H and He will be reduced by one unit

# of grid points (after initial pruning)     ...  19280 (   0.0 sec)
# of grid points (after weights+screening)   ...  19254 (   0.0 sec)
nearest neighbour list constructed           ...    0.0 sec
Grid point re-assignment to atoms done       ...    0.0 sec
Grid point division into batches done        ...    0.2 sec
Reduced shell lists constructed in    0.2 sec

Total number of grid points                  ...    19254
Total number of batches                      ...      302
Average number of points per batch           ...       63
Average number of grid points per atom       ...     9627
Average number of shells per batch           ...    20.07 (45.62%)
Average number of basis functions per batch  ...    56.93 (37.45%)
Average number of large shells per batch     ...    13.36 (66.55%)
Average number of large basis fcns per batch ...    38.07 (66.88%)
Maximum spatial batch extension              ...  24.49, 24.19, 17.83 au
Average spatial batch extension              ...   0.84,  0.83,  0.67 au

Time for grid setup =    0.200 sec

------------------------------
INITIAL GUESS: MODEL POTENTIAL
------------------------------
Loading Hartree-Fock densities                     ... done
Calculating cut-offs                               ... done
Setting up the integral package                    ... done
Initializing the effective Hamiltonian             ... done
Starting the Coulomb interaction                   ... done (   0.0 sec)
Reading the grid                                   ... done
Mapping shells                                     ... done
Starting the XC term evaluation                    ... done (   0.0 sec)
  promolecular density results
     # of electrons  =     56.999997824
     EX              =   -100.252019118
     EC              =     -3.481170893
     EX+EC           =   -103.733190011
Transforming the Hamiltonian                       ... done (   0.0 sec)
Diagonalizing the Hamiltonian                      ... done (   0.0 sec)
Back transforming the eigenvectors                 ... done (   0.0 sec)
Now organizing SCF variables                       ... done
                      ------------------
                      INITIAL GUESS DONE (   0.3 sec)
                      ------------------
--------------
SCF ITERATIONS
--------------
ITER       Energy         Delta-E        Max-DP      RMS-DP      [F,P]     Damp
               ***  Starting incremental Fock matrix formation  ***
  0  -3422.0854924817   0.000000000000 1.02031367  0.01891716  0.5296712 0.7000
  1  -3422.3062066207  -0.220714139023 0.56204980  0.00879422  0.2729542 0.7000
                               ***Turning on DIIS***
  2  -3422.6622303658  -0.356023745037 0.39563125  0.00622736  0.1923527 0.7000
  3  -3422.9214281092  -0.259197743385 0.27667539  0.00414180  0.1051590 0.7000
  4  -3423.0976076111  -0.176179501932 0.62169441  0.00934542  0.0651154 0.0000
  5  -3423.5252769041  -0.427669293021 0.05115063  0.00101838  0.0292377 0.0000
  6  -3423.5307772560  -0.005500351852 0.03184167  0.00035133  0.0093327 0.0000
  7  -3423.5320628057  -0.001285549729 0.02005269  0.00021131  0.0058527 0.0000
  8  -3423.5325452970  -0.000482491306 0.01138486  0.00017493  0.0036370 0.0000
  9  -3423.5327402495  -0.000194952479 0.00788910  0.00007774  0.0025496 0.0000
 10  -3423.5328098860  -0.000069636557 0.00597762  0.00005315  0.0017170 0.0000
 11  -3423.5328405653  -0.000030679285 0.00484779  0.00002957  0.0013357 0.0000
 12  -3423.5328583818  -0.000017816505 0.00455393  0.00003770  0.0010821 0.0000
 13  -3423.5328729959  -0.000014614057 0.00848909  0.00006269  0.0009480 0.0000
 14  -3423.5328948507  -0.000021854773 0.00388546  0.00004321  0.0005815 0.0000
 15  -3423.5329036074  -0.000008756718 0.01180899  0.00010477  0.0005100 0.0000
 16  -3423.5329194037  -0.000015796341 0.00582890  0.00005461  0.0001675 0.0000
 17  -3423.5329219162  -0.000002512511 0.00070157  0.00000712  0.0000393 0.0000
 18  -3423.5329219823  -0.000000066109 0.00019275  0.00000193  0.0000119 0.0000
                 **** Energy Check signals convergence ****

               *****************************************************
               *                     SUCCESS                       *
               *           SCF CONVERGED AFTER  19 CYCLES          *
               *****************************************************


Setting up the DFT-NL grid :

General Integration Accuracy     IntAcc      ...  4.340
Radial Grid Type                 RadialGrid  ... Gauss-Chebyshev
Angular Grid (max. acc.)         AngularGrid ... Lebedev-110
Angular grid pruning method      GridPruning ... 3 (G Style)
Weight generation scheme         WeightScheme... Becke
Basis function cutoff            BFCut       ...    1.0000e-10
Integration weight cutoff        WCut        ...    1.0000e-14
Grids for H and He will be reduced by one unit

# of grid points (after initial pruning)     ...   5862 (   0.0 sec)
# of grid points (after weights+screening)   ...   5839 (   0.0 sec)
nearest neighbour list constructed           ...    0.0 sec
Grid point re-assignment to atoms done       ...    0.0 sec
Grid point division into batches done        ...    0.0 sec
Reduced shell lists constructed in    0.0 sec

Total number of grid points                  ...     5839
Total number of batches                      ...       92
Average number of points per batch           ...       63
Average number of grid points per atom       ...     2920
Average number of shells per batch           ...    24.80 (56.36%)
Average number of basis functions per batch  ...    83.20 (54.74%)
Average number of large shells per batch     ...    19.20 (77.42%)
Average number of large basis fcns per batch ...    62.40 (75.00%)
Maximum spatial batch extension              ...  18.98, 28.73, 16.44 au
Average spatial batch extension              ...   0.76,  1.04,  0.71 au

Final grid set up in    0.0 sec

-------------------------------------------------------------------------------
                         DFT-NL dispersion correction                          
-------------------------------------------------------------------------------

SC Energy -3423.532921989 
NL    Energy 0.238323171 
SC+NL Energy -3423.294598818 
NL done in    0.1 sec
-------------------------------------------------------------------------------

----------------
TOTAL SCF ENERGY
----------------

Total Energy       :        -3423.29459882 Eh          -93152.58182 eV

Components:
Nuclear Repulsion  :          169.25112989 Eh            4605.55739 eV
Electronic Energy  :        -3592.54572871 Eh          -97758.13921 eV
One Electron Energy:        -5086.87848917 Eh         -138421.00088 eV
Two Electron Energy:         1494.33276047 Eh           40662.86167 eV

Virial components:
Potential Energy   :        -6842.01850447 Eh         -186180.78876 eV
Kinetic Energy     :         3418.72390566 Eh           93028.20694 eV
Virial Ratio       :            2.00133696


DFT components:
N(Alpha)           :       30.000001326536 electrons
N(Beta)            :       27.000001321575 electrons
N(Total)           :       57.000002648112 electrons
E(X)               :     -100.356000464516 Eh       
E(C)               :       -3.465073961602 Eh       
NL Energy, E(C,NL) :        0.238323170527 Eh       
E(XC)              :     -103.582751255591 Eh       
DFET-embed. en.    :        0.000000000000 Eh       

---------------
SCF CONVERGENCE
---------------

  Last Energy change         ...   -6.2059e-09  Tolerance :   1.0000e-06
  Last MAX-Density change    ...    5.3970e-05  Tolerance :   1.0000e-05
  Last RMS-Density change    ...    6.9390e-07  Tolerance :   1.0000e-06
  Last DIIS Error            ...    5.3123e-06  Tolerance :   1.0000e-06

             **** THE GBW FILE WAS UPDATED (10_TiBr.gbw) ****
             **** DENSITY FILE WAS UPDATED (10_TiBr.scfp) ****
             **** ENERGY FILE WAS UPDATED (10_TiBr.en.tmp) ****
----------------------
UHF SPIN CONTAMINATION
----------------------

Warning: in a DFT calculation there is little theoretical justification to 
         calculate <S**2> as in Hartree-Fock theory. We will do it anyways
         but you should keep in mind that the values have only limited relevance

Expectation value of <S**2>     :     3.755007
Ideal value S*(S+1) for S=1.5   :     3.750000
Deviation                       :     0.005007

             **** THE GBW FILE WAS UPDATED (10_TiBr.gbw) ****
             **** DENSITY FILE WAS UPDATED (10_TiBr.scfp) ****
----------------
ORBITAL ENERGIES
----------------
                 SPIN UP ORBITALS
  NO   OCC          E(Eh)            E(eV) 
   0   1.0000    -482.612163    -13132.5446 
   1   1.0000    -178.762127     -4864.3648 
   2   1.0000     -62.486440     -1700.3425 
   3   1.0000     -56.290165     -1531.7333 
   4   1.0000     -56.289785     -1531.7229 
   5   1.0000     -56.289785     -1531.7229 
   6   1.0000     -19.907554      -541.7121 
   7   1.0000     -16.622812      -452.3297 
   8   1.0000     -16.610784      -452.0024 
   9   1.0000     -16.610784      -452.0024 
  10   1.0000      -8.750362      -238.1095 
  11   1.0000      -6.573075      -178.8625 
  12   1.0000      -6.571533      -178.8205 
  13   1.0000      -6.571533      -178.8205 
  14   1.0000      -2.696984       -73.3887 
  15   1.0000      -2.696336       -73.3710 
  16   1.0000      -2.696336       -73.3710 
  17   1.0000      -2.695064       -73.3364 
  18   1.0000      -2.695034       -73.3356 
  19   1.0000      -2.476574       -67.3910 
  20   1.0000      -1.597873       -43.4803 
  21   1.0000      -1.585917       -43.1550 
  22   1.0000      -1.585917       -43.1550 
  23   1.0000      -0.841982       -22.9115 
  24   1.0000      -0.404064       -10.9952 
  25   1.0000      -0.370867       -10.0918 
  26   1.0000      -0.370867       -10.0918 
  27   1.0000      -0.274474        -7.4688 
  28   1.0000      -0.274473        -7.4688 
  29   1.0000      -0.262311        -7.1379 
  30   0.0000      -0.017017        -0.4631 
  31   0.0000       0.004629         0.1260 
  32   0.0000       0.004629         0.1260 
  33   0.0000       0.022720         0.6183 
  34   0.0000       0.027592         0.7508 
  35   0.0000       0.036644         0.9971 
  36   0.0000       0.036644         0.9971 
  37   0.0000       0.052826         1.4375 
  38   0.0000       0.052826         1.4375 
  39   0.0000       0.053343         1.4515 
  40   0.0000       0.053343         1.4515 
  41   0.0000       0.054279         1.4770 
  42   0.0000       0.061300         1.6681 
  43   0.0000       0.061300         1.6681 
  44   0.0000       0.088983         2.4213 
  45   0.0000       0.123389         3.3576 
  46   0.0000       0.146016         3.9733 
  47   0.0000       0.149622         4.0714 
  48   0.0000       0.149622         4.0714 
  49   0.0000       0.178887         4.8678 
  50   0.0000       0.178887         4.8678 
  51   0.0000       0.183880         5.0036 
  52   0.0000       0.183880         5.0036 
  53   0.0000       0.185854         5.0573 
  54   0.0000       0.197929         5.3859 
  55   0.0000       0.197929         5.3859 
  56   0.0000       0.225817         6.1448 
  57   0.0000       0.267558         7.2806 
  58   0.0000       0.267558         7.2806 
  59   0.0000       0.306507         8.3405 
  60   0.0000       0.309063         8.4100 
  61   0.0000       0.309063         8.4100 
  62   0.0000       0.350895         9.5483 
  63   0.0000       0.350895         9.5483 
  64   0.0000       0.358494         9.7551 
  65   0.0000       0.384942        10.4748 
  66   0.0000       0.384942        10.4748 
  67   0.0000       0.387299        10.5389 
  68   0.0000       0.387299        10.5389 
  69   0.0000       0.429440        11.6857 
  70   0.0000       0.481644        13.1062 
  71   0.0000       0.570722        15.5301 
  72   0.0000       0.570722        15.5301 
  73   0.0000       0.595652        16.2085 
  74   0.0000       0.595652        16.2085 
  75   0.0000       0.611671        16.6444 
  76   0.0000       0.611671        16.6444 
  77   0.0000       0.663850        18.0643 
  78   0.0000       0.699103        19.0236 
  79   0.0000       0.727929        19.8080 
  80   0.0000       0.727930        19.8080 
  81   0.0000       0.727954        19.8086 
  82   0.0000       0.737339        20.0640 
  83   0.0000       0.737339        20.0640 
  84   0.0000       0.777456        21.1557 
  85   0.0000       0.777456        21.1557 
  86   0.0000       0.874266        23.7900 
  87   0.0000       0.874266        23.7900 
  88   0.0000       0.877636        23.8817 
  89   0.0000       0.930423        25.3181 
  90   0.0000       0.930424        25.3181 
  91   0.0000       0.983061        26.7504 
  92   0.0000       0.983061        26.7504 
  93   0.0000       0.987794        26.8792 
  94   0.0000       0.987795        26.8793 
  95   0.0000       1.002285        27.2736 
  96   0.0000       1.002285        27.2736 
  97   0.0000       1.029837        28.0233 
  98   0.0000       1.029839        28.0234 
  99   0.0000       1.042369        28.3643 
 100   0.0000       1.068645        29.0793 
 101   0.0000       1.068645        29.0793 
 102   0.0000       1.157611        31.5002 
 103   0.0000       1.182166        32.1684 
 104   0.0000       1.182166        32.1684 
 105   0.0000       1.287037        35.0221 
 106   0.0000       1.287038        35.0221 
 107   0.0000       1.368642        37.2426 
 108   0.0000       1.510486        41.1024 
 109   0.0000       1.510486        41.1024 
 110   0.0000       1.729878        47.0724 
 111   0.0000       1.972406        53.6719 
 112   0.0000       1.972406        53.6719 
 113   0.0000       1.975337        53.7517 
 114   0.0000       2.069795        56.3220 
 115   0.0000       2.069795        56.3220 
 116   0.0000       2.089803        56.8664 
 117   0.0000       2.148636        58.4674 
 118   0.0000       2.148659        58.4680 
 119   0.0000       2.178294        59.2744 
 120   0.0000       2.178294        59.2744 
 121   0.0000       2.211573        60.1800 
 122   0.0000       2.211583        60.1802 
 123   0.0000       2.259248        61.4773 
 124   0.0000       2.259251        61.4773 
 125   0.0000       2.276651        61.9508 
 126   0.0000       2.276651        61.9508 
 127   0.0000       2.291929        62.3666 
 128   0.0000       2.330413        63.4138 
 129   0.0000       2.330413        63.4138 
 130   0.0000       2.348537        63.9070 
 131   0.0000       2.396853        65.2217 
 132   0.0000       2.396853        65.2217 
 133   0.0000       2.638031        71.7845 
 134   0.0000       2.926028        79.6213 
 135   0.0000       3.333806        90.7175 
 136   0.0000       3.333858        90.7189 
 137   0.0000       3.347183        91.0815 
 138   0.0000       3.347183        91.0815 
 139   0.0000       3.375157        91.8427 
 140   0.0000       3.375162        91.8428 
 141   0.0000       3.395989        92.4096 
 142   0.0000       3.395989        92.4096 
 143   0.0000       3.536603        96.2359 
 144   0.0000       3.536603        96.2359 
 145   0.0000       3.541860        96.3789 
 146   0.0000       3.562061        96.9286 
 147   0.0000       3.562067        96.9288 
 148   0.0000       3.717032       101.1456 
 149   0.0000       3.717032       101.1456 
 150   0.0000       4.122779       112.1865 
 151   0.0000       4.624887       125.8496 

                 SPIN DOWN ORBITALS
  NO   OCC          E(Eh)            E(eV) 
   0   1.0000    -482.612305    -13132.5485 
   1   1.0000    -178.761452     -4864.3464 
   2   1.0000     -62.486504     -1700.3442 
   3   1.0000     -56.290361     -1531.7386 
   4   1.0000     -56.289903     -1531.7261 
   5   1.0000     -56.289903     -1531.7261 
   6   1.0000     -19.884861      -541.0946 
   7   1.0000     -16.613082      -452.0649 
   8   1.0000     -16.587440      -451.3672 
   9   1.0000     -16.587440      -451.3672 
  10   1.0000      -8.750552      -238.1146 
  11   1.0000      -6.573394      -178.8712 
  12   1.0000      -6.571733      -178.8259 
  13   1.0000      -6.571733      -178.8259 
  14   1.0000      -2.697232       -73.3954 
  15   1.0000      -2.696593       -73.3780 
  16   1.0000      -2.696593       -73.3780 
  17   1.0000      -2.695247       -73.3414 
  18   1.0000      -2.695218       -73.3406 
  19   1.0000      -2.401372       -65.3447 
  20   1.0000      -1.550746       -42.1980 
  21   1.0000      -1.482844       -40.3502 
  22   1.0000      -1.482844       -40.3502 
  23   1.0000      -0.843464       -22.9518 
  24   1.0000      -0.401767       -10.9326 
  25   1.0000      -0.371331       -10.1044 
  26   1.0000      -0.371331       -10.1044 
  27   0.0000      -0.006632        -0.1805 
  28   0.0000       0.025431         0.6920 
  29   0.0000       0.025718         0.6998 
  30   0.0000       0.025719         0.6998 
  31   0.0000       0.033706         0.9172 
  32   0.0000       0.050865         1.3841 
  33   0.0000       0.056872         1.5476 
  34   0.0000       0.056872         1.5476 
  35   0.0000       0.058389         1.5888 
  36   0.0000       0.058389         1.5888 
  37   0.0000       0.066268         1.8032 
  38   0.0000       0.073470         1.9992 
  39   0.0000       0.073470         1.9992 
  40   0.0000       0.089388         2.4324 
  41   0.0000       0.089388         2.4324 
  42   0.0000       0.106013         2.8848 
  43   0.0000       0.110936         3.0187 
  44   0.0000       0.110936         3.0187 
  45   0.0000       0.146575         3.9885 
  46   0.0000       0.151754         4.1294 
  47   0.0000       0.151907         4.1336 
  48   0.0000       0.151907         4.1336 
  49   0.0000       0.209604         5.7036 
  50   0.0000       0.209604         5.7036 
  51   0.0000       0.217285         5.9126 
  52   0.0000       0.218377         5.9424 
  53   0.0000       0.218378         5.9424 
  54   0.0000       0.228039         6.2052 
  55   0.0000       0.228039         6.2052 
  56   0.0000       0.233129         6.3438 
  57   0.0000       0.281470         7.6592 
  58   0.0000       0.281471         7.6592 
  59   0.0000       0.323482         8.8024 
  60   0.0000       0.337902         9.1948 
  61   0.0000       0.337902         9.1948 
  62   0.0000       0.368526        10.0281 
  63   0.0000       0.368526        10.0281 
  64   0.0000       0.369003        10.0411 
  65   0.0000       0.400501        10.8982 
  66   0.0000       0.400501        10.8982 
  67   0.0000       0.402737        10.9590 
  68   0.0000       0.402737        10.9590 
  69   0.0000       0.447098        12.1662 
  70   0.0000       0.511986        13.9318 
  71   0.0000       0.579651        15.7731 
  72   0.0000       0.579651        15.7731 
  73   0.0000       0.623206        16.9583 
  74   0.0000       0.623206        16.9583 
  75   0.0000       0.663488        18.0544 
  76   0.0000       0.663490        18.0545 
  77   0.0000       0.673698        18.3323 
  78   0.0000       0.700143        19.0519 
  79   0.0000       0.742999        20.2180 
  80   0.0000       0.743000        20.2181 
  81   0.0000       0.745724        20.2922 
  82   0.0000       0.745724        20.2922 
  83   0.0000       0.749335        20.3904 
  84   0.0000       0.788271        21.4499 
  85   0.0000       0.788271        21.4499 
  86   0.0000       0.882402        24.0114 
  87   0.0000       0.882402        24.0114 
  88   0.0000       0.889317        24.1995 
  89   0.0000       0.940565        25.5941 
  90   0.0000       0.940569        25.5942 
  91   0.0000       1.000646        27.2290 
  92   0.0000       1.000646        27.2290 
  93   0.0000       1.021417        27.7942 
  94   0.0000       1.021422        27.7943 
  95   0.0000       1.055424        28.7195 
  96   0.0000       1.055430        28.7197 
  97   0.0000       1.062882        28.9225 
  98   0.0000       1.064370        28.9630 
  99   0.0000       1.064370        28.9630 
 100   0.0000       1.084711        29.5165 
 101   0.0000       1.084711        29.5165 
 102   0.0000       1.168541        31.7976 
 103   0.0000       1.193625        32.4802 
 104   0.0000       1.193625        32.4802 
 105   0.0000       1.301583        35.4179 
 106   0.0000       1.301587        35.4180 
 107   0.0000       1.383860        37.6568 
 108   0.0000       1.522051        41.4171 
 109   0.0000       1.522051        41.4171 
 110   0.0000       1.735097        47.2144 
 111   0.0000       2.011255        54.7290 
 112   0.0000       2.014936        54.8292 
 113   0.0000       2.014937        54.8292 
 114   0.0000       2.082636        56.6714 
 115   0.0000       2.082636        56.6714 
 116   0.0000       2.103864        57.2490 
 117   0.0000       2.149996        58.5044 
 118   0.0000       2.150019        58.5050 
 119   0.0000       2.177405        59.2502 
 120   0.0000       2.177405        59.2502 
 121   0.0000       2.233686        60.7817 
 122   0.0000       2.233690        60.7818 
 123   0.0000       2.280026        62.0426 
 124   0.0000       2.280026        62.0426 
 125   0.0000       2.309870        62.8548 
 126   0.0000       2.309874        62.8549 
 127   0.0000       2.323484        63.2252 
 128   0.0000       2.336625        63.5828 
 129   0.0000       2.336625        63.5828 
 130   0.0000       2.351506        63.9877 
 131   0.0000       2.426359        66.0246 
 132   0.0000       2.426359        66.0246 
 133   0.0000       2.673701        72.7551 
 134   0.0000       2.951072        80.3027 
 135   0.0000       3.389249        92.2262 
 136   0.0000       3.389249        92.2262 
 137   0.0000       3.406382        92.6924 
 138   0.0000       3.406416        92.6933 
 139   0.0000       3.406654        92.6998 
 140   0.0000       3.406764        92.7028 
 141   0.0000       3.428492        93.2940 
 142   0.0000       3.428492        93.2940 
 143   0.0000       3.577311        97.3436 
 144   0.0000       3.609857        98.2292 
 145   0.0000       3.609861        98.2293 
 146   0.0000       3.632787        98.8532 
 147   0.0000       3.632787        98.8532 
 148   0.0000       3.762058       102.3708 
 149   0.0000       3.762058       102.3708 
 150   0.0000       4.160473       113.2122 
 151   0.0000       4.627044       125.9083 

                    ********************************
                    * MULLIKEN POPULATION ANALYSIS *
                    ********************************

--------------------------------------------
MULLIKEN ATOMIC CHARGES AND SPIN POPULATIONS
--------------------------------------------
   0 Ti:    0.385221    2.980521
   1 Br:   -0.385221    0.019479
Sum of atomic charges         :   -0.0000000
Sum of atomic spin populations:    3.0000000

-----------------------------------------------------
MULLIKEN REDUCED ORBITAL CHARGES AND SPIN POPULATIONS
-----------------------------------------------------
CHARGE
  0 Tis       :     6.668868  s :     6.668868
      pz      :     4.145949  p :    12.206446
      px      :     4.030248
      py      :     4.030248
      dz2     :     0.564495  d :     2.703044
      dxz     :     0.071348
      dyz     :     0.071348
      dx2y2   :     0.997926
      dxy     :     0.997926
      f0      :     0.006871  f :     0.028002
      f+1     :     0.010310
      f-1     :     0.010310
      f+2     :     0.000255
      f-2     :     0.000255
      f+3     :     0.000000
      f-3     :     0.000000
      g0      :     0.002319  g :     0.008420
      g+1     :     0.003040
      g-1     :     0.003040
      g+2     :     0.000011
      g-2     :     0.000011
      g+3     :     0.000000
      g-3     :     0.000000
      g+4     :     0.000000
      g-4     :     0.000000
  1 Brs       :     7.985915  s :     7.985915
      pz      :     5.622642  p :    17.384128
      px      :     5.880743
      py      :     5.880743
      dz2     :     2.002591  d :    10.013208
      dxz     :     2.003911
      dyz     :     2.003911
      dx2y2   :     2.001398
      dxy     :     2.001398
      f0      :     0.000349  f :     0.001970
      f+1     :     0.000400
      f-1     :     0.000400
      f+2     :     0.000410
      f-2     :     0.000410
      f+3     :     0.000000
      f-3     :     0.000000

SPIN
  0 Tis       :     0.503228  s :     0.503228
      pz      :     0.036602  p :     0.047590
      px      :     0.005494
      py      :     0.005494
      dz2     :     0.424617  d :     2.431910
      dxz     :     0.005720
      dyz     :     0.005720
      dx2y2   :     0.997926
      dxy     :     0.997926
      f0      :    -0.000004  f :    -0.002408
      f+1     :    -0.001457
      f-1     :    -0.001457
      f+2     :     0.000255
      f-2     :     0.000255
      f+3     :    -0.000000
      f-3     :    -0.000000
      g0      :     0.000088  g :     0.000202
      g+1     :     0.000053
      g-1     :     0.000053
      g+2     :     0.000003
      g-2     :     0.000003
      g+3     :    -0.000000
      g-3     :    -0.000000
      g+4     :    -0.000000
      g-4     :    -0.000000
  1 Brs       :     0.035382  s :     0.035382
      pz      :    -0.003123  p :    -0.024663
      px      :    -0.010770
      py      :    -0.010770
      dz2     :     0.002612  d :     0.006907
      dxz     :     0.000742
      dyz     :     0.000742
      dx2y2   :     0.001406
      dxy     :     0.001406
      f0      :     0.000598  f :     0.001853
      f+1     :     0.000218
      f-1     :     0.000218
      f+2     :     0.000410
      f-2     :     0.000410
      f+3     :    -0.000000
      f-3     :    -0.000000


                     *******************************
                     * LOEWDIN POPULATION ANALYSIS *
                     *******************************

-------------------------------------------
LOEWDIN ATOMIC CHARGES AND SPIN POPULATIONS
-------------------------------------------
   0 Ti:   -0.256052    2.933350
   1 Br:    0.256052    0.066650

----------------------------------------------------
LOEWDIN REDUCED ORBITAL CHARGES AND SPIN POPULATIONS
----------------------------------------------------
CHARGE
  0 Tis       :     6.521664  s :     6.521664
      pz      :     4.212930  p :    12.287888
      px      :     4.037479
      py      :     4.037479
      dz2     :     0.699974  d :     2.990017
      dxz     :     0.155510
      dyz     :     0.155510
      dx2y2   :     0.989512
      dxy     :     0.989512
      f0      :     0.124696  f :     0.332263
      f+1     :     0.102914
      f-1     :     0.102914
      f+2     :     0.000870
      f-2     :     0.000870
      f+3     :     0.000000
      f-3     :     0.000000
      g0      :     0.037859  g :     0.124219
      g+1     :     0.043053
      g-1     :     0.043053
      g+2     :     0.000127
      g-2     :     0.000127
      g+3     :     0.000000
      g-3     :     0.000000
      g+4     :     0.000000
      g-4     :     0.000000
  1 Brs       :     7.529402  s :     7.529402
      pz      :     5.709912  p :    16.979581
      px      :     5.634834
      py      :     5.634834
      dz2     :     2.115816  d :    10.161669
      dxz     :     2.017488
      dyz     :     2.017488
      dx2y2   :     2.005439
      dxy     :     2.005439
      f0      :     0.047748  f :     0.073296
      f+1     :     0.008722
      f-1     :     0.008722
      f+2     :     0.004052
      f-2     :     0.004052
      f+3     :     0.000000
      f-3     :     0.000000

SPIN
  0 Tis       :     0.505694  s :     0.505694
      pz      :     0.029035  p :     0.039641
      px      :     0.005303
      py      :     0.005303
      dz2     :     0.403155  d :     2.391543
      dxz     :     0.004684
      dyz     :     0.004684
      dx2y2   :     0.989510
      dxy     :     0.989510
      f0      :    -0.000220  f :    -0.002848
      f+1     :    -0.002165
      f-1     :    -0.002165
      f+2     :     0.000851
      f-2     :     0.000851
      f+3     :    -0.000000
      f-3     :    -0.000000
      g0      :    -0.000169  g :    -0.000680
      g+1     :    -0.000328
      g-1     :    -0.000328
      g+2     :     0.000072
      g-2     :     0.000072
      g+3     :    -0.000000
      g-3     :    -0.000000
      g+4     :    -0.000000
      g-4     :    -0.000000
  1 Brs       :     0.022059  s :     0.022059
      pz      :     0.031241  p :     0.015504
      px      :    -0.007869
      py      :    -0.007869
      dz2     :     0.007455  d :     0.019210
      dxz     :     0.000362
      dyz     :     0.000362
      dx2y2   :     0.005516
      dxy     :     0.005516
      f0      :     0.001750  f :     0.009877
      f+1     :     0.000012
      f-1     :     0.000012
      f+2     :     0.004052
      f-2     :     0.004052
      f+3     :    -0.000000
      f-3     :    -0.000000


                      *****************************
                      * MAYER POPULATION ANALYSIS *
                      *****************************

  NA   - Mulliken gross atomic population
  ZA   - Total nuclear charge
  QA   - Mulliken gross atomic charge
  VA   - Mayer's total valence
  BVA  - Mayer's bonded valence
  FA   - Mayer's free valence

  ATOM       NA         ZA         QA         VA         BVA        FA
  0 Ti    21.6148    22.0000     0.3852     4.1026     1.2337     2.8689
  1 Br    35.3852    35.0000    -0.3852     1.2391     1.2337     0.0054

  Mayer bond orders larger than 0.100000
B(  0-Ti,  1-Br) :   1.2337 

-------
TIMINGS
-------

Total SCF time: 0 days 0 hours 7 min 43 sec 

Total time                  ....     463.630 sec
Sum of individual times     ....     463.213 sec  ( 99.9%)

Fock matrix formation       ....     462.710 sec  ( 99.8%)
  XC integration            ....       0.658 sec  (  0.1% of F)
    Basis function eval.    ....       0.168 sec  ( 25.5% of XC)
    Density eval.           ....       0.088 sec  ( 13.4% of XC)
    XC-Functional eval.     ....       0.030 sec  (  4.6% of XC)
    XC-Potential eval.      ....       0.176 sec  ( 26.8% of XC)
Diagonalization             ....       0.110 sec  (  0.0%)
Density matrix formation    ....       0.014 sec  (  0.0%)
Population analysis         ....       0.008 sec  (  0.0%)
Initial guess               ....       0.110 sec  (  0.0%)
Orbital Transformation      ....       0.000 sec  (  0.0%)
Orbital Orthonormalization  ....       0.000 sec  (  0.0%)
DIIS solution               ....       0.040 sec  (  0.0%)
Grid generation             ....       0.220 sec  (  0.0%)

-------------------------   --------------------
FINAL SINGLE POINT ENERGY     -3423.294598818012
-------------------------   --------------------


                            ***************************************
                            *     ORCA property calculations      *
                            ***************************************

                                    ---------------------
                                    Active property flags
                                    ---------------------
   (+) Dipole Moment


------------------------------------------------------------------------------
                       ORCA ELECTRIC PROPERTIES CALCULATION
------------------------------------------------------------------------------

Dipole Moment Calculation                       ... on
Quadrupole Moment Calculation                   ... off
Polarizability Calculation                      ... off
GBWName                                         ... 10_TiBr.gbw
Electron density file                           ... 10_TiBr.scfp
The origin for moment calculation is the CENTER OF MASS  = ( 0.000000,  0.000000  2.459298)

-------------
DIPOLE MOMENT
-------------
                                X             Y             Z
Electronic contribution:      0.00000       0.00000       0.70011
Nuclear contribution   :      0.00000       0.00000      -2.89414
                        -----------------------------------------
Total Dipole Moment    :      0.00000       0.00000      -2.19402
                        -----------------------------------------
Magnitude (a.u.)       :      2.19402
Magnitude (Debye)      :      5.57677



--------------------
Rotational spectrum 
--------------------
 
Rotational constants in cm-1:     0.000000     0.097124     0.097124 
Rotational constants in MHz :     0.000000  2911.693161  2911.693161 

 Dipole components along the rotational axes: 
x,y,z [a.u.] :    -2.194025     0.000000     0.000000 
x,y,z [Debye]:    -5.576767     0.000000     0.000000 

 

Timings for individual modules:

Sum of individual times         ...      468.816 sec (=   7.814 min)
GTO integral calculation        ...        4.657 sec (=   0.078 min)   1.0 %
SCF iterations                  ...      464.159 sec (=   7.736 min)  99.0 %
                             ****ORCA TERMINATED NORMALLY****
TOTAL RUN TIME: 0 days 0 hours 7 minutes 49 seconds 434 msec
