
                                 *****************
                                 * O   R   C   A *
                                 *****************

           --- An Ab Initio, DFT and Semiempirical electronic structure package ---

                  #######################################################
                  #                        -***-                        #
                  #          Department of theory and spectroscopy      #
                  #               Directorship: Frank Neese             #
                  #        Max Planck Institute fuer Kohlenforschung    #
                  #                Kaiser Wilhelm Platz 1               #
                  #                 D-45470 Muelheim/Ruhr               #
                  #                      Germany                        #
                  #                                                     #
                  #                  All rights reserved                #
                  #                        -***-                        #
                  #######################################################


                         Program Version 4.2.0 -  RELEASE  -


 With contributions from (in alphabetic order):
   Daniel Aravena         : Magnetic Suceptibility
   Michael Atanasov       : Ab Initio Ligand Field Theory (pilot matlab implementation)
   Alexander A. Auer      : GIAO ZORA, VPT2
   Ute Becker             : Parallelization
   Giovanni Bistoni       : ED, misc. LED, open-shell LED, HFLED
   Martin Brehm           : Molecular dynamics
   Dmytro Bykov           : SCF Hessian
   Vijay G. Chilkuri      : MRCI spin determinant printing, contributions to CSF-ICE
   Dipayan Datta          : RHF DLPNO-CCSD density
   Achintya Kumar Dutta   : EOM-CC, STEOM-CC
   Dmitry Ganyushin       : Spin-Orbit,Spin-Spin,Magnetic field MRCI
   Miquel Garcia          : C-PCM Hessian, Gaussian charge scheme
   Yang Guo               : DLPNO-NEVPT2, CIM, IAO-localization
   Andreas Hansen         : Spin unrestricted coupled pair/coupled cluster methods
   Benjamin Helmich-Paris : CASSCF linear response (MC-RPA)
   Lee Huntington         : MR-EOM, pCC
   Robert Izsak           : Overlap fitted RIJCOSX, COSX-SCS-MP3, EOM
   Christian Kollmar      : KDIIS, OOCD, Brueckner-CCSD(T), CCSD density
   Simone Kossmann        : Meta GGA functionals, TD-DFT gradient, OOMP2, MP2 Hessian
   Martin Krupicka        : AUTO-CI
   Lucas Lang             : DCDCAS
   Dagmar Lenk            : GEPOL surface, SMD
   Dimitrios Liakos       : Extrapolation schemes; Compound Job, initial MDCI parallelization
   Dimitrios Manganas     : Further ROCIS development; embedding schemes
   Dimitrios Pantazis     : SARC Basis sets
   Taras Petrenko         : DFT Hessian,TD-DFT gradient, ASA, ECA, R-Raman, ABS, FL, XAS/XES, NRVS
   Peter Pinski           : DLPNO-MP2, DLPNO-MP2 Gradient
   Christoph Reimann      : Effective Core Potentials
   Marius Retegan         : Local ZFS, SOC
   Christoph Riplinger    : Optimizer, TS searches, QM/MM, DLPNO-CCSD(T), (RO)-DLPNO pert. Triples
   Tobias Risthaus        : Range-separated hybrids, TD-DFT gradient, RPA, STAB
   Michael Roemelt        : Original ROCIS implementation
   Masaaki Saitow         : Open-shell DLPNO-CCSD energy and density
   Barbara Sandhoefer     : DKH picture change effects
   Avijit Sen             : IP-ROCIS
   Kantharuban Sivalingam : CASSCF convergence, NEVPT2, FIC-MRCI
   Bernardo de Souza      : ESD, SOC TD-DFT
   Georgi Stoychev        : AutoAux, RI-MP2 NMR
   Willem Van den Heuvel  : Paramagnetic NMR
   Boris Wezisla          : Elementary symmetry handling
   Frank Wennmohs         : Technical directorship


 We gratefully acknowledge several colleagues who have allowed us to
 interface, adapt or use parts of their codes:
   Stefan Grimme, W. Hujo, H. Kruse,             : VdW corrections, initial TS optimization,
                  C. Bannwarth                     DFT functionals, gCP, sTDA/sTD-DF
   Ed Valeev, F. Pavosevic, A. Kumar             : LibInt (2-el integral package), F12 methods
   Garnet Chan, S. Sharma, J. Yang, R. Olivares  : DMRG
   Ulf Ekstrom                                   : XCFun DFT Library
   Mihaly Kallay                                 : mrcc  (arbitrary order and MRCC methods)
   Andreas Klamt, Michael Diedenhofen            : otool_cosmo (COSMO solvation model)
   Jiri Pittner, Ondrej Demel                    : Mk-CCSD
   Frank Weinhold                                : gennbo (NPA and NBO analysis)
   Christopher J. Cramer and Donald G. Truhlar   : smd solvation model
   Lars Goerigk                                  : TD-DFT with DH, B97 family of functionals
   V. Asgeirsson, H. Jonsson                     : NEB implementation
   FAccTs GmbH                                   : IRC, NEB, NEB-TS, Multilevel, MM, QM/MM, CI optimization
   S Lehtola, MJT Oliveira, MAL Marques          : LibXC Library


 Your calculation uses the libint2 library for the computation of 2-el integrals
 For citations please refer to: http://libint.valeyev.net

 Your ORCA version has been built with support for libXC version: 4.2.3
 For citations please refer to: https://tddft.org/programs/libxc/

 This ORCA versions uses:
   CBLAS   interface :  Fast vector & matrix operations
   LAPACKE interface :  Fast linear algebra routines
   SCALAPACK package :  Parallel linear algebra routines


Your calculation utilizes the DFT-NL dispersion correction.
Cite in your paper:
Vydrov, O. A.; Van Voorhis, T. J. Chem. Phys. 2010, 133, 244103
Hujo, W.; Grimme, S. J. Chem. Theory Comput. 2011, 7, 3866 
   

----- Orbital basis set information -----
Your calculation utilizes the basis: aug-cc-pVTZ 
    H, B-Ne : Obtained from the ccRepo (grant-hill.group.shef.ac.uk/ccrepo) Feb. 2017
              R. A. Kendall, T. H. Dunning, Jr., R. J. Harrison, J. Chem. Phys. 96, 6796 (1992)
         He : Obtained from the ccRepo (grant-hill.group.shef.ac.uk/ccrepo) Feb. 2017
              D. E. Woon, T. H. Dunning, Jr., J. Chem. Phys. 100, 2975 (1994)
  Li-Be, Na : Obtained from the ccRepo (grant-hill.group.shef.ac.uk/ccrepo) Feb. 2017
              B. P. Prascher, D. E. Woon, K. A. Peterson, T. H. Dunning, Jr., A. K. Wilson, Theor. Chem. Acc. 128, 69 (2011)
         Mg : Obtained from the Peterson Research Group Website (tyr0.chem.wsu.edu/~kipeters) Feb. 2017
              B. P. Prascher, D. E. Woon, K. A. Peterson, T. H. Dunning, Jr., A. K. Wilson, Theor. Chem. Acc. 128, 69 (2011)
      Al-Ar : Obtained from the ccRepo (grant-hill.group.shef.ac.uk/ccrepo) Feb. 2017
              D. E. Woon, T. H. Dunning, Jr., J. Chem. Phys. 98, 1358 (1993)
      Sc-Zn : Obtained from the ccRepo (grant-hill.group.shef.ac.uk/ccrepo) Feb. 2017
              N. B. Balabanov, K. A. Peterson, J. Chem. Phys. 123, 064107 (2005)
              N. B. Balabanov, K. A. Peterson, J. Chem. Phys. 125, 074110 (2006)
      Ga-Kr : Obtained from the ccRepo (grant-hill.group.shef.ac.uk/ccrepo) Feb. 2017
              A. K. Wilson, D. E. Woon, K. A. Peterson, T. H. Dunning, Jr., J. Chem. Phys. 110, 7667 (1999)
     Ag, Au : Obtained from the Peterson Research Group Website (tyr0.chem.wsu.edu/~kipeters) Feb. 2017
              K. A. Peterson, C. Puzzarini, Theor. Chem. Acc. 114, 283 (2005)

----- AuxJK basis set information -----
Your calculation utilizes the auxiliary basis: def2/JK
   H-Ba, Hf-Rn: F. Weigend, J. Comput. Chem. 29, 167 (2008).

================================================================================
                                        WARNINGS
                       Please study these warnings very carefully!
================================================================================


WARNING: your system is open-shell and RHF/RKS was chosen
  ===> : WILL SWITCH to UHF/UKS


INFO   : the flag for use of LIBINT has been found!

================================================================================
                                       INPUT FILE
================================================================================
NAME = 15_VCl.in
|  1> #
|  2> # 15_VCl wb97x-v/aug-cc-pvtz
|  3> #
|  4> ! wb97x-v aug-cc-pvtz def2/jk grid4 nofinalgrid
|  5> 
|  6> *xyz 0 5
|  7>   V   0.00000000000000      0.00000000000000     -0.10591307408469
|  8>   Cl  0.00000000000000      0.00000000000000      2.10591307408469
|  9> *
| 10> 
| 11> %pal
| 12> nprocs 24
| 13> end
| 14> 
| 15> 
| 16>                          ****END OF INPUT****
================================================================================

                       ****************************
                       * Single Point Calculation *
                       ****************************

---------------------------------
CARTESIAN COORDINATES (ANGSTROEM)
---------------------------------
  V      0.000000    0.000000   -0.105913
  Cl     0.000000    0.000000    2.105913

----------------------------
CARTESIAN COORDINATES (A.U.)
----------------------------
  NO LB      ZA    FRAG     MASS         X           Y           Z
   0 V    23.0000    0    50.940    0.000000    0.000000   -0.200147
   1 Cl   17.0000    0    35.453    0.000000    0.000000    3.979599

--------------------------------
INTERNAL COORDINATES (ANGSTROEM)
--------------------------------
 V      0   0   0     0.000000000000     0.00000000     0.00000000
 Cl     1   0   0     2.211826148169     0.00000000     0.00000000

---------------------------
INTERNAL COORDINATES (A.U.)
---------------------------
 V      0   0   0     0.000000000000     0.00000000     0.00000000
 Cl     1   0   0     4.179745675886     0.00000000     0.00000000

---------------------
BASIS SET INFORMATION
---------------------
There are 2 groups of distinct atoms

 Group   1 Type V   : 116s77p23d3f2g contracted to 8s7p5d3f2g pattern {19191919191911/151515151511/77711/111/11}
 Group   2 Type Cl  : 42s17p3d2f contracted to 6s5p3d2f pattern {131313111/77111/111/11}

Atom   0V    basis set group =>   1
Atom   1Cl   basis set group =>   2
----------------------------------
AUXILIARY/JK BASIS SET INFORMATION
----------------------------------
There are 2 groups of distinct atoms

 Group   1 Type V   : 19s14p12d10f7g3h1i contracted to 16s13p11d9f5g3h1i pattern {4111111111111111/2111111111111/21111111111/211111111/31111/111/1}
 Group   2 Type Cl  : 16s12p10d4f1g contracted to 13s11p9d4f1g pattern {4111111111111/21111111111/211111111/1111/1}

Atom   0V    basis set group =>   1
Atom   1Cl   basis set group =>   2


           ************************************************************
           *        Program running with 24 parallel MPI-processes    *
           *              working on a common directory               *
           ************************************************************
------------------------------------------------------------------------------
                           ORCA GTO INTEGRAL CALCULATION
------------------------------------------------------------------------------

                         BASIS SET STATISTICS AND STARTUP INFO

 # of primitive gaussian shells          ...  285
 # of primitive gaussian functions       ...  623
 # of contracted shells                  ...   41
 # of contracted basis functions         ...  143
 Highest angular momentum                ...    4
 Maximum contraction depth               ...   19
 Integral package used                   ... LIBINT
 Integral threshhold            Thresh   ...  1.000e-10
 Primitive cut-off              TCut     ...  1.000e-11


------------------------------ INTEGRAL EVALUATION ----------------------------


 * One electron integrals 
 Pre-screening matrix                    ... done
 Shell pair data                         ... done (   0.001 sec)



           ************************************************************
           *        Program running with 24 parallel MPI-processes    *
           *              working on a common directory               *
           ************************************************************
-------------------------------------------------------------------------------
                                 ORCA SCF
-------------------------------------------------------------------------------

------------
SCF SETTINGS
------------
Hamiltonian:
 Density Functional     Method          .... DFT(GTOs)
 Exchange Functional    Exchange        .... WB97X-V
 Correlation Functional Correlation     .... WB97X-V
 Gradients option       PostSCFGGA      .... off
 Hybrid DFT is turned on
   Fraction HF Exchange ScalHFX         ....  0.167000
   Scaling of DF-GGA-X  ScalDFX         ....  0.000000
   Scaling of DF-GGA-C  ScalDFC         ....  1.000000
   Scaling of DF-LDA-C  ScalLDAC        ....  1.000000
   Perturbative correction              ....  0.000000
   Density functional embedding theory  .... OFF
 Long-range corrected/Screened/Range-Separated Hybrid DFT is turned on
   Amount of maximum screened exact exchange              ....  0.833000
   Range separation parameter mu (erf(mu*r12)/r12)        ....  0.300000
   NL short-range parameter             ....  6.000000
   NL long-range parameter              ....  0.010000


General Settings:
 Integral files         IntName         .... 15_VCl
 Hartree-Fock type      HFTyp           .... UHF
 Total Charge           Charge          ....    0
 Multiplicity           Mult            ....    5
 Number of Electrons    NEL             ....   40
 Basis Dimension        Dim             ....  143
 Nuclear Repulsion      ENuc            ....     93.5463615061 Eh

Convergence Acceleration:
 DIIS                   CNVDIIS         .... on
   Start iteration      DIISMaxIt       ....    12
   Startup error        DIISStart       ....  0.200000
   # of expansion vecs  DIISMaxEq       ....     5
   Bias factor          DIISBfac        ....   1.050
   Max. coefficient     DIISMaxC        ....  10.000
 Newton-Raphson         CNVNR           .... off
 SOSCF                  CNVSOSCF        .... off
 Level Shifting         CNVShift        .... on
   Level shift para.    LevelShift      ....    0.2500
   Turn off err/grad.   ShiftErr        ....    0.0010
 Zerner damping         CNVZerner       .... off
 Static damping         CNVDamp         .... on
   Fraction old density DampFac         ....    0.7000
   Max. Damping (<1)    DampMax         ....    0.9800
   Min. Damping (>=0)   DampMin         ....    0.0000
   Turn off err/grad.   DampErr         ....    0.1000
 Fernandez-Rico         CNVRico         .... off

SCF Procedure:
 Maximum # iterations   MaxIter         ....   125
 SCF integral mode      SCFMode         .... Direct
   Integral package                     .... LIBINT
 Reset frequency        DirectResetFreq ....    20
 Integral Threshold     Thresh          ....  1.000e-10 Eh
 Primitive CutOff       TCut            ....  1.000e-11 Eh

Convergence Tolerance:
 Convergence Check Mode ConvCheckMode   .... Total+1el-Energy
 Convergence forced     ConvForced      .... 0
 Energy Change          TolE            ....  1.000e-06 Eh
 1-El. energy change                    ....  1.000e-03 Eh
 DIIS Error             TolErr          ....  1.000e-06


Diagonalization of the overlap matrix:
Smallest eigenvalue                        ... 6.367e-05
Time for diagonalization                   ...    0.005 sec
Threshold for overlap eigenvalues          ... 1.000e-08
Number of eigenvalues below threshold      ... 0
Time for construction of square roots      ...    0.003 sec
Total time needed                          ...    0.008 sec

-------------------
DFT GRID GENERATION
-------------------

General Integration Accuracy     IntAcc      ...  4.670
Radial Grid Type                 RadialGrid  ... Gauss-Chebyshev
Angular Grid (max. acc.)         AngularGrid ... Lebedev-302
Angular grid pruning method      GridPruning ... 3 (G Style)
Weight generation scheme         WeightScheme... Becke
Basis function cutoff            BFCut       ...    1.0000e-10
Integration weight cutoff        WCut        ...    1.0000e-14
Grids for H and He will be reduced by one unit

# of grid points (after initial pruning)     ...  16402 (   0.0 sec)
# of grid points (after weights+screening)   ...  16375 (   0.0 sec)
nearest neighbour list constructed           ...    0.0 sec
Grid point re-assignment to atoms done       ...    0.0 sec
Grid point division into batches done        ...    0.1 sec
Reduced shell lists constructed in    0.1 sec

Total number of grid points                  ...    16375
Total number of batches                      ...      257
Average number of points per batch           ...       63
Average number of grid points per atom       ...     8188
Average number of shells per batch           ...    16.83 (41.06%)
Average number of basis functions per batch  ...    44.50 (31.12%)
Average number of large shells per batch     ...     9.17 (54.46%)
Average number of large basis fcns per batch ...    24.83 (55.81%)
Maximum spatial batch extension              ...  24.49, 24.19, 18.13 au
Average spatial batch extension              ...   0.85,  0.83,  0.66 au

Time for grid setup =    0.161 sec

------------------------------
INITIAL GUESS: MODEL POTENTIAL
------------------------------
Loading Hartree-Fock densities                     ... done
Calculating cut-offs                               ... done
Setting up the integral package                    ... done
Initializing the effective Hamiltonian             ... done
Starting the Coulomb interaction                   ... done (   0.0 sec)
Reading the grid                                   ... done
Mapping shells                                     ... done
Starting the XC term evaluation                    ... done (   0.0 sec)
  promolecular density results
     # of electrons  =     39.999998021
     EX              =    -53.866864899
     EC              =     -2.183630349
     EX+EC           =    -56.050495248
Transforming the Hamiltonian                       ... done (   0.0 sec)
Diagonalizing the Hamiltonian                      ... done (   0.0 sec)
Back transforming the eigenvectors                 ... done (   0.0 sec)
Now organizing SCF variables                       ... done
                      ------------------
                      INITIAL GUESS DONE (   0.3 sec)
                      ------------------
--------------
SCF ITERATIONS
--------------
ITER       Energy         Delta-E        Max-DP      RMS-DP      [F,P]     Damp
               ***  Starting incremental Fock matrix formation  ***
  0  -1401.2499673044   0.000000000000 1.63297088  0.03157620  0.7823697 0.7000
  1  -1402.0005198076  -0.750552503222 0.56823259  0.01258305  0.3105138 0.7000
  2  -1402.6946262918  -0.694106484161 0.41754322  0.00898661  0.2154796 0.7000
                               ***Turning on DIIS***
  3  -1403.1361512647  -0.441524972877 0.30876350  0.00633728  0.1281505 0.7000
  4  -1403.4360804135  -0.299929148791 0.70892575  0.01449198  0.0865969 0.0000
  5  -1404.1719648789  -0.735884465482 0.06021291  0.00109488  0.0723997 0.0000
  6  -1404.1887413212  -0.016776442285 0.07606455  0.00137746  0.0254305 0.0000
  7  -1404.1933067099  -0.004565388690 0.01935883  0.00038669  0.0133653 0.0000
  8  -1404.1948621488  -0.001555438927 0.01036305  0.00023615  0.0058121 0.0000
  9  -1404.1953388496  -0.000476700761 0.00908996  0.00010297  0.0035303 0.0000
 10  -1404.1955871972  -0.000248347585 0.00744096  0.00008491  0.0021477 0.0000
 11  -1404.1956976813  -0.000110484067 0.00528215  0.00005859  0.0015499 0.0000
 12  -1404.1957478041  -0.000050122847 0.00517895  0.00005011  0.0013700 0.0000
 13  -1404.1957759173  -0.000028113189 0.00410247  0.00003101  0.0011699 0.0000
 14  -1404.1957906421  -0.000014724772 0.00750627  0.00006252  0.0008911 0.0000
 15  -1404.1958091666  -0.000018524521 0.00549967  0.00003990  0.0005300 0.0000
 16  -1404.1958180562  -0.000008889641 0.00469432  0.00003414  0.0002799 0.0000
 17  -1404.1958216726  -0.000003616326 0.00155981  0.00001120  0.0000981 0.0000
                 **** Energy Check signals convergence ****

               *****************************************************
               *                     SUCCESS                       *
               *           SCF CONVERGED AFTER  18 CYCLES          *
               *****************************************************


Setting up the DFT-NL grid :

General Integration Accuracy     IntAcc      ...  4.340
Radial Grid Type                 RadialGrid  ... Gauss-Chebyshev
Angular Grid (max. acc.)         AngularGrid ... Lebedev-110
Angular grid pruning method      GridPruning ... 3 (G Style)
Weight generation scheme         WeightScheme... Becke
Basis function cutoff            BFCut       ...    1.0000e-10
Integration weight cutoff        WCut        ...    1.0000e-14
Grids for H and He will be reduced by one unit

# of grid points (after initial pruning)     ...   4816 (   0.0 sec)
# of grid points (after weights+screening)   ...   4791 (   0.0 sec)
nearest neighbour list constructed           ...    0.0 sec
Grid point re-assignment to atoms done       ...    0.0 sec
Grid point division into batches done        ...    0.0 sec
Reduced shell lists constructed in    0.0 sec

Total number of grid points                  ...     4791
Total number of batches                      ...       76
Average number of points per batch           ...       63
Average number of grid points per atom       ...     2396
Average number of shells per batch           ...    23.60 (57.56%)
Average number of basis functions per batch  ...    79.60 (55.66%)
Average number of large shells per batch     ...    18.00 (76.27%)
Average number of large basis fcns per batch ...    54.80 (68.84%)
Maximum spatial batch extension              ...  18.79, 28.73, 16.39 au
Average spatial batch extension              ...   0.97,  1.26,  0.86 au

Final grid set up in    0.0 sec

-------------------------------------------------------------------------------
                         DFT-NL dispersion correction                          
-------------------------------------------------------------------------------

SC Energy -1404.195822076 
NL    Energy 0.167321184 
SC+NL Energy -1404.028500892 
NL done in    0.0 sec
-------------------------------------------------------------------------------

----------------
TOTAL SCF ENERGY
----------------

Total Energy       :        -1404.02850089 Eh          -38205.55784 eV

Components:
Nuclear Repulsion  :           93.54636151 Eh            2545.52591 eV
Electronic Energy  :        -1497.57486240 Eh          -40751.08375 eV
One Electron Energy:        -2119.32234207 Eh          -57669.69280 eV
Two Electron Energy:          621.74747967 Eh           16918.60905 eV

Virial components:
Potential Energy   :        -2805.66540509 Eh          -76346.03703 eV
Kinetic Energy     :         1401.63690420 Eh           38140.47919 eV
Virial Ratio       :            2.00170629


DFT components:
N(Alpha)           :       21.999997204268 electrons
N(Beta)            :       17.999997349480 electrons
N(Total)           :       39.999994553749 electrons
E(X)               :      -54.067623591640 Eh       
E(C)               :       -2.157150264496 Eh       
NL Energy, E(C,NL) :        0.167321184107 Eh       
E(XC)              :      -56.057452672029 Eh       
DFET-embed. en.    :        0.000000000000 Eh       

---------------
SCF CONVERGENCE
---------------

  Last Energy change         ...   -4.0322e-07  Tolerance :   1.0000e-06
  Last MAX-Density change    ...    4.9691e-04  Tolerance :   1.0000e-05
  Last RMS-Density change    ...    4.3394e-06  Tolerance :   1.0000e-06
  Last DIIS Error            ...    3.2856e-05  Tolerance :   1.0000e-06

             **** THE GBW FILE WAS UPDATED (15_VCl.gbw) ****
             **** DENSITY FILE WAS UPDATED (15_VCl.scfp) ****
             **** ENERGY FILE WAS UPDATED (15_VCl.en.tmp) ****
----------------------
UHF SPIN CONTAMINATION
----------------------

Warning: in a DFT calculation there is little theoretical justification to 
         calculate <S**2> as in Hartree-Fock theory. We will do it anyways
         but you should keep in mind that the values have only limited relevance

Expectation value of <S**2>     :     6.006134
Ideal value S*(S+1) for S=2.0   :     6.000000
Deviation                       :     0.006134

             **** THE GBW FILE WAS UPDATED (15_VCl.gbw) ****
             **** DENSITY FILE WAS UPDATED (15_VCl.scfp) ****
----------------
ORBITAL ENERGIES
----------------
                 SPIN UP ORBITALS
  NO   OCC          E(Eh)            E(eV) 
   0   1.0000    -196.773480     -5354.4786 
   1   1.0000    -101.489917     -2761.6810 
   2   1.0000     -22.289790      -606.5360 
   3   1.0000     -18.787311      -511.2287 
   4   1.0000     -18.787305      -511.2286 
   5   1.0000     -18.778591      -510.9914 
   6   1.0000      -9.506727      -258.6912 
   7   1.0000      -7.257497      -197.4865 
   8   1.0000      -7.256157      -197.4501 
   9   1.0000      -7.256156      -197.4501 
  10   1.0000      -2.774246       -75.4911 
  11   1.0000      -1.808755       -49.2187 
  12   1.0000      -1.808740       -49.2183 
  13   1.0000      -1.806814       -49.1659 
  14   1.0000      -0.883495       -24.0411 
  15   1.0000      -0.430873       -11.7246 
  16   1.0000      -0.413981       -11.2650 
  17   1.0000      -0.413962       -11.2645 
  18   1.0000      -0.358291        -9.7496 
  19   1.0000      -0.322876        -8.7859 
  20   1.0000      -0.322839        -8.7849 
  21   1.0000      -0.278846        -7.5878 
  22   0.0000      -0.012037        -0.3276 
  23   0.0000       0.010097         0.2748 
  24   0.0000       0.012357         0.3363 
  25   0.0000       0.012358         0.3363 
  26   0.0000       0.025110         0.6833 
  27   0.0000       0.030304         0.8246 
  28   0.0000       0.050702         1.3797 
  29   0.0000       0.050707         1.3798 
  30   0.0000       0.066547         1.8108 
  31   0.0000       0.069598         1.8939 
  32   0.0000       0.069601         1.8940 
  33   0.0000       0.069604         1.8940 
  34   0.0000       0.069636         1.8949 
  35   0.0000       0.101441         2.7604 
  36   0.0000       0.132170         3.5965 
  37   0.0000       0.172509         4.6942 
  38   0.0000       0.177230         4.8227 
  39   0.0000       0.177231         4.8227 
  40   0.0000       0.191565         5.2127 
  41   0.0000       0.191565         5.2128 
  42   0.0000       0.227235         6.1834 
  43   0.0000       0.227838         6.1998 
  44   0.0000       0.239398         6.5144 
  45   0.0000       0.244074         6.6416 
  46   0.0000       0.244085         6.6419 
  47   0.0000       0.285532         7.7697 
  48   0.0000       0.348706         9.4888 
  49   0.0000       0.349624         9.5137 
  50   0.0000       0.368581        10.0296 
  51   0.0000       0.436840        11.8870 
  52   0.0000       0.436848        11.8872 
  53   0.0000       0.453531        12.3412 
  54   0.0000       0.461984        12.5712 
  55   0.0000       0.461987        12.5713 
  56   0.0000       0.500945        13.6314 
  57   0.0000       0.536852        14.6085 
  58   0.0000       0.539180        14.6718 
  59   0.0000       0.562229        15.2990 
  60   0.0000       0.562233        15.2992 
  61   0.0000       0.620481        16.8841 
  62   0.0000       0.658372        17.9152 
  63   0.0000       0.658375        17.9153 
  64   0.0000       0.703763        19.1504 
  65   0.0000       0.703773        19.1506 
  66   0.0000       0.764797        20.8112 
  67   0.0000       0.779297        21.2057 
  68   0.0000       0.787585        21.4313 
  69   0.0000       0.872667        23.7465 
  70   0.0000       0.872676        23.7467 
  71   0.0000       0.876709        23.8565 
  72   0.0000       0.877833        23.8871 
  73   0.0000       0.886319        24.1180 
  74   0.0000       0.939542        25.5662 
  75   0.0000       0.959532        26.1102 
  76   0.0000       0.959542        26.1105 
  77   0.0000       1.006418        27.3860 
  78   0.0000       1.136245        30.9188 
  79   0.0000       1.136245        30.9188 
  80   0.0000       1.220218        33.2038 
  81   0.0000       1.222234        33.2587 
  82   0.0000       1.368039        37.2262 
  83   0.0000       1.368044        37.2264 
  84   0.0000       1.396821        38.0094 
  85   0.0000       1.444573        39.3088 
  86   0.0000       1.444591        39.3093 
  87   0.0000       1.466055        39.8934 
  88   0.0000       1.481093        40.3026 
  89   0.0000       1.553769        42.2802 
  90   0.0000       1.706294        46.4306 
  91   0.0000       1.706301        46.4308 
  92   0.0000       1.707144        46.4538 
  93   0.0000       1.709265        46.5115 
  94   0.0000       1.735040        47.2128 
  95   0.0000       1.735044        47.2130 
  96   0.0000       1.911374        52.0111 
  97   0.0000       1.917893        52.1885 
  98   0.0000       1.954051        53.1724 
  99   0.0000       2.021048        54.9955 
 100   0.0000       2.021058        54.9958 
 101   0.0000       2.068402        56.2841 
 102   0.0000       2.231299        60.7167 
 103   0.0000       2.266268        61.6683 
 104   0.0000       2.266285        61.6687 
 105   0.0000       2.380815        64.7853 
 106   0.0000       2.381149        64.7944 
 107   0.0000       2.494101        67.8679 
 108   0.0000       2.500244        68.0351 
 109   0.0000       2.500247        68.0352 
 110   0.0000       2.617270        71.2195 
 111   0.0000       2.677998        72.8720 
 112   0.0000       2.678005        72.8722 
 113   0.0000       2.848883        77.5220 
 114   0.0000       2.884098        78.4803 
 115   0.0000       2.893288        78.7304 
 116   0.0000       2.893288        78.7304 
 117   0.0000       2.970147        80.8218 
 118   0.0000       2.972640        80.8896 
 119   0.0000       3.043703        82.8234 
 120   0.0000       3.043726        82.8240 
 121   0.0000       3.065568        83.4184 
 122   0.0000       3.119710        84.8916 
 123   0.0000       3.119722        84.8919 
 124   0.0000       3.381847        92.0247 
 125   0.0000       3.725717       101.3819 
 126   0.0000       4.911896       133.6595 
 127   0.0000       4.915460       133.7565 
 128   0.0000       4.915467       133.7567 
 129   0.0000       4.928532       134.1122 
 130   0.0000       5.043324       137.2358 
 131   0.0000       5.043353       137.2366 
 132   0.0000       5.230164       142.3200 
 133   0.0000       5.233974       142.4237 
 134   0.0000       5.235551       142.4666 
 135   0.0000       5.235556       142.4667 
 136   0.0000       5.300737       144.2404 
 137   0.0000       5.313559       144.5893 
 138   0.0000       5.347079       145.5014 
 139   0.0000       5.431218       147.7910 
 140   0.0000       5.431247       147.7917 
 141   0.0000       5.606503       152.5607 
 142   0.0000       6.400453       174.1652 

                 SPIN DOWN ORBITALS
  NO   OCC          E(Eh)            E(eV) 
   0   1.0000    -196.772422     -5354.4498 
   1   1.0000    -101.489871     -2761.6798 
   2   1.0000     -22.250608      -605.4698 
   3   1.0000     -18.755844      -510.3725 
   4   1.0000     -18.755824      -510.3719 
   5   1.0000     -18.744732      -510.0701 
   6   1.0000      -9.506678      -258.6899 
   7   1.0000      -7.258141      -197.5041 
   8   1.0000      -7.255735      -197.4386 
   9   1.0000      -7.255735      -197.4386 
  10   1.0000      -2.657425       -72.3122 
  11   1.0000      -1.686281       -45.8860 
  12   1.0000      -1.686218       -45.8843 
  13   1.0000      -1.665474       -45.3199 
  14   1.0000      -0.881808       -23.9952 
  15   1.0000      -0.425647       -11.5824 
  16   1.0000      -0.395206       -10.7541 
  17   1.0000      -0.395203       -10.7540 
  18   0.0000      -0.003166        -0.0861 
  19   0.0000       0.027784         0.7560 
  20   0.0000       0.027792         0.7563 
  21   0.0000       0.028059         0.7635 
  22   0.0000       0.037740         1.0270 
  23   0.0000       0.058396         1.5890 
  24   0.0000       0.063627         1.7314 
  25   0.0000       0.067863         1.8466 
  26   0.0000       0.073800         2.0082 
  27   0.0000       0.073813         2.0086 
  28   0.0000       0.084761         2.3065 
  29   0.0000       0.086948         2.3660 
  30   0.0000       0.086978         2.3668 
  31   0.0000       0.087242         2.3740 
  32   0.0000       0.094251         2.5647 
  33   0.0000       0.099548         2.7088 
  34   0.0000       0.099575         2.7096 
  35   0.0000       0.119646         3.2557 
  36   0.0000       0.162604         4.4247 
  37   0.0000       0.179312         4.8793 
  38   0.0000       0.183510         4.9935 
  39   0.0000       0.183515         4.9937 
  40   0.0000       0.224929         6.1206 
  41   0.0000       0.224965         6.1216 
  42   0.0000       0.265453         7.2233 
  43   0.0000       0.265866         7.2346 
  44   0.0000       0.270906         7.3717 
  45   0.0000       0.282834         7.6963 
  46   0.0000       0.282859         7.6970 
  47   0.0000       0.293692         7.9918 
  48   0.0000       0.361464         9.8359 
  49   0.0000       0.362145         9.8545 
  50   0.0000       0.394404        10.7323 
  51   0.0000       0.451069        12.2742 
  52   0.0000       0.451082        12.2746 
  53   0.0000       0.461026        12.5452 
  54   0.0000       0.493765        13.4360 
  55   0.0000       0.493766        13.4361 
  56   0.0000       0.536298        14.5934 
  57   0.0000       0.570101        15.5132 
  58   0.0000       0.571491        15.5511 
  59   0.0000       0.600572        16.3424 
  60   0.0000       0.600603        16.3432 
  61   0.0000       0.657394        17.8886 
  62   0.0000       0.697073        18.9683 
  63   0.0000       0.697120        18.9696 
  64   0.0000       0.721949        19.6452 
  65   0.0000       0.721963        19.6456 
  66   0.0000       0.802695        21.8424 
  67   0.0000       0.818842        22.2818 
  68   0.0000       0.827460        22.5163 
  69   0.0000       0.882939        24.0260 
  70   0.0000       0.884679        24.0733 
  71   0.0000       0.889303        24.1992 
  72   0.0000       0.890423        24.2296 
  73   0.0000       0.890434        24.2299 
  74   0.0000       0.960621        26.1398 
  75   0.0000       0.991026        26.9672 
  76   0.0000       0.991052        26.9679 
  77   0.0000       1.018882        27.7252 
  78   0.0000       1.138841        30.9894 
  79   0.0000       1.138841        30.9895 
  80   0.0000       1.230105        33.4729 
  81   0.0000       1.231056        33.4987 
  82   0.0000       1.397899        38.0388 
  83   0.0000       1.397925        38.0395 
  84   0.0000       1.414706        38.4961 
  85   0.0000       1.497599        40.7517 
  86   0.0000       1.497603        40.7518 
  87   0.0000       1.531924        41.6858 
  88   0.0000       1.536881        41.8206 
  89   0.0000       1.586089        43.1597 
  90   0.0000       1.736272        47.2464 
  91   0.0000       1.736303        47.2472 
  92   0.0000       1.744158        47.4610 
  93   0.0000       1.744215        47.4625 
  94   0.0000       1.774441        48.2850 
  95   0.0000       1.774443        48.2850 
  96   0.0000       1.944436        52.9108 
  97   0.0000       1.947050        52.9819 
  98   0.0000       1.968329        53.5609 
  99   0.0000       2.046835        55.6972 
 100   0.0000       2.046858        55.6978 
 101   0.0000       2.091476        56.9120 
 102   0.0000       2.309967        62.8574 
 103   0.0000       2.330086        63.4049 
 104   0.0000       2.330142        63.4064 
 105   0.0000       2.383536        64.8593 
 106   0.0000       2.383686        64.8634 
 107   0.0000       2.504115        68.1404 
 108   0.0000       2.504118        68.1405 
 109   0.0000       2.512300        68.3632 
 110   0.0000       2.654390        72.2296 
 111   0.0000       2.690105        73.2015 
 112   0.0000       2.690117        73.2018 
 113   0.0000       2.895068        78.7788 
 114   0.0000       2.895068        78.7788 
 115   0.0000       2.925650        79.6110 
 116   0.0000       2.936625        79.9096 
 117   0.0000       2.980730        81.1098 
 118   0.0000       2.987026        81.2811 
 119   0.0000       3.067519        83.4714 
 120   0.0000       3.083645        83.9103 
 121   0.0000       3.083658        83.9106 
 122   0.0000       3.175250        86.4029 
 123   0.0000       3.175275        86.4036 
 124   0.0000       3.433398        93.4275 
 125   0.0000       3.767815       102.5275 
 126   0.0000       4.996632       135.9653 
 127   0.0000       4.996635       135.9654 
 128   0.0000       5.025726       136.7570 
 129   0.0000       5.045589       137.2974 
 130   0.0000       5.138547       139.8270 
 131   0.0000       5.138574       139.8277 
 132   0.0000       5.300145       144.2243 
 133   0.0000       5.300364       144.2302 
 134   0.0000       5.323922       144.8713 
 135   0.0000       5.323923       144.8713 
 136   0.0000       5.383315       146.4874 
 137   0.0000       5.395272       146.8128 
 138   0.0000       5.409178       147.1912 
 139   0.0000       5.503792       149.7658 
 140   0.0000       5.503830       149.7668 
 141   0.0000       5.677494       154.4925 
 142   0.0000       6.406843       174.3391 

                    ********************************
                    * MULLIKEN POPULATION ANALYSIS *
                    ********************************

--------------------------------------------
MULLIKEN ATOMIC CHARGES AND SPIN POPULATIONS
--------------------------------------------
   0 V :    0.443575    3.959218
   1 Cl:   -0.443575    0.040782
Sum of atomic charges         :   -0.0000000
Sum of atomic spin populations:    4.0000000

-----------------------------------------------------
MULLIKEN REDUCED ORBITAL CHARGES AND SPIN POPULATIONS
-----------------------------------------------------
CHARGE
  0 V s       :     6.735858  s :     6.735858
      pz      :     4.133220  p :    12.236203
      px      :     4.051527
      py      :     4.051456
      dz2     :     0.517621  d :     3.554964
      dxz     :     1.019194
      dyz     :     1.019262
      dx2y2   :     0.000001
      dxy     :     0.998886
      f0      :     0.007107  f :     0.025784
      f+1     :     0.009208
      f-1     :     0.009209
      f+2     :     0.000000
      f-2     :     0.000150
      f+3     :     0.000054
      f-3     :     0.000054
      g0      :     0.001134  g :     0.003616
      g+1     :     0.001217
      g-1     :     0.001217
      g+2     :     0.000000
      g-2     :     0.000000
      g+3     :     0.000004
      g-3     :     0.000004
      g+4     :     0.000038
      g-4     :     0.000000
  1 Cls       :     5.945946  s :     5.945946
      pz      :     3.656384  p :    11.478407
      px      :     3.911011
      py      :     3.911011
      dz2     :     0.002473  d :     0.017591
      dxz     :     0.007197
      dyz     :     0.007198
      dx2y2   :     0.000000
      dxy     :     0.000722
      f0      :     0.000218  f :     0.001632
      f+1     :     0.000586
      f-1     :     0.000586
      f+2     :     0.000000
      f-2     :     0.000241
      f+3     :     0.000000
      f-3     :     0.000000

SPIN
  0 V s       :     0.587524  s :     0.587524
      pz      :     0.043111  p :     0.091251
      px      :     0.024110
      py      :     0.024030
      dz2     :     0.381996  d :     3.281630
      dxz     :     0.950347
      dyz     :     0.950399
      dx2y2   :     0.000001
      dxy     :     0.998886
      f0      :     0.000321  f :    -0.001243
      f+1     :    -0.000897
      f-1     :    -0.000896
      f+2     :     0.000000
      f-2     :     0.000150
      f+3     :     0.000039
      f-3     :     0.000039
      g0      :    -0.000069  g :     0.000056
      g+1     :     0.000041
      g-1     :     0.000042
      g+2     :     0.000000
      g-2     :     0.000000
      g+3     :     0.000004
      g-3     :     0.000004
      g+4     :     0.000033
      g-4     :     0.000000
  1 Cls       :     0.016369  s :     0.016369
      pz      :    -0.032401  p :     0.016188
      px      :     0.024280
      py      :     0.024309
      dz2     :     0.002736  d :     0.007269
      dxz     :     0.001906
      dyz     :     0.001905
      dx2y2   :     0.000000
      dxy     :     0.000722
      f0      :     0.000378  f :     0.000956
      f+1     :     0.000169
      f-1     :     0.000168
      f+2     :     0.000000
      f-2     :     0.000241
      f+3     :    -0.000000
      f-3     :    -0.000000


                     *******************************
                     * LOEWDIN POPULATION ANALYSIS *
                     *******************************

-------------------------------------------
LOEWDIN ATOMIC CHARGES AND SPIN POPULATIONS
-------------------------------------------
   0 V :    0.014112    3.829245
   1 Cl:   -0.014112    0.170755

----------------------------------------------------
LOEWDIN REDUCED ORBITAL CHARGES AND SPIN POPULATIONS
----------------------------------------------------
CHARGE
  0 V s       :     6.551511  s :     6.551511
      pz      :     4.208071  p :    12.357145
      px      :     4.074580
      py      :     4.074494
      dz2     :     0.654302  d :     3.741745
      dxz     :     1.047104
      dyz     :     1.047170
      dx2y2   :     0.000001
      dxy     :     0.993168
      f0      :     0.101988  f :     0.291340
      f+1     :     0.094374
      f-1     :     0.094377
      f+2     :     0.000000
      f-2     :     0.000492
      f+3     :     0.000054
      f-3     :     0.000054
      g0      :     0.016167  g :     0.044147
      g+1     :     0.013952
      g-1     :     0.013952
      g+2     :     0.000000
      g-2     :     0.000029
      g+3     :     0.000004
      g-3     :     0.000004
      g+4     :     0.000038
      g-4     :     0.000000
  1 Cls       :     5.564380  s :     5.564380
      pz      :     3.742010  p :    11.149929
      px      :     3.703959
      py      :     3.703960
      dz2     :     0.114787  d :     0.203938
      dxz     :     0.042895
      dyz     :     0.042907
      dx2y2   :     0.000000
      dxy     :     0.003350
      f0      :     0.046745  f :     0.095865
      f+1     :     0.023078
      f-1     :     0.023082
      f+2     :     0.000000
      f-2     :     0.002960
      f+3     :     0.000000
      f-3     :     0.000000

SPIN
  0 V s       :     0.544070  s :     0.544070
      pz      :     0.038670  p :     0.119789
      px      :     0.040607
      py      :     0.040512
      dz2     :     0.365072  d :     3.153523
      dxz     :     0.897615
      dyz     :     0.897666
      dx2y2   :     0.000001
      dxy     :     0.993168
      f0      :     0.000158  f :     0.010603
      f+1     :     0.004934
      f-1     :     0.004940
      f+2     :     0.000000
      f-2     :     0.000492
      f+3     :     0.000039
      f-3     :     0.000039
      g0      :    -0.000514  g :     0.001260
      g+1     :     0.000851
      g-1     :     0.000852
      g+2     :     0.000000
      g-2     :     0.000029
      g+3     :     0.000004
      g-3     :     0.000004
      g+4     :     0.000033
      g-4     :     0.000000
  1 Cls       :     0.021618  s :     0.021618
      pz      :     0.024492  p :     0.057927
      px      :     0.016706
      py      :     0.016729
      dz2     :     0.005183  d :     0.057641
      dxz     :     0.024548
      dyz     :     0.024559
      dx2y2   :     0.000000
      dxy     :     0.003350
      f0      :     0.001215  f :     0.033568
      f+1     :     0.014694
      f-1     :     0.014698
      f+2     :     0.000000
      f-2     :     0.002960
      f+3     :     0.000000
      f-3     :     0.000000


                      *****************************
                      * MAYER POPULATION ANALYSIS *
                      *****************************

  NA   - Mulliken gross atomic population
  ZA   - Total nuclear charge
  QA   - Mulliken gross atomic charge
  VA   - Mayer's total valence
  BVA  - Mayer's bonded valence
  FA   - Mayer's free valence

  ATOM       NA         ZA         QA         VA         BVA        FA
  0 V     22.5564    23.0000     0.4436     4.8620     1.0261     3.8359
  1 Cl    17.4436    17.0000    -0.4436     1.0328     1.0261     0.0067

  Mayer bond orders larger than 0.100000
B(  0-V ,  1-Cl) :   1.0261 

-------
TIMINGS
-------

Total SCF time: 0 days 0 hours 4 min 53 sec 

Total time                  ....     293.115 sec
Sum of individual times     ....     292.767 sec  ( 99.9%)

Fock matrix formation       ....     292.341 sec  ( 99.7%)
  XC integration            ....       0.476 sec  (  0.2% of F)
    Basis function eval.    ....       0.099 sec  ( 20.8% of XC)
    Density eval.           ....       0.051 sec  ( 10.7% of XC)
    XC-Functional eval.     ....       0.021 sec  (  4.5% of XC)
    XC-Potential eval.      ....       0.125 sec  ( 26.2% of XC)
Diagonalization             ....       0.097 sec  (  0.0%)
Density matrix formation    ....       0.013 sec  (  0.0%)
Population analysis         ....       0.007 sec  (  0.0%)
Initial guess               ....       0.100 sec  (  0.0%)
Orbital Transformation      ....       0.000 sec  (  0.0%)
Orbital Orthonormalization  ....       0.000 sec  (  0.0%)
DIIS solution               ....       0.033 sec  (  0.0%)
Grid generation             ....       0.176 sec  (  0.1%)

-------------------------   --------------------
FINAL SINGLE POINT ENERGY     -1404.028500891663
-------------------------   --------------------


                            ***************************************
                            *     ORCA property calculations      *
                            ***************************************

                                    ---------------------
                                    Active property flags
                                    ---------------------
   (+) Dipole Moment


------------------------------------------------------------------------------
                       ORCA ELECTRIC PROPERTIES CALCULATION
------------------------------------------------------------------------------

Dipole Moment Calculation                       ... on
Quadrupole Moment Calculation                   ... off
Polarizability Calculation                      ... off
GBWName                                         ... 15_VCl.gbw
Electron density file                           ... 15_VCl.scfp
The origin for moment calculation is the CENTER OF MASS  = ( 0.000000,  0.000000  1.515091)

-------------
DIPOLE MOMENT
-------------
                                X             Y             Z
Electronic contribution:      0.00000       0.00000      -4.31563
Nuclear contribution   :      0.00000       0.00000       2.44617
                        -----------------------------------------
Total Dipole Moment    :      0.00000       0.00000      -1.86946
                        -----------------------------------------
Magnitude (a.u.)       :      1.86946
Magnitude (Debye)      :      4.75179



--------------------
Rotational spectrum 
--------------------
 
Rotational constants in cm-1:     0.000000     0.164840     0.164840 
Rotational constants in MHz :     0.000000  4941.766851  4941.766851 

 Dipole components along the rotational axes: 
x,y,z [a.u.] :    -1.869461     0.000000     0.000000 
x,y,z [Debye]:    -4.751791     0.000000     0.000000 

 

Timings for individual modules:

Sum of individual times         ...      296.999 sec (=   4.950 min)
GTO integral calculation        ...        3.347 sec (=   0.056 min)   1.1 %
SCF iterations                  ...      293.652 sec (=   4.894 min)  98.9 %
                             ****ORCA TERMINATED NORMALLY****
TOTAL RUN TIME: 0 days 0 hours 4 minutes 57 seconds 605 msec
