
                                 *****************
                                 * O   R   C   A *
                                 *****************

           --- An Ab Initio, DFT and Semiempirical electronic structure package ---

                  #######################################################
                  #                        -***-                        #
                  #          Department of theory and spectroscopy      #
                  #               Directorship: Frank Neese             #
                  #        Max Planck Institute fuer Kohlenforschung    #
                  #                Kaiser Wilhelm Platz 1               #
                  #                 D-45470 Muelheim/Ruhr               #
                  #                      Germany                        #
                  #                                                     #
                  #                  All rights reserved                #
                  #                        -***-                        #
                  #######################################################


                         Program Version 4.2.0 -  RELEASE  -


 With contributions from (in alphabetic order):
   Daniel Aravena         : Magnetic Suceptibility
   Michael Atanasov       : Ab Initio Ligand Field Theory (pilot matlab implementation)
   Alexander A. Auer      : GIAO ZORA, VPT2
   Ute Becker             : Parallelization
   Giovanni Bistoni       : ED, misc. LED, open-shell LED, HFLED
   Martin Brehm           : Molecular dynamics
   Dmytro Bykov           : SCF Hessian
   Vijay G. Chilkuri      : MRCI spin determinant printing, contributions to CSF-ICE
   Dipayan Datta          : RHF DLPNO-CCSD density
   Achintya Kumar Dutta   : EOM-CC, STEOM-CC
   Dmitry Ganyushin       : Spin-Orbit,Spin-Spin,Magnetic field MRCI
   Miquel Garcia          : C-PCM Hessian, Gaussian charge scheme
   Yang Guo               : DLPNO-NEVPT2, CIM, IAO-localization
   Andreas Hansen         : Spin unrestricted coupled pair/coupled cluster methods
   Benjamin Helmich-Paris : CASSCF linear response (MC-RPA)
   Lee Huntington         : MR-EOM, pCC
   Robert Izsak           : Overlap fitted RIJCOSX, COSX-SCS-MP3, EOM
   Christian Kollmar      : KDIIS, OOCD, Brueckner-CCSD(T), CCSD density
   Simone Kossmann        : Meta GGA functionals, TD-DFT gradient, OOMP2, MP2 Hessian
   Martin Krupicka        : AUTO-CI
   Lucas Lang             : DCDCAS
   Dagmar Lenk            : GEPOL surface, SMD
   Dimitrios Liakos       : Extrapolation schemes; Compound Job, initial MDCI parallelization
   Dimitrios Manganas     : Further ROCIS development; embedding schemes
   Dimitrios Pantazis     : SARC Basis sets
   Taras Petrenko         : DFT Hessian,TD-DFT gradient, ASA, ECA, R-Raman, ABS, FL, XAS/XES, NRVS
   Peter Pinski           : DLPNO-MP2, DLPNO-MP2 Gradient
   Christoph Reimann      : Effective Core Potentials
   Marius Retegan         : Local ZFS, SOC
   Christoph Riplinger    : Optimizer, TS searches, QM/MM, DLPNO-CCSD(T), (RO)-DLPNO pert. Triples
   Tobias Risthaus        : Range-separated hybrids, TD-DFT gradient, RPA, STAB
   Michael Roemelt        : Original ROCIS implementation
   Masaaki Saitow         : Open-shell DLPNO-CCSD energy and density
   Barbara Sandhoefer     : DKH picture change effects
   Avijit Sen             : IP-ROCIS
   Kantharuban Sivalingam : CASSCF convergence, NEVPT2, FIC-MRCI
   Bernardo de Souza      : ESD, SOC TD-DFT
   Georgi Stoychev        : AutoAux, RI-MP2 NMR
   Willem Van den Heuvel  : Paramagnetic NMR
   Boris Wezisla          : Elementary symmetry handling
   Frank Wennmohs         : Technical directorship


 We gratefully acknowledge several colleagues who have allowed us to
 interface, adapt or use parts of their codes:
   Stefan Grimme, W. Hujo, H. Kruse,             : VdW corrections, initial TS optimization,
                  C. Bannwarth                     DFT functionals, gCP, sTDA/sTD-DF
   Ed Valeev, F. Pavosevic, A. Kumar             : LibInt (2-el integral package), F12 methods
   Garnet Chan, S. Sharma, J. Yang, R. Olivares  : DMRG
   Ulf Ekstrom                                   : XCFun DFT Library
   Mihaly Kallay                                 : mrcc  (arbitrary order and MRCC methods)
   Andreas Klamt, Michael Diedenhofen            : otool_cosmo (COSMO solvation model)
   Jiri Pittner, Ondrej Demel                    : Mk-CCSD
   Frank Weinhold                                : gennbo (NPA and NBO analysis)
   Christopher J. Cramer and Donald G. Truhlar   : smd solvation model
   Lars Goerigk                                  : TD-DFT with DH, B97 family of functionals
   V. Asgeirsson, H. Jonsson                     : NEB implementation
   FAccTs GmbH                                   : IRC, NEB, NEB-TS, Multilevel, MM, QM/MM, CI optimization
   S Lehtola, MJT Oliveira, MAL Marques          : LibXC Library


 Your calculation uses the libint2 library for the computation of 2-el integrals
 For citations please refer to: http://libint.valeyev.net

 Your ORCA version has been built with support for libXC version: 4.2.3
 For citations please refer to: https://tddft.org/programs/libxc/

 This ORCA versions uses:
   CBLAS   interface :  Fast vector & matrix operations
   LAPACKE interface :  Fast linear algebra routines
   SCALAPACK package :  Parallel linear algebra routines


Your calculation utilizes the DFT-NL dispersion correction.
Cite in your paper:
Vydrov, O. A.; Van Voorhis, T. J. Chem. Phys. 2010, 133, 244103
Hujo, W.; Grimme, S. J. Chem. Theory Comput. 2011, 7, 3866 
   

----- Orbital basis set information -----
Your calculation utilizes the basis: aug-cc-pVTZ 
    H, B-Ne : Obtained from the ccRepo (grant-hill.group.shef.ac.uk/ccrepo) Feb. 2017
              R. A. Kendall, T. H. Dunning, Jr., R. J. Harrison, J. Chem. Phys. 96, 6796 (1992)
         He : Obtained from the ccRepo (grant-hill.group.shef.ac.uk/ccrepo) Feb. 2017
              D. E. Woon, T. H. Dunning, Jr., J. Chem. Phys. 100, 2975 (1994)
  Li-Be, Na : Obtained from the ccRepo (grant-hill.group.shef.ac.uk/ccrepo) Feb. 2017
              B. P. Prascher, D. E. Woon, K. A. Peterson, T. H. Dunning, Jr., A. K. Wilson, Theor. Chem. Acc. 128, 69 (2011)
         Mg : Obtained from the Peterson Research Group Website (tyr0.chem.wsu.edu/~kipeters) Feb. 2017
              B. P. Prascher, D. E. Woon, K. A. Peterson, T. H. Dunning, Jr., A. K. Wilson, Theor. Chem. Acc. 128, 69 (2011)
      Al-Ar : Obtained from the ccRepo (grant-hill.group.shef.ac.uk/ccrepo) Feb. 2017
              D. E. Woon, T. H. Dunning, Jr., J. Chem. Phys. 98, 1358 (1993)
      Sc-Zn : Obtained from the ccRepo (grant-hill.group.shef.ac.uk/ccrepo) Feb. 2017
              N. B. Balabanov, K. A. Peterson, J. Chem. Phys. 123, 064107 (2005)
              N. B. Balabanov, K. A. Peterson, J. Chem. Phys. 125, 074110 (2006)
      Ga-Kr : Obtained from the ccRepo (grant-hill.group.shef.ac.uk/ccrepo) Feb. 2017
              A. K. Wilson, D. E. Woon, K. A. Peterson, T. H. Dunning, Jr., J. Chem. Phys. 110, 7667 (1999)
     Ag, Au : Obtained from the Peterson Research Group Website (tyr0.chem.wsu.edu/~kipeters) Feb. 2017
              K. A. Peterson, C. Puzzarini, Theor. Chem. Acc. 114, 283 (2005)

----- AuxJK basis set information -----
Your calculation utilizes the auxiliary basis: def2/JK
   H-Ba, Hf-Rn: F. Weigend, J. Comput. Chem. 29, 167 (2008).

================================================================================
                                        WARNINGS
                       Please study these warnings very carefully!
================================================================================


WARNING: your system is open-shell and RHF/RKS was chosen
  ===> : WILL SWITCH to UHF/UKS


INFO   : the flag for use of LIBINT has been found!

================================================================================
                                       INPUT FILE
================================================================================
NAME = 18_VS.in
|  1> #
|  2> # 18_VS wb97x-v/aug-cc-pvtz
|  3> #
|  4> ! wb97x-v aug-cc-pvtz def2/jk grid4 nofinalgrid
|  5> 
|  6> *xyz 0 4
|  7>   V   0.00000000000000      0.00000000000000     -0.02784157502378
|  8>   S   0.00000000000000      0.00000000000000      2.02784157502377
|  9> *
| 10> 
| 11> %pal
| 12> nprocs 24
| 13> end
| 14> 
| 15> 
| 16>                          ****END OF INPUT****
================================================================================

                       ****************************
                       * Single Point Calculation *
                       ****************************

---------------------------------
CARTESIAN COORDINATES (ANGSTROEM)
---------------------------------
  V      0.000000    0.000000   -0.027842
  S      0.000000    0.000000    2.027842

----------------------------
CARTESIAN COORDINATES (A.U.)
----------------------------
  NO LB      ZA    FRAG     MASS         X           Y           Z
   0 V    23.0000    0    50.940    0.000000    0.000000   -0.052613
   1 S    16.0000    0    32.060    0.000000    0.000000    3.832065

--------------------------------
INTERNAL COORDINATES (ANGSTROEM)
--------------------------------
 V      0   0   0     0.000000000000     0.00000000     0.00000000
 S      1   0   0     2.055683150048     0.00000000     0.00000000

---------------------------
INTERNAL COORDINATES (A.U.)
---------------------------
 V      0   0   0     0.000000000000     0.00000000     0.00000000
 S      1   0   0     3.884678171706     0.00000000     0.00000000

---------------------
BASIS SET INFORMATION
---------------------
There are 2 groups of distinct atoms

 Group   1 Type V   : 116s77p23d3f2g contracted to 8s7p5d3f2g pattern {19191919191911/151515151511/77711/111/11}
 Group   2 Type S   : 42s17p3d2f contracted to 6s5p3d2f pattern {131313111/77111/111/11}

Atom   0V    basis set group =>   1
Atom   1S    basis set group =>   2
----------------------------------
AUXILIARY/JK BASIS SET INFORMATION
----------------------------------
There are 2 groups of distinct atoms

 Group   1 Type V   : 19s14p12d10f7g3h1i contracted to 16s13p11d9f5g3h1i pattern {4111111111111111/2111111111111/21111111111/211111111/31111/111/1}
 Group   2 Type S   : 16s12p10d4f1g contracted to 13s11p9d4f1g pattern {4111111111111/21111111111/211111111/1111/1}

Atom   0V    basis set group =>   1
Atom   1S    basis set group =>   2


           ************************************************************
           *        Program running with 24 parallel MPI-processes    *
           *              working on a common directory               *
           ************************************************************
------------------------------------------------------------------------------
                           ORCA GTO INTEGRAL CALCULATION
------------------------------------------------------------------------------

                         BASIS SET STATISTICS AND STARTUP INFO

 # of primitive gaussian shells          ...  285
 # of primitive gaussian functions       ...  623
 # of contracted shells                  ...   41
 # of contracted basis functions         ...  143
 Highest angular momentum                ...    4
 Maximum contraction depth               ...   19
 Integral package used                   ... LIBINT
 Integral threshhold            Thresh   ...  1.000e-10
 Primitive cut-off              TCut     ...  1.000e-11


------------------------------ INTEGRAL EVALUATION ----------------------------


 * One electron integrals 
 Pre-screening matrix                    ... done
 Shell pair data                         ... done (   0.001 sec)



           ************************************************************
           *        Program running with 24 parallel MPI-processes    *
           *              working on a common directory               *
           ************************************************************
-------------------------------------------------------------------------------
                                 ORCA SCF
-------------------------------------------------------------------------------

------------
SCF SETTINGS
------------
Hamiltonian:
 Density Functional     Method          .... DFT(GTOs)
 Exchange Functional    Exchange        .... WB97X-V
 Correlation Functional Correlation     .... WB97X-V
 Gradients option       PostSCFGGA      .... off
 Hybrid DFT is turned on
   Fraction HF Exchange ScalHFX         ....  0.167000
   Scaling of DF-GGA-X  ScalDFX         ....  0.000000
   Scaling of DF-GGA-C  ScalDFC         ....  1.000000
   Scaling of DF-LDA-C  ScalLDAC        ....  1.000000
   Perturbative correction              ....  0.000000
   Density functional embedding theory  .... OFF
 Long-range corrected/Screened/Range-Separated Hybrid DFT is turned on
   Amount of maximum screened exact exchange              ....  0.833000
   Range separation parameter mu (erf(mu*r12)/r12)        ....  0.300000
   NL short-range parameter             ....  6.000000
   NL long-range parameter              ....  0.010000


General Settings:
 Integral files         IntName         .... 18_VS
 Hartree-Fock type      HFTyp           .... UHF
 Total Charge           Charge          ....    0
 Multiplicity           Mult            ....    4
 Number of Electrons    NEL             ....   39
 Basis Dimension        Dim             ....  143
 Nuclear Repulsion      ENuc            ....     94.7311421266 Eh

Convergence Acceleration:
 DIIS                   CNVDIIS         .... on
   Start iteration      DIISMaxIt       ....    12
   Startup error        DIISStart       ....  0.200000
   # of expansion vecs  DIISMaxEq       ....     5
   Bias factor          DIISBfac        ....   1.050
   Max. coefficient     DIISMaxC        ....  10.000
 Newton-Raphson         CNVNR           .... off
 SOSCF                  CNVSOSCF        .... off
 Level Shifting         CNVShift        .... on
   Level shift para.    LevelShift      ....    0.2500
   Turn off err/grad.   ShiftErr        ....    0.0010
 Zerner damping         CNVZerner       .... off
 Static damping         CNVDamp         .... on
   Fraction old density DampFac         ....    0.7000
   Max. Damping (<1)    DampMax         ....    0.9800
   Min. Damping (>=0)   DampMin         ....    0.0000
   Turn off err/grad.   DampErr         ....    0.1000
 Fernandez-Rico         CNVRico         .... off

SCF Procedure:
 Maximum # iterations   MaxIter         ....   125
 SCF integral mode      SCFMode         .... Direct
   Integral package                     .... LIBINT
 Reset frequency        DirectResetFreq ....    20
 Integral Threshold     Thresh          ....  1.000e-10 Eh
 Primitive CutOff       TCut            ....  1.000e-11 Eh

Convergence Tolerance:
 Convergence Check Mode ConvCheckMode   .... Total+1el-Energy
 Convergence forced     ConvForced      .... 0
 Energy Change          TolE            ....  1.000e-06 Eh
 1-El. energy change                    ....  1.000e-03 Eh
 DIIS Error             TolErr          ....  1.000e-06


Diagonalization of the overlap matrix:
Smallest eigenvalue                        ... 5.303e-05
Time for diagonalization                   ...    0.005 sec
Threshold for overlap eigenvalues          ... 1.000e-08
Number of eigenvalues below threshold      ... 0
Time for construction of square roots      ...    0.003 sec
Total time needed                          ...    0.008 sec

-------------------
DFT GRID GENERATION
-------------------

General Integration Accuracy     IntAcc      ...  4.670
Radial Grid Type                 RadialGrid  ... Gauss-Chebyshev
Angular Grid (max. acc.)         AngularGrid ... Lebedev-302
Angular grid pruning method      GridPruning ... 3 (G Style)
Weight generation scheme         WeightScheme... Becke
Basis function cutoff            BFCut       ...    1.0000e-10
Integration weight cutoff        WCut        ...    1.0000e-14
Grids for H and He will be reduced by one unit

# of grid points (after initial pruning)     ...  16510 (   0.0 sec)
# of grid points (after weights+screening)   ...  16481 (   0.0 sec)
nearest neighbour list constructed           ...    0.0 sec
Grid point re-assignment to atoms done       ...    0.0 sec
Grid point division into batches done        ...    0.1 sec
Reduced shell lists constructed in    0.1 sec

Total number of grid points                  ...    16481
Total number of batches                      ...      259
Average number of points per batch           ...       63
Average number of grid points per atom       ...     8240
Average number of shells per batch           ...    17.25 (42.07%)
Average number of basis functions per batch  ...    45.92 (32.11%)
Average number of large shells per batch     ...     9.92 (57.49%)
Average number of large basis fcns per batch ...    26.75 (58.26%)
Maximum spatial batch extension              ...  24.49, 24.19, 17.58 au
Average spatial batch extension              ...   0.84,  0.83,  0.64 au

Time for grid setup =    0.164 sec

------------------------------
INITIAL GUESS: MODEL POTENTIAL
------------------------------
Loading Hartree-Fock densities                     ... done
Calculating cut-offs                               ... done
Setting up the integral package                    ... done
Initializing the effective Hamiltonian             ... done
Starting the Coulomb interaction                   ... done (   0.0 sec)
Reading the grid                                   ... done
Mapping shells                                     ... done
Starting the XC term evaluation                    ... done (   0.0 sec)
  promolecular density results
     # of electrons  =     39.000005561
     EX              =    -51.942827199
     EC              =     -2.119500327
     EX+EC           =    -54.062327526
Transforming the Hamiltonian                       ... done (   0.0 sec)
Diagonalizing the Hamiltonian                      ... done (   0.0 sec)
Back transforming the eigenvectors                 ... done (   0.0 sec)
Now organizing SCF variables                       ... done
                      ------------------
                      INITIAL GUESS DONE (   0.3 sec)
                      ------------------
--------------
SCF ITERATIONS
--------------
ITER       Energy         Delta-E        Max-DP      RMS-DP      [F,P]     Damp
               ***  Starting incremental Fock matrix formation  ***
  0  -1340.1076439163   0.000000000000 1.49276516  0.02680021  0.7108891 0.7000
  1  -1340.5735969063  -0.465952989925 0.50015461  0.01000030  0.2976225 0.7000
                               ***Turning on DIIS***
  2  -1341.0613346460  -0.487737739791 0.37257485  0.00714886  0.1847517 0.7000
  3  -1341.3684700057  -0.307135359616 0.84485486  0.01552965  0.0991805 0.0000
  4  -1342.1043673711  -0.735897365433 0.01492934  0.00030830  0.1078143 0.7000
  5  -1342.1143545599  -0.009987188845 0.06668536  0.00140537  0.0896168 0.0000
  6  -1342.1398422126  -0.025487652681 0.07429929  0.00150482  0.0236050 0.0000
  7  -1342.1437808495  -0.003938636877 0.03055230  0.00030078  0.0135971 0.0000
  8  -1342.1456933915  -0.001912542015 0.02885277  0.00022472  0.0103917 0.0000
  9  -1342.1470768115  -0.001383419950 0.02859928  0.00023954  0.0081232 0.0000
 10  -1342.1482169836  -0.001140172126 0.02522102  0.00019747  0.0061723 0.0000
 11  -1342.1490100028  -0.000793019257 0.02151494  0.00022787  0.0043068 0.0000
 12  -1342.1495274009  -0.000517398023 0.01014142  0.00010882  0.0028514 0.0000
 13  -1342.1497152006  -0.000187799738 0.01172023  0.00015757  0.0019557 0.0000
 14  -1342.1498703496  -0.000155149029 0.00655492  0.00007153  0.0014051 0.0000
 15  -1342.1499312166  -0.000060866989 0.00533745  0.00006524  0.0010107 0.0000
 16  -1342.1499624061  -0.000031189495 0.00549398  0.00006235  0.0008281 0.0000
 17  -1342.1499816518  -0.000019245663 0.00211682  0.00002652  0.0003747 0.0000
 18  -1342.1499845866  -0.000002934837 0.00048908  0.00001101  0.0003602 0.0000
 19  -1342.1499876167  -0.000003030063 0.00059714  0.00000983  0.0000830 0.0000
               *** Restarting incremental Fock matrix formation ***
                                   *** Resetting DIIS ***
 20  -1342.1499894010  -0.000001784357 0.00029558  0.00000649  0.0001354 0.0000
 21  -1342.1499899586  -0.000000557518 0.00023312  0.00000477  0.0001657 0.0000
                 **** Energy Check signals convergence ****

               *****************************************************
               *                     SUCCESS                       *
               *           SCF CONVERGED AFTER  22 CYCLES          *
               *****************************************************


Setting up the DFT-NL grid :

General Integration Accuracy     IntAcc      ...  4.340
Radial Grid Type                 RadialGrid  ... Gauss-Chebyshev
Angular Grid (max. acc.)         AngularGrid ... Lebedev-110
Angular grid pruning method      GridPruning ... 3 (G Style)
Weight generation scheme         WeightScheme... Becke
Basis function cutoff            BFCut       ...    1.0000e-10
Integration weight cutoff        WCut        ...    1.0000e-14
Grids for H and He will be reduced by one unit

# of grid points (after initial pruning)     ...   4778 (   0.0 sec)
# of grid points (after weights+screening)   ...   4753 (   0.0 sec)
nearest neighbour list constructed           ...    0.0 sec
Grid point re-assignment to atoms done       ...    0.0 sec
Grid point division into batches done        ...    0.0 sec
Reduced shell lists constructed in    0.0 sec

Total number of grid points                  ...     4753
Total number of batches                      ...       75
Average number of points per batch           ...       63
Average number of grid points per atom       ...     2376
Average number of shells per batch           ...    24.40 (59.51%)
Average number of basis functions per batch  ...    82.80 (57.90%)
Average number of large shells per batch     ...    19.20 (78.69%)
Average number of large basis fcns per batch ...    60.80 (73.43%)
Maximum spatial batch extension              ...  18.98, 28.73, 16.15 au
Average spatial batch extension              ...   0.93,  1.27,  0.86 au

Final grid set up in    0.0 sec

-------------------------------------------------------------------------------
                         DFT-NL dispersion correction                          
-------------------------------------------------------------------------------

SC Energy -1342.149990197 
NL    Energy 0.162414232 
SC+NL Energy -1341.987575966 
NL done in    0.0 sec
-------------------------------------------------------------------------------

----------------
TOTAL SCF ENERGY
----------------

Total Energy       :        -1341.98757597 Eh          -36517.33845 eV

Components:
Nuclear Repulsion  :           94.73114213 Eh            2577.76543 eV
Electronic Energy  :        -1436.71871809 Eh          -39095.10388 eV
One Electron Energy:        -2036.25597478 Eh          -55409.34203 eV
Two Electron Energy:          599.53725668 Eh           16314.23815 eV

Virial components:
Potential Energy   :        -2681.63579986 Eh          -72971.01989 eV
Kinetic Energy     :         1339.64822389 Eh           36453.68144 eV
Virial Ratio       :            2.00174624


DFT components:
N(Alpha)           :       20.999998028044 electrons
N(Beta)            :       17.999997166799 electrons
N(Total)           :       38.999995194844 electrons
E(X)               :      -52.106158976145 Eh       
E(C)               :       -2.103813094533 Eh       
NL Energy, E(C,NL) :        0.162414231658 Eh       
E(XC)              :      -54.047557839020 Eh       
DFET-embed. en.    :        0.000000000000 Eh       

---------------
SCF CONVERGENCE
---------------

  Last Energy change         ...   -2.3890e-07  Tolerance :   1.0000e-06
  Last MAX-Density change    ...    2.6262e-04  Tolerance :   1.0000e-05
  Last RMS-Density change    ...    3.6153e-06  Tolerance :   1.0000e-06
  Last DIIS Error            ...    1.0854e-04  Tolerance :   1.0000e-06

             **** THE GBW FILE WAS UPDATED (18_VS.gbw) ****
             **** DENSITY FILE WAS UPDATED (18_VS.scfp) ****
             **** ENERGY FILE WAS UPDATED (18_VS.en.tmp) ****
----------------------
UHF SPIN CONTAMINATION
----------------------

Warning: in a DFT calculation there is little theoretical justification to 
         calculate <S**2> as in Hartree-Fock theory. We will do it anyways
         but you should keep in mind that the values have only limited relevance

Expectation value of <S**2>     :     3.865768
Ideal value S*(S+1) for S=1.5   :     3.750000
Deviation                       :     0.115768

             **** THE GBW FILE WAS UPDATED (18_VS.gbw) ****
             **** DENSITY FILE WAS UPDATED (18_VS.scfp) ****
----------------
ORBITAL ENERGIES
----------------
                 SPIN UP ORBITALS
  NO   OCC          E(Eh)            E(eV) 
   0   1.0000    -196.779433     -5354.6406 
   1   1.0000     -88.822012     -2416.9698 
   2   1.0000     -22.295953      -606.7037 
   3   1.0000     -18.796264      -511.4723 
   4   1.0000     -18.788038      -511.2485 
   5   1.0000     -18.788038      -511.2485 
   6   1.0000      -7.979456      -217.1320 
   7   1.0000      -5.931475      -161.4036 
   8   1.0000      -5.931475      -161.4036 
   9   1.0000      -5.931049      -161.3920 
  10   1.0000      -2.769812       -75.3704 
  11   1.0000      -1.809510       -49.2393 
  12   1.0000      -1.799895       -48.9776 
  13   1.0000      -1.799895       -48.9776 
  14   1.0000      -0.726533       -19.7700 
  15   1.0000      -0.381701       -10.3866 
  16   1.0000      -0.329749        -8.9729 
  17   1.0000      -0.329749        -8.9729 
  18   1.0000      -0.327099        -8.9008 
  19   1.0000      -0.327099        -8.9008 
  20   1.0000      -0.289843        -7.8870 
  21   0.0000      -0.032504        -0.8845 
  22   0.0000      -0.008865        -0.2412 
  23   0.0000      -0.008865        -0.2412 
  24   0.0000       0.020563         0.5595 
  25   0.0000       0.026221         0.7135 
  26   0.0000       0.026221         0.7135 
  27   0.0000       0.031368         0.8536 
  28   0.0000       0.058372         1.5884 
  29   0.0000       0.058372         1.5884 
  30   0.0000       0.066708         1.8152 
  31   0.0000       0.068159         1.8547 
  32   0.0000       0.068159         1.8547 
  33   0.0000       0.078080         2.1247 
  34   0.0000       0.078080         2.1247 
  35   0.0000       0.104481         2.8431 
  36   0.0000       0.128646         3.5006 
  37   0.0000       0.159068         4.3285 
  38   0.0000       0.161124         4.3844 
  39   0.0000       0.161124         4.3844 
  40   0.0000       0.197418         5.3720 
  41   0.0000       0.197418         5.3720 
  42   0.0000       0.229884         6.2554 
  43   0.0000       0.233254         6.3472 
  44   0.0000       0.233254         6.3472 
  45   0.0000       0.246562         6.7093 
  46   0.0000       0.246562         6.7093 
  47   0.0000       0.278028         7.5655 
  48   0.0000       0.310914         8.4604 
  49   0.0000       0.310914         8.4604 
  50   0.0000       0.375197        10.2096 
  51   0.0000       0.396109        10.7787 
  52   0.0000       0.396109        10.7787 
  53   0.0000       0.439508        11.9596 
  54   0.0000       0.467501        12.7214 
  55   0.0000       0.467501        12.7214 
  56   0.0000       0.486509        13.2386 
  57   0.0000       0.536563        14.6006 
  58   0.0000       0.536563        14.6006 
  59   0.0000       0.560743        15.2586 
  60   0.0000       0.560743        15.2586 
  61   0.0000       0.605845        16.4859 
  62   0.0000       0.638753        17.3814 
  63   0.0000       0.638753        17.3814 
  64   0.0000       0.673047        18.3145 
  65   0.0000       0.673047        18.3145 
  66   0.0000       0.713628        19.4188 
  67   0.0000       0.717316        19.5192 
  68   0.0000       0.717317        19.5192 
  69   0.0000       0.756461        20.5843 
  70   0.0000       0.756461        20.5843 
  71   0.0000       0.791930        21.5495 
  72   0.0000       0.791930        21.5495 
  73   0.0000       0.819547        22.3010 
  74   0.0000       0.870821        23.6963 
  75   0.0000       0.870821        23.6963 
  76   0.0000       0.945825        25.7372 
  77   0.0000       0.962279        26.1849 
  78   0.0000       0.962279        26.1849 
  79   0.0000       0.993246        27.0276 
  80   0.0000       1.027370        27.9562 
  81   0.0000       1.027371        27.9562 
  82   0.0000       1.250238        34.0207 
  83   0.0000       1.250238        34.0207 
  84   0.0000       1.255395        34.1610 
  85   0.0000       1.446868        39.3713 
  86   0.0000       1.446868        39.3713 
  87   0.0000       1.489752        40.5382 
  88   0.0000       1.489752        40.5382 
  89   0.0000       1.561143        42.4809 
  90   0.0000       1.618644        44.0455 
  91   0.0000       1.618644        44.0455 
  92   0.0000       1.718339        46.7584 
  93   0.0000       1.718361        46.7590 
  94   0.0000       1.759507        47.8786 
  95   0.0000       1.759507        47.8786 
  96   0.0000       1.847649        50.2771 
  97   0.0000       1.878429        51.1146 
  98   0.0000       1.878430        51.1147 
  99   0.0000       1.930586        52.5339 
 100   0.0000       1.930586        52.5339 
 101   0.0000       1.979420        53.8627 
 102   0.0000       1.979429        53.8630 
 103   0.0000       2.059205        56.0338 
 104   0.0000       2.121317        57.7240 
 105   0.0000       2.121317        57.7240 
 106   0.0000       2.172008        59.1033 
 107   0.0000       2.247900        61.1685 
 108   0.0000       2.247900        61.1685 
 109   0.0000       2.261572        61.5405 
 110   0.0000       2.261572        61.5405 
 111   0.0000       2.278642        62.0050 
 112   0.0000       2.339434        63.6592 
 113   0.0000       2.339434        63.6592 
 114   0.0000       2.368660        64.4545 
 115   0.0000       2.368661        64.4546 
 116   0.0000       2.572802        70.0095 
 117   0.0000       2.702712        73.5445 
 118   0.0000       2.779067        75.6222 
 119   0.0000       2.779067        75.6222 
 120   0.0000       2.888937        78.6120 
 121   0.0000       2.888940        78.6121 
 122   0.0000       3.170996        86.2872 
 123   0.0000       3.170996        86.2872 
 124   0.0000       3.494004        95.0767 
 125   0.0000       3.727333       101.4259 
 126   0.0000       4.925083       134.0183 
 127   0.0000       4.925083       134.0183 
 128   0.0000       4.953289       134.7858 
 129   0.0000       4.953298       134.7861 
 130   0.0000       5.099710       138.7702 
 131   0.0000       5.099710       138.7702 
 132   0.0000       5.244338       142.7057 
 133   0.0000       5.244373       142.7066 
 134   0.0000       5.265843       143.2909 
 135   0.0000       5.265843       143.2909 
 136   0.0000       5.315928       144.6537 
 137   0.0000       5.343981       145.4171 
 138   0.0000       5.343982       145.4172 
 139   0.0000       5.445990       148.1929 
 140   0.0000       5.445990       148.1929 
 141   0.0000       5.461969       148.6277 
 142   0.0000       5.777853       157.2234 

                 SPIN DOWN ORBITALS
  NO   OCC          E(Eh)            E(eV) 
   0   1.0000    -196.778766     -5354.6224 
   1   1.0000     -88.824346     -2417.0333 
   2   1.0000     -22.261608      -605.7692 
   3   1.0000     -18.776779      -510.9421 
   4   1.0000     -18.755467      -510.3622 
   5   1.0000     -18.755467      -510.3622 
   6   1.0000      -7.981692      -217.1929 
   7   1.0000      -5.935306      -161.5079 
   8   1.0000      -5.935306      -161.5079 
   9   1.0000      -5.934338      -161.4815 
  10   1.0000      -2.666731       -72.5654 
  11   1.0000      -1.725704       -46.9588 
  12   1.0000      -1.670765       -45.4638 
  13   1.0000      -1.670765       -45.4638 
  14   1.0000      -0.743291       -20.2260 
  15   1.0000      -0.354204        -9.6384 
  16   1.0000      -0.331410        -9.0181 
  17   1.0000      -0.331410        -9.0181 
  18   0.0000      -0.030840        -0.8392 
  19   0.0000       0.019187         0.5221 
  20   0.0000       0.019187         0.5221 
  21   0.0000       0.020809         0.5662 
  22   0.0000       0.029207         0.7948 
  23   0.0000       0.043707         1.1893 
  24   0.0000       0.050753         1.3811 
  25   0.0000       0.050753         1.3811 
  26   0.0000       0.065364         1.7786 
  27   0.0000       0.065365         1.7787 
  28   0.0000       0.069981         1.9043 
  29   0.0000       0.069981         1.9043 
  30   0.0000       0.077162         2.0997 
  31   0.0000       0.096773         2.6333 
  32   0.0000       0.096773         2.6333 
  33   0.0000       0.099088         2.6963 
  34   0.0000       0.099088         2.6963 
  35   0.0000       0.114830         3.1247 
  36   0.0000       0.142163         3.8685 
  37   0.0000       0.162658         4.4262 
  38   0.0000       0.162658         4.4262 
  39   0.0000       0.164553         4.4777 
  40   0.0000       0.215853         5.8737 
  41   0.0000       0.215853         5.8737 
  42   0.0000       0.251995         6.8571 
  43   0.0000       0.256152         6.9703 
  44   0.0000       0.256152         6.9703 
  45   0.0000       0.263483         7.1697 
  46   0.0000       0.263488         7.1699 
  47   0.0000       0.281848         7.6695 
  48   0.0000       0.311436         8.4746 
  49   0.0000       0.311438         8.4747 
  50   0.0000       0.379320        10.3218 
  51   0.0000       0.399195        10.8627 
  52   0.0000       0.399195        10.8627 
  53   0.0000       0.448679        12.2092 
  54   0.0000       0.477128        12.9833 
  55   0.0000       0.477128        12.9833 
  56   0.0000       0.504604        13.7310 
  57   0.0000       0.543937        14.8013 
  58   0.0000       0.543944        14.8015 
  59   0.0000       0.563429        15.3317 
  60   0.0000       0.563429        15.3317 
  61   0.0000       0.624918        17.0049 
  62   0.0000       0.645219        17.5573 
  63   0.0000       0.645219        17.5573 
  64   0.0000       0.684733        18.6325 
  65   0.0000       0.684733        18.6325 
  66   0.0000       0.714205        19.4345 
  67   0.0000       0.714206        19.4345 
  68   0.0000       0.717334        19.5197 
  69   0.0000       0.767207        20.8768 
  70   0.0000       0.767207        20.8768 
  71   0.0000       0.816516        22.2185 
  72   0.0000       0.830870        22.6091 
  73   0.0000       0.830875        22.6093 
  74   0.0000       0.869546        23.6615 
  75   0.0000       0.869546        23.6615 
  76   0.0000       0.953925        25.9576 
  77   0.0000       0.972893        26.4738 
  78   0.0000       0.972893        26.4738 
  79   0.0000       1.002010        27.2661 
  80   0.0000       1.032625        28.0992 
  81   0.0000       1.032628        28.0992 
  82   0.0000       1.262525        34.3551 
  83   0.0000       1.262525        34.3551 
  84   0.0000       1.272652        34.6306 
  85   0.0000       1.512279        41.1512 
  86   0.0000       1.512279        41.1512 
  87   0.0000       1.522096        41.4183 
  88   0.0000       1.522102        41.4185 
  89   0.0000       1.582385        43.0589 
  90   0.0000       1.639221        44.6055 
  91   0.0000       1.639221        44.6055 
  92   0.0000       1.747182        47.5432 
  93   0.0000       1.747214        47.5441 
  94   0.0000       1.780212        48.4420 
  95   0.0000       1.780212        48.4420 
  96   0.0000       1.851532        50.3827 
  97   0.0000       1.880506        51.1712 
  98   0.0000       1.880506        51.1712 
  99   0.0000       1.938304        52.7439 
 100   0.0000       1.938304        52.7439 
 101   0.0000       1.977354        53.8065 
 102   0.0000       1.977357        53.8066 
 103   0.0000       2.072293        56.3899 
 104   0.0000       2.117856        57.6298 
 105   0.0000       2.117856        57.6298 
 106   0.0000       2.185486        59.4701 
 107   0.0000       2.249381        61.2088 
 108   0.0000       2.249381        61.2088 
 109   0.0000       2.260265        61.5049 
 110   0.0000       2.260265        61.5049 
 111   0.0000       2.313022        62.9405 
 112   0.0000       2.361854        64.2693 
 113   0.0000       2.361855        64.2693 
 114   0.0000       2.379297        64.7440 
 115   0.0000       2.379297        64.7440 
 116   0.0000       2.576051        70.0979 
 117   0.0000       2.755260        74.9744 
 118   0.0000       2.787217        75.8440 
 119   0.0000       2.787217        75.8440 
 120   0.0000       2.979714        81.0821 
 121   0.0000       2.979720        81.0823 
 122   0.0000       3.219607        87.6100 
 123   0.0000       3.219607        87.6100 
 124   0.0000       3.552700        96.6739 
 125   0.0000       3.747534       101.9756 
 126   0.0000       5.020878       136.6250 
 127   0.0000       5.020883       136.6252 
 128   0.0000       5.038476       137.1039 
 129   0.0000       5.038476       137.1039 
 130   0.0000       5.170684       140.7015 
 131   0.0000       5.170684       140.7015 
 132   0.0000       5.326853       144.9510 
 133   0.0000       5.326853       144.9510 
 134   0.0000       5.338380       145.2647 
 135   0.0000       5.338439       145.2663 
 136   0.0000       5.343348       145.3999 
 137   0.0000       5.395988       146.8323 
 138   0.0000       5.396000       146.8326 
 139   0.0000       5.504884       149.7955 
 140   0.0000       5.504884       149.7955 
 141   0.0000       5.514629       150.0607 
 142   0.0000       5.823764       158.4727 

                    ********************************
                    * MULLIKEN POPULATION ANALYSIS *
                    ********************************

--------------------------------------------
MULLIKEN ATOMIC CHARGES AND SPIN POPULATIONS
--------------------------------------------
   0 V :    0.237927    3.399019
   1 S :   -0.237927   -0.399019
Sum of atomic charges         :   -0.0000000
Sum of atomic spin populations:    3.0000000

-----------------------------------------------------
MULLIKEN REDUCED ORBITAL CHARGES AND SPIN POPULATIONS
-----------------------------------------------------
CHARGE
  0 V s       :     6.725661  s :     6.725661
      pz      :     4.108118  p :    12.258397
      px      :     4.075140
      py      :     4.075140
      dz2     :     0.965948  d :     3.743658
      dxz     :     0.391316
      dyz     :     0.391316
      dx2y2   :     0.997539
      dxy     :     0.997539
      f0      :     0.004759  f :     0.029337
      f+1     :     0.012094
      f-1     :     0.012094
      f+2     :     0.000195
      f-2     :     0.000195
      f+3     :     0.000000
      f-3     :     0.000000
      g0      :     0.001172  g :     0.005021
      g+1     :     0.001922
      g-1     :     0.001922
      g+2     :     0.000002
      g-2     :     0.000002
      g+3     :     0.000000
      g-3     :     0.000000
      g+4     :     0.000000
      g-4     :     0.000000
  1 S s       :     5.848690  s :     5.848690
      pz      :     3.342111  p :    10.356329
      px      :     3.507109
      py      :     3.507109
      dz2     :     0.002970  d :     0.031040
      dxz     :     0.012371
      dyz     :     0.012371
      dx2y2   :     0.001664
      dxy     :     0.001664
      f0      :     0.000571  f :     0.001868
      f+1     :     0.000049
      f-1     :     0.000049
      f+2     :     0.000600
      f-2     :     0.000600
      f+3     :     0.000000
      f-3     :     0.000000

SPIN
  0 V s       :     0.402294  s :     0.402294
      pz      :    -0.006785  p :     0.022416
      px      :     0.014600
      py      :     0.014600
      dz2     :     0.661850  d :     2.978313
      dxz     :     0.160692
      dyz     :     0.160692
      dx2y2   :     0.997539
      dxy     :     0.997539
      f0      :    -0.000868  f :    -0.003588
      f+1     :    -0.001555
      f-1     :    -0.001555
      f+2     :     0.000195
      f-2     :     0.000195
      f+3     :    -0.000000
      f-3     :    -0.000000
      g0      :    -0.000080  g :    -0.000416
      g+1     :    -0.000170
      g-1     :    -0.000170
      g+2     :     0.000002
      g-2     :     0.000002
      g+3     :    -0.000000
      g-3     :    -0.000000
      g+4     :    -0.000000
      g-4     :     0.000000
  1 S s       :     0.004195  s :     0.004195
      pz      :    -0.065924  p :    -0.425816
      px      :    -0.179946
      py      :    -0.179946
      dz2     :     0.004221  d :     0.018947
      dxz     :     0.005699
      dyz     :     0.005699
      dx2y2   :     0.001664
      dxy     :     0.001664
      f0      :     0.001096  f :     0.003656
      f+1     :     0.000680
      f-1     :     0.000680
      f+2     :     0.000600
      f-2     :     0.000600
      f+3     :    -0.000000
      f-3     :    -0.000000


                     *******************************
                     * LOEWDIN POPULATION ANALYSIS *
                     *******************************

-------------------------------------------
LOEWDIN ATOMIC CHARGES AND SPIN POPULATIONS
-------------------------------------------
   0 V :    0.084733    3.178381
   1 S :   -0.084733   -0.178381

----------------------------------------------------
LOEWDIN REDUCED ORBITAL CHARGES AND SPIN POPULATIONS
----------------------------------------------------
CHARGE
  0 V s       :     6.356239  s :     6.356239
      pz      :     4.198062  p :    12.266927
      px      :     4.034432
      py      :     4.034432
      dz2     :     1.102678  d :     3.982153
      dxz     :     0.460966
      dyz     :     0.460966
      dx2y2   :     0.978771
      dxy     :     0.978771
      f0      :     0.101628  f :     0.267399
      f+1     :     0.081506
      f-1     :     0.081506
      f+2     :     0.001379
      f-2     :     0.001379
      f+3     :     0.000000
      f-3     :     0.000000
      g0      :     0.014301  g :     0.042549
      g+1     :     0.014030
      g-1     :     0.014030
      g+2     :     0.000094
      g-2     :     0.000094
      g+3     :     0.000000
      g-3     :     0.000000
      g+4     :     0.000000
      g-4     :     0.000000
  1 S s       :     5.413545  s :     5.413545
      pz      :     3.535294  p :    10.186054
      px      :     3.325380
      py      :     3.325380
      dz2     :     0.171025  d :     0.276257
      dxz     :     0.044640
      dyz     :     0.044640
      dx2y2   :     0.007976
      dxy     :     0.007977
      f0      :     0.107228  f :     0.208877
      f+1     :     0.039045
      f-1     :     0.039045
      f+2     :     0.011779
      f-2     :     0.011779
      f+3     :     0.000000
      f-3     :     0.000000

SPIN
  0 V s       :     0.358932  s :     0.358932
      pz      :    -0.004573  p :    -0.005006
      px      :    -0.000216
      py      :    -0.000216
      dz2     :     0.631764  d :     2.855735
      dxz     :     0.133214
      dyz     :     0.133214
      dx2y2   :     0.978771
      dxy     :     0.978771
      f0      :    -0.001274  f :    -0.026562
      f+1     :    -0.014024
      f-1     :    -0.014024
      f+2     :     0.001379
      f-2     :     0.001379
      f+3     :    -0.000000
      f-3     :    -0.000000
      g0      :    -0.000542  g :    -0.004719
      g+1     :    -0.002182
      g-1     :    -0.002182
      g+2     :     0.000094
      g-2     :     0.000094
      g+3     :    -0.000000
      g-3     :    -0.000000
      g+4     :    -0.000000
      g-4     :     0.000000
  1 S s       :     0.017147  s :     0.017147
      pz      :    -0.016788  p :    -0.276272
      px      :    -0.129742
      py      :    -0.129742
      dz2     :     0.011583  d :     0.046852
      dxz     :     0.009658
      dyz     :     0.009658
      dx2y2   :     0.007976
      dxy     :     0.007977
      f0      :     0.003750  f :     0.033892
      f+1     :     0.003292
      f-1     :     0.003292
      f+2     :     0.011779
      f-2     :     0.011779
      f+3     :    -0.000000
      f-3     :    -0.000000


                      *****************************
                      * MAYER POPULATION ANALYSIS *
                      *****************************

  NA   - Mulliken gross atomic population
  ZA   - Total nuclear charge
  QA   - Mulliken gross atomic charge
  VA   - Mayer's total valence
  BVA  - Mayer's bonded valence
  FA   - Mayer's free valence

  ATOM       NA         ZA         QA         VA         BVA        FA
  0 V     22.7621    23.0000     0.2379     5.4215     2.4745     2.9470
  1 S     16.2379    16.0000    -0.2379     2.5575     2.4745     0.0830

  Mayer bond orders larger than 0.100000
B(  0-V ,  1-S ) :   2.4745 

-------
TIMINGS
-------

Total SCF time: 0 days 0 hours 6 min 4 sec 

Total time                  ....     364.975 sec
Sum of individual times     ....     364.631 sec  ( 99.9%)

Fock matrix formation       ....     364.178 sec  ( 99.8%)
  XC integration            ....       0.734 sec  (  0.2% of F)
    Basis function eval.    ....       0.127 sec  ( 17.3% of XC)
    Density eval.           ....       0.066 sec  (  9.1% of XC)
    XC-Functional eval.     ....       0.027 sec  (  3.6% of XC)
    XC-Potential eval.      ....       0.166 sec  ( 22.6% of XC)
Diagonalization             ....       0.114 sec  (  0.0%)
Density matrix formation    ....       0.015 sec  (  0.0%)
Population analysis         ....       0.007 sec  (  0.0%)
Initial guess               ....       0.097 sec  (  0.0%)
Orbital Transformation      ....       0.000 sec  (  0.0%)
Orbital Orthonormalization  ....       0.000 sec  (  0.0%)
DIIS solution               ....       0.039 sec  (  0.0%)
Grid generation             ....       0.180 sec  (  0.0%)

-------------------------   --------------------
FINAL SINGLE POINT ENERGY     -1341.987575965796
-------------------------   --------------------


                            ***************************************
                            *     ORCA property calculations      *
                            ***************************************

                                    ---------------------
                                    Active property flags
                                    ---------------------
   (+) Dipole Moment


------------------------------------------------------------------------------
                       ORCA ELECTRIC PROPERTIES CALCULATION
------------------------------------------------------------------------------

Dipole Moment Calculation                       ... on
Quadrupole Moment Calculation                   ... off
Polarizability Calculation                      ... off
GBWName                                         ... 18_VS.gbw
Electron density file                           ... 18_VS.scfp
The origin for moment calculation is the CENTER OF MASS  = ( 0.000000,  0.000000  1.447902)

-------------
DIPOLE MOMENT
-------------
                                X             Y             Z
Electronic contribution:     -0.00000      -0.00000      -6.34980
Nuclear contribution   :      0.00000       0.00000       3.63475
                        -----------------------------------------
Total Dipole Moment    :     -0.00000      -0.00000      -2.71505
                        -----------------------------------------
Magnitude (a.u.)       :      2.71505
Magnitude (Debye)      :      6.90111



--------------------
Rotational spectrum 
--------------------
 
Rotational constants in cm-1:     0.000000     0.202740     0.202740 
Rotational constants in MHz :     0.000000  6078.002656  6078.002656 

 Dipole components along the rotational axes: 
x,y,z [a.u.] :    -2.715049    -0.000000    -0.000000 
x,y,z [Debye]:    -6.901105    -0.000000    -0.000000 

 

Timings for individual modules:

Sum of individual times         ...      368.848 sec (=   6.147 min)
GTO integral calculation        ...        3.339 sec (=   0.056 min)   0.9 %
SCF iterations                  ...      365.509 sec (=   6.092 min)  99.1 %
                             ****ORCA TERMINATED NORMALLY****
TOTAL RUN TIME: 0 days 0 hours 6 minutes 9 seconds 465 msec
