
                                 *****************
                                 * O   R   C   A *
                                 *****************

           --- An Ab Initio, DFT and Semiempirical electronic structure package ---

                  #######################################################
                  #                        -***-                        #
                  #          Department of theory and spectroscopy      #
                  #               Directorship: Frank Neese             #
                  #        Max Planck Institute fuer Kohlenforschung    #
                  #                Kaiser Wilhelm Platz 1               #
                  #                 D-45470 Muelheim/Ruhr               #
                  #                      Germany                        #
                  #                                                     #
                  #                  All rights reserved                #
                  #                        -***-                        #
                  #######################################################


                         Program Version 4.2.0 -  RELEASE  -


 With contributions from (in alphabetic order):
   Daniel Aravena         : Magnetic Suceptibility
   Michael Atanasov       : Ab Initio Ligand Field Theory (pilot matlab implementation)
   Alexander A. Auer      : GIAO ZORA, VPT2
   Ute Becker             : Parallelization
   Giovanni Bistoni       : ED, misc. LED, open-shell LED, HFLED
   Martin Brehm           : Molecular dynamics
   Dmytro Bykov           : SCF Hessian
   Vijay G. Chilkuri      : MRCI spin determinant printing, contributions to CSF-ICE
   Dipayan Datta          : RHF DLPNO-CCSD density
   Achintya Kumar Dutta   : EOM-CC, STEOM-CC
   Dmitry Ganyushin       : Spin-Orbit,Spin-Spin,Magnetic field MRCI
   Miquel Garcia          : C-PCM Hessian, Gaussian charge scheme
   Yang Guo               : DLPNO-NEVPT2, CIM, IAO-localization
   Andreas Hansen         : Spin unrestricted coupled pair/coupled cluster methods
   Benjamin Helmich-Paris : CASSCF linear response (MC-RPA)
   Lee Huntington         : MR-EOM, pCC
   Robert Izsak           : Overlap fitted RIJCOSX, COSX-SCS-MP3, EOM
   Christian Kollmar      : KDIIS, OOCD, Brueckner-CCSD(T), CCSD density
   Simone Kossmann        : Meta GGA functionals, TD-DFT gradient, OOMP2, MP2 Hessian
   Martin Krupicka        : AUTO-CI
   Lucas Lang             : DCDCAS
   Dagmar Lenk            : GEPOL surface, SMD
   Dimitrios Liakos       : Extrapolation schemes; Compound Job, initial MDCI parallelization
   Dimitrios Manganas     : Further ROCIS development; embedding schemes
   Dimitrios Pantazis     : SARC Basis sets
   Taras Petrenko         : DFT Hessian,TD-DFT gradient, ASA, ECA, R-Raman, ABS, FL, XAS/XES, NRVS
   Peter Pinski           : DLPNO-MP2, DLPNO-MP2 Gradient
   Christoph Reimann      : Effective Core Potentials
   Marius Retegan         : Local ZFS, SOC
   Christoph Riplinger    : Optimizer, TS searches, QM/MM, DLPNO-CCSD(T), (RO)-DLPNO pert. Triples
   Tobias Risthaus        : Range-separated hybrids, TD-DFT gradient, RPA, STAB
   Michael Roemelt        : Original ROCIS implementation
   Masaaki Saitow         : Open-shell DLPNO-CCSD energy and density
   Barbara Sandhoefer     : DKH picture change effects
   Avijit Sen             : IP-ROCIS
   Kantharuban Sivalingam : CASSCF convergence, NEVPT2, FIC-MRCI
   Bernardo de Souza      : ESD, SOC TD-DFT
   Georgi Stoychev        : AutoAux, RI-MP2 NMR
   Willem Van den Heuvel  : Paramagnetic NMR
   Boris Wezisla          : Elementary symmetry handling
   Frank Wennmohs         : Technical directorship


 We gratefully acknowledge several colleagues who have allowed us to
 interface, adapt or use parts of their codes:
   Stefan Grimme, W. Hujo, H. Kruse,             : VdW corrections, initial TS optimization,
                  C. Bannwarth                     DFT functionals, gCP, sTDA/sTD-DF
   Ed Valeev, F. Pavosevic, A. Kumar             : LibInt (2-el integral package), F12 methods
   Garnet Chan, S. Sharma, J. Yang, R. Olivares  : DMRG
   Ulf Ekstrom                                   : XCFun DFT Library
   Mihaly Kallay                                 : mrcc  (arbitrary order and MRCC methods)
   Andreas Klamt, Michael Diedenhofen            : otool_cosmo (COSMO solvation model)
   Jiri Pittner, Ondrej Demel                    : Mk-CCSD
   Frank Weinhold                                : gennbo (NPA and NBO analysis)
   Christopher J. Cramer and Donald G. Truhlar   : smd solvation model
   Lars Goerigk                                  : TD-DFT with DH, B97 family of functionals
   V. Asgeirsson, H. Jonsson                     : NEB implementation
   FAccTs GmbH                                   : IRC, NEB, NEB-TS, Multilevel, MM, QM/MM, CI optimization
   S Lehtola, MJT Oliveira, MAL Marques          : LibXC Library


 Your calculation uses the libint2 library for the computation of 2-el integrals
 For citations please refer to: http://libint.valeyev.net

 Your ORCA version has been built with support for libXC version: 4.2.3
 For citations please refer to: https://tddft.org/programs/libxc/

 This ORCA versions uses:
   CBLAS   interface :  Fast vector & matrix operations
   LAPACKE interface :  Fast linear algebra routines
   SCALAPACK package :  Parallel linear algebra routines


Your calculation utilizes the DFT-NL dispersion correction.
Cite in your paper:
Vydrov, O. A.; Van Voorhis, T. J. Chem. Phys. 2010, 133, 244103
Hujo, W.; Grimme, S. J. Chem. Theory Comput. 2011, 7, 3866 
   

----- Orbital basis set information -----
Your calculation utilizes the basis: aug-cc-pVTZ 
    H, B-Ne : Obtained from the ccRepo (grant-hill.group.shef.ac.uk/ccrepo) Feb. 2017
              R. A. Kendall, T. H. Dunning, Jr., R. J. Harrison, J. Chem. Phys. 96, 6796 (1992)
         He : Obtained from the ccRepo (grant-hill.group.shef.ac.uk/ccrepo) Feb. 2017
              D. E. Woon, T. H. Dunning, Jr., J. Chem. Phys. 100, 2975 (1994)
  Li-Be, Na : Obtained from the ccRepo (grant-hill.group.shef.ac.uk/ccrepo) Feb. 2017
              B. P. Prascher, D. E. Woon, K. A. Peterson, T. H. Dunning, Jr., A. K. Wilson, Theor. Chem. Acc. 128, 69 (2011)
         Mg : Obtained from the Peterson Research Group Website (tyr0.chem.wsu.edu/~kipeters) Feb. 2017
              B. P. Prascher, D. E. Woon, K. A. Peterson, T. H. Dunning, Jr., A. K. Wilson, Theor. Chem. Acc. 128, 69 (2011)
      Al-Ar : Obtained from the ccRepo (grant-hill.group.shef.ac.uk/ccrepo) Feb. 2017
              D. E. Woon, T. H. Dunning, Jr., J. Chem. Phys. 98, 1358 (1993)
      Sc-Zn : Obtained from the ccRepo (grant-hill.group.shef.ac.uk/ccrepo) Feb. 2017
              N. B. Balabanov, K. A. Peterson, J. Chem. Phys. 123, 064107 (2005)
              N. B. Balabanov, K. A. Peterson, J. Chem. Phys. 125, 074110 (2006)
      Ga-Kr : Obtained from the ccRepo (grant-hill.group.shef.ac.uk/ccrepo) Feb. 2017
              A. K. Wilson, D. E. Woon, K. A. Peterson, T. H. Dunning, Jr., J. Chem. Phys. 110, 7667 (1999)
     Ag, Au : Obtained from the Peterson Research Group Website (tyr0.chem.wsu.edu/~kipeters) Feb. 2017
              K. A. Peterson, C. Puzzarini, Theor. Chem. Acc. 114, 283 (2005)

----- AuxJK basis set information -----
Your calculation utilizes the auxiliary basis: def2/JK
   H-Ba, Hf-Rn: F. Weigend, J. Comput. Chem. 29, 167 (2008).

================================================================================
                                        WARNINGS
                       Please study these warnings very carefully!
================================================================================


WARNING: your system is open-shell and RHF/RKS was chosen
  ===> : WILL SWITCH to UHF/UKS


INFO   : the flag for use of LIBINT has been found!

================================================================================
                                       INPUT FILE
================================================================================
NAME = 19_CrH.in
|  1> #
|  2> # 19_CrH wb97x-v/aug-cc-pvtz
|  3> #
|  4> ! wb97x-v aug-cc-pvtz def2/jk grid4 nofinalgrid
|  5> 
|  6> *xyz 0 6
|  7>   Cr  0.00000000000000      0.00000000000000      0.17036458455703
|  8>   H   0.00000000000000      0.00000000000000      1.82963541544297
|  9> *
| 10> 
| 11> %pal
| 12> nprocs 24
| 13> end
| 14> 
| 15> 
| 16>                          ****END OF INPUT****
================================================================================

                       ****************************
                       * Single Point Calculation *
                       ****************************

---------------------------------
CARTESIAN COORDINATES (ANGSTROEM)
---------------------------------
  Cr     0.000000    0.000000    0.170365
  H      0.000000    0.000000    1.829635

----------------------------
CARTESIAN COORDINATES (A.U.)
----------------------------
  NO LB      ZA    FRAG     MASS         X           Y           Z
   0 Cr   24.0000    0    52.000    0.000000    0.000000    0.321942
   1 H     1.0000    0     1.008    0.000000    0.000000    3.457510

--------------------------------
INTERNAL COORDINATES (ANGSTROEM)
--------------------------------
 Cr     0   0   0     0.000000000000     0.00000000     0.00000000
 H      1   0   0     1.659270830886     0.00000000     0.00000000

---------------------------
INTERNAL COORDINATES (A.U.)
---------------------------
 Cr     0   0   0     0.000000000000     0.00000000     0.00000000
 H      1   0   0     3.135567452378     0.00000000     0.00000000

---------------------
BASIS SET INFORMATION
---------------------
There are 2 groups of distinct atoms

 Group   1 Type Cr  : 116s77p23d3f2g contracted to 8s7p5d3f2g pattern {19191919191911/151515151511/77711/111/11}
 Group   2 Type H   : 6s3p2d contracted to 4s3p2d pattern {3111/111/11}

Atom   0Cr   basis set group =>   1
Atom   1H    basis set group =>   2
----------------------------------
AUXILIARY/JK BASIS SET INFORMATION
----------------------------------
There are 2 groups of distinct atoms

 Group   1 Type Cr  : 19s14p12d10f7g3h1i contracted to 16s13p11d9f5g3h1i pattern {4111111111111111/2111111111111/21111111111/211111111/31111/111/1}
 Group   2 Type H   : 4s2p2d contracted to 2s2p2d pattern {31/11/11}

Atom   0Cr   basis set group =>   1
Atom   1H    basis set group =>   2


           ************************************************************
           *        Program running with 24 parallel MPI-processes    *
           *              working on a common directory               *
           ************************************************************
------------------------------------------------------------------------------
                           ORCA GTO INTEGRAL CALCULATION
------------------------------------------------------------------------------

                         BASIS SET STATISTICS AND STARTUP INFO

 # of primitive gaussian shells          ...  232
 # of primitive gaussian functions       ...  526
 # of contracted shells                  ...   34
 # of contracted basis functions         ...  116
 Highest angular momentum                ...    4
 Maximum contraction depth               ...   19
 Integral package used                   ... LIBINT
 Integral threshhold            Thresh   ...  1.000e-10
 Primitive cut-off              TCut     ...  1.000e-11


------------------------------ INTEGRAL EVALUATION ----------------------------


 * One electron integrals 
 Pre-screening matrix                    ... done
 Shell pair data                         ... done (   0.001 sec)



           ************************************************************
           *        Program running with 24 parallel MPI-processes    *
           *              working on a common directory               *
           ************************************************************
-------------------------------------------------------------------------------
                                 ORCA SCF
-------------------------------------------------------------------------------

------------
SCF SETTINGS
------------
Hamiltonian:
 Density Functional     Method          .... DFT(GTOs)
 Exchange Functional    Exchange        .... WB97X-V
 Correlation Functional Correlation     .... WB97X-V
 Gradients option       PostSCFGGA      .... off
 Hybrid DFT is turned on
   Fraction HF Exchange ScalHFX         ....  0.167000
   Scaling of DF-GGA-X  ScalDFX         ....  0.000000
   Scaling of DF-GGA-C  ScalDFC         ....  1.000000
   Scaling of DF-LDA-C  ScalLDAC        ....  1.000000
   Perturbative correction              ....  0.000000
   Density functional embedding theory  .... OFF
 Long-range corrected/Screened/Range-Separated Hybrid DFT is turned on
   Amount of maximum screened exact exchange              ....  0.833000
   Range separation parameter mu (erf(mu*r12)/r12)        ....  0.300000
   NL short-range parameter             ....  6.000000
   NL long-range parameter              ....  0.010000


General Settings:
 Integral files         IntName         .... 19_CrH
 Hartree-Fock type      HFTyp           .... UHF
 Total Charge           Charge          ....    0
 Multiplicity           Mult            ....    6
 Number of Electrons    NEL             ....   25
 Basis Dimension        Dim             ....  116
 Nuclear Repulsion      ENuc            ....      7.6541169547 Eh

Convergence Acceleration:
 DIIS                   CNVDIIS         .... on
   Start iteration      DIISMaxIt       ....    12
   Startup error        DIISStart       ....  0.200000
   # of expansion vecs  DIISMaxEq       ....     5
   Bias factor          DIISBfac        ....   1.050
   Max. coefficient     DIISMaxC        ....  10.000
 Newton-Raphson         CNVNR           .... off
 SOSCF                  CNVSOSCF        .... off
 Level Shifting         CNVShift        .... on
   Level shift para.    LevelShift      ....    0.2500
   Turn off err/grad.   ShiftErr        ....    0.0010
 Zerner damping         CNVZerner       .... off
 Static damping         CNVDamp         .... on
   Fraction old density DampFac         ....    0.7000
   Max. Damping (<1)    DampMax         ....    0.9800
   Min. Damping (>=0)   DampMin         ....    0.0000
   Turn off err/grad.   DampErr         ....    0.1000
 Fernandez-Rico         CNVRico         .... off

SCF Procedure:
 Maximum # iterations   MaxIter         ....   125
 SCF integral mode      SCFMode         .... Direct
   Integral package                     .... LIBINT
 Reset frequency        DirectResetFreq ....    20
 Integral Threshold     Thresh          ....  1.000e-10 Eh
 Primitive CutOff       TCut            ....  1.000e-11 Eh

Convergence Tolerance:
 Convergence Check Mode ConvCheckMode   .... Total+1el-Energy
 Convergence forced     ConvForced      .... 0
 Energy Change          TolE            ....  1.000e-06 Eh
 1-El. energy change                    ....  1.000e-03 Eh
 DIIS Error             TolErr          ....  1.000e-06


Diagonalization of the overlap matrix:
Smallest eigenvalue                        ... 8.982e-05
Time for diagonalization                   ...    0.004 sec
Threshold for overlap eigenvalues          ... 1.000e-08
Number of eigenvalues below threshold      ... 0
Time for construction of square roots      ...    0.002 sec
Total time needed                          ...    0.006 sec

-------------------
DFT GRID GENERATION
-------------------

General Integration Accuracy     IntAcc      ...  4.670
Radial Grid Type                 RadialGrid  ... Gauss-Chebyshev
Angular Grid (max. acc.)         AngularGrid ... Lebedev-302
Angular grid pruning method      GridPruning ... 3 (G Style)
Weight generation scheme         WeightScheme... Becke
Basis function cutoff            BFCut       ...    1.0000e-10
Integration weight cutoff        WCut        ...    1.0000e-14
Grids for H and He will be reduced by one unit

# of grid points (after initial pruning)     ...  13058 (   0.0 sec)
# of grid points (after weights+screening)   ...  13018 (   0.0 sec)
nearest neighbour list constructed           ...    0.0 sec
Grid point re-assignment to atoms done       ...    0.0 sec
Grid point division into batches done        ...    0.1 sec
Reduced shell lists constructed in    0.1 sec

Total number of grid points                  ...    13018
Total number of batches                      ...      205
Average number of points per batch           ...       63
Average number of grid points per atom       ...     6509
Average number of shells per batch           ...    14.90 (43.82%)
Average number of basis functions per batch  ...    36.70 (31.64%)
Average number of large shells per batch     ...     8.60 (57.72%)
Average number of large basis fcns per batch ...    22.20 (60.49%)
Maximum spatial batch extension              ...  31.41, 28.57, 18.88 au
Average spatial batch extension              ...   1.01,  0.93,  0.72 au

Time for grid setup =    0.122 sec

------------------------------
INITIAL GUESS: MODEL POTENTIAL
------------------------------
Loading Hartree-Fock densities                     ... done
Calculating cut-offs                               ... done
Setting up the integral package                    ... done
Initializing the effective Hamiltonian             ... done
Starting the Coulomb interaction                   ... done (   0.0 sec)
Reading the grid                                   ... done
Mapping shells                                     ... done
Starting the XC term evaluation                    ... done (   0.0 sec)
  promolecular density results
     # of electrons  =     24.999514660
     EX              =    -36.057605538
     EC              =     -1.392151677
     EX+EC           =    -37.449757215
Transforming the Hamiltonian                       ... done (   0.0 sec)
Diagonalizing the Hamiltonian                      ... done (   0.0 sec)
Back transforming the eigenvectors                 ... done (   0.0 sec)
Now organizing SCF variables                       ... done
                      ------------------
                      INITIAL GUESS DONE (   0.2 sec)
                      ------------------
--------------
SCF ITERATIONS
--------------
ITER       Energy         Delta-E        Max-DP      RMS-DP      [F,P]     Damp
               ***  Starting incremental Fock matrix formation  ***
  0  -1039.8190009603   0.000000000000 5.27713781  0.06908920  1.0572494 0.7000
  1  -1042.5833517109  -2.764350750620 3.70698188  0.03848854  0.2504874 0.7000
  2  -1043.4430911137  -0.859739402802 2.62221859  0.03126762  0.3925350 0.7000
  3  -1043.8667096324  -0.423618518663 1.85549367  0.02292136  0.3912611 0.7000
  4  -1044.1793709727  -0.312661340351 1.30851588  0.01641317  0.2767845 0.7000
                               ***Turning on DIIS***
  5  -1044.4072355554  -0.227864582685 0.92001090  0.01158626  0.1839002 0.7000
  6  -1044.5703792279  -0.163143672429 0.64679045  0.00806976  0.1175648 0.7000
  7  -1044.6881531471  -0.117773919194 1.51521379  0.01895863  0.0839723 0.0000
  8  -1044.9837856881  -0.295632541009 0.03873186  0.00063853  0.0272438 0.0000
  9  -1044.9880562923  -0.004270604185 0.02198817  0.00033654  0.0168095 0.0000
 10  -1044.9901634059  -0.002107113615 0.01599809  0.00028512  0.0117442 0.0000
 11  -1044.9911353033  -0.000971897418 0.00907399  0.00018350  0.0040732 0.0000
 12  -1044.9914177612  -0.000282457888 0.00559774  0.00008556  0.0029599 0.0000
 13  -1044.9915097723  -0.000092011168 0.00546564  0.00007130  0.0008419 0.0000
 14  -1044.9915339604  -0.000024188080 0.00105588  0.00002286  0.0004262 0.0000
 15  -1044.9915363385  -0.000002378093 0.00088053  0.00001075  0.0001776 0.0000
 16  -1044.9915372041  -0.000000865634 0.00082706  0.00000701  0.0001220 0.0000
 17  -1044.9915376094  -0.000000405221 0.00091122  0.00000780  0.0000840 0.0000
 18  -1044.9915378479  -0.000000238542 0.00035026  0.00000342  0.0000431 0.0000
                 **** Energy Check signals convergence ****

               *****************************************************
               *                     SUCCESS                       *
               *           SCF CONVERGED AFTER  19 CYCLES          *
               *****************************************************


Setting up the DFT-NL grid :

General Integration Accuracy     IntAcc      ...  4.340
Radial Grid Type                 RadialGrid  ... Gauss-Chebyshev
Angular Grid (max. acc.)         AngularGrid ... Lebedev-110
Angular grid pruning method      GridPruning ... 3 (G Style)
Weight generation scheme         WeightScheme... Becke
Basis function cutoff            BFCut       ...    1.0000e-10
Integration weight cutoff        WCut        ...    1.0000e-14
Grids for H and He will be reduced by one unit

# of grid points (after initial pruning)     ...   3766 (   0.0 sec)
# of grid points (after weights+screening)   ...   3742 (   0.0 sec)
nearest neighbour list constructed           ...    0.0 sec
Grid point re-assignment to atoms done       ...    0.0 sec
Grid point division into batches done        ...    0.0 sec
Reduced shell lists constructed in    0.0 sec

Total number of grid points                  ...     3742
Total number of batches                      ...       60
Average number of points per batch           ...       62
Average number of grid points per atom       ...     1871
Average number of shells per batch           ...    21.75 (63.97%)
Average number of basis functions per batch  ...    68.25 (58.84%)
Average number of large shells per batch     ...    15.75 (72.41%)
Average number of large basis fcns per batch ...    45.75 (67.03%)
Maximum spatial batch extension              ...  37.20, 28.73, 20.01 au
Average spatial batch extension              ...   1.28,  1.29,  0.86 au

Final grid set up in    0.0 sec

-------------------------------------------------------------------------------
                         DFT-NL dispersion correction                          
-------------------------------------------------------------------------------

SC Energy -1044.991537894 
NL    Energy 0.105675060 
SC+NL Energy -1044.885862834 
NL done in    0.1 sec
-------------------------------------------------------------------------------

----------------
TOTAL SCF ENERGY
----------------

Total Energy       :        -1044.88586283 Eh          -28432.78982 eV

Components:
Nuclear Repulsion  :            7.65411695 Eh             208.27911 eV
Electronic Energy  :        -1052.53997979 Eh          -28641.06893 eV
One Electron Energy:        -1454.17062133 Eh          -39569.99431 eV
Two Electron Energy:          401.63064154 Eh           10928.92537 eV

Virial components:
Potential Energy   :        -2088.22316112 Eh          -56823.44106 eV
Kinetic Energy     :         1043.33729828 Eh           28390.65124 eV
Virial Ratio       :            2.00148424


DFT components:
N(Alpha)           :       15.000000703675 electrons
N(Beta)            :        9.999999121025 electrons
N(Total)           :       24.999999824700 electrons
E(X)               :      -36.343581490996 Eh       
E(C)               :       -1.351331334341 Eh       
NL Energy, E(C,NL) :        0.105675059924 Eh       
E(XC)              :      -37.589237765413 Eh       
DFET-embed. en.    :        0.000000000000 Eh       

---------------
SCF CONVERGENCE
---------------

  Last Energy change         ...   -4.6186e-08  Tolerance :   1.0000e-06
  Last MAX-Density change    ...    2.3804e-04  Tolerance :   1.0000e-05
  Last RMS-Density change    ...    2.3469e-06  Tolerance :   1.0000e-06
  Last DIIS Error            ...    1.5175e-05  Tolerance :   1.0000e-06

             **** THE GBW FILE WAS UPDATED (19_CrH.gbw) ****
             **** DENSITY FILE WAS UPDATED (19_CrH.scfp) ****
             **** ENERGY FILE WAS UPDATED (19_CrH.en.tmp) ****
----------------------
UHF SPIN CONTAMINATION
----------------------

Warning: in a DFT calculation there is little theoretical justification to 
         calculate <S**2> as in Hartree-Fock theory. We will do it anyways
         but you should keep in mind that the values have only limited relevance

Expectation value of <S**2>     :     8.778221
Ideal value S*(S+1) for S=2.5   :     8.750000
Deviation                       :     0.028221

             **** THE GBW FILE WAS UPDATED (19_CrH.gbw) ****
             **** DENSITY FILE WAS UPDATED (19_CrH.scfp) ****
----------------
ORBITAL ENERGIES
----------------
                 SPIN UP ORBITALS
  NO   OCC          E(Eh)            E(eV) 
   0   1.0000    -215.565320     -5865.8306 
   1   1.0000     -24.694143      -671.9618 
   2   1.0000     -20.975817      -570.7810 
   3   1.0000     -20.974965      -570.7578 
   4   1.0000     -20.974965      -570.7578 
   5   1.0000      -2.990835       -81.3848 
   6   1.0000      -1.946966       -52.9796 
   7   1.0000      -1.945372       -52.9363 
   8   1.0000      -1.945372       -52.9363 
   9   1.0000      -0.367092        -9.9891 
  10   1.0000      -0.319640        -8.6978 
  11   1.0000      -0.319640        -8.6978 
  12   1.0000      -0.314179        -8.5492 
  13   1.0000      -0.314179        -8.5492 
  14   1.0000      -0.272679        -7.4200 
  15   0.0000      -0.006665        -0.1814 
  16   0.0000       0.015567         0.4236 
  17   0.0000       0.015567         0.4236 
  18   0.0000       0.026106         0.7104 
  19   0.0000       0.037185         1.0118 
  20   0.0000       0.059303         1.6137 
  21   0.0000       0.059303         1.6137 
  22   0.0000       0.075921         2.0659 
  23   0.0000       0.078023         2.1231 
  24   0.0000       0.078023         2.1231 
  25   0.0000       0.080359         2.1867 
  26   0.0000       0.080359         2.1867 
  27   0.0000       0.101166         2.7529 
  28   0.0000       0.164364         4.4726 
  29   0.0000       0.211575         5.7573 
  30   0.0000       0.211575         5.7573 
  31   0.0000       0.225518         6.1367 
  32   0.0000       0.249119         6.7789 
  33   0.0000       0.274124         7.4593 
  34   0.0000       0.274124         7.4593 
  35   0.0000       0.277688         7.5563 
  36   0.0000       0.277688         7.5563 
  37   0.0000       0.340134         9.2555 
  38   0.0000       0.340134         9.2555 
  39   0.0000       0.344372         9.3708 
  40   0.0000       0.484126        13.1737 
  41   0.0000       0.625324        17.0159 
  42   0.0000       0.625324        17.0159 
  43   0.0000       0.627550        17.0765 
  44   0.0000       0.627550        17.0765 
  45   0.0000       0.699930        19.0461 
  46   0.0000       0.699930        19.0461 
  47   0.0000       0.701178        19.0800 
  48   0.0000       0.722865        19.6702 
  49   0.0000       0.722865        19.6702 
  50   0.0000       0.732118        19.9219 
  51   0.0000       0.787276        21.4229 
  52   0.0000       0.893812        24.3219 
  53   0.0000       0.893812        24.3219 
  54   0.0000       0.905341        24.6356 
  55   0.0000       0.905341        24.6356 
  56   0.0000       1.011049        27.5120 
  57   0.0000       1.011051        27.5121 
  58   0.0000       1.036763        28.2117 
  59   0.0000       1.057758        28.7831 
  60   0.0000       1.057758        28.7831 
  61   0.0000       1.295451        35.2510 
  62   0.0000       1.455113        39.5956 
  63   0.0000       1.455113        39.5956 
  64   0.0000       1.759797        47.8865 
  65   0.0000       1.821021        49.5525 
  66   0.0000       1.889330        51.4113 
  67   0.0000       1.889330        51.4113 
  68   0.0000       1.893309        51.5195 
  69   0.0000       1.893315        51.5197 
  70   0.0000       1.996662        54.3319 
  71   0.0000       1.996662        54.3319 
  72   0.0000       2.219568        60.3975 
  73   0.0000       2.286095        62.2078 
  74   0.0000       2.286116        62.2084 
  75   0.0000       2.288856        62.2830 
  76   0.0000       2.288856        62.2830 
  77   0.0000       2.393047        65.1181 
  78   0.0000       2.393048        65.1181 
  79   0.0000       2.412730        65.6537 
  80   0.0000       2.412730        65.6537 
  81   0.0000       2.477136        67.4063 
  82   0.0000       2.636166        71.7337 
  83   0.0000       2.636166        71.7337 
  84   0.0000       2.802950        76.2721 
  85   0.0000       3.092539        84.1523 
  86   0.0000       3.430012        93.3354 
  87   0.0000       3.430016        93.3355 
  88   0.0000       3.542448        96.3949 
  89   0.0000       3.542448        96.3949 
  90   0.0000       3.857643       104.9718 
  91   0.0000       3.857711       104.9736 
  92   0.0000       3.859945       105.0344 
  93   0.0000       4.180850       113.7667 
  94   0.0000       4.180850       113.7667 
  95   0.0000       4.294318       116.8543 
  96   0.0000       4.294318       116.8543 
  97   0.0000       4.620636       125.7339 
  98   0.0000       4.945287       134.5681 
  99   0.0000       6.266112       170.5096 
 100   0.0000       6.266112       170.5096 
 101   0.0000       6.266876       170.5304 
 102   0.0000       6.266891       170.5308 
 103   0.0000       6.375920       173.4976 
 104   0.0000       6.375920       173.4976 
 105   0.0000       6.612198       179.9271 
 106   0.0000       6.734320       183.2502 
 107   0.0000       6.734320       183.2502 
 108   0.0000       6.737203       183.3286 
 109   0.0000       6.737247       183.3298 
 110   0.0000       6.789410       184.7492 
 111   0.0000       6.789426       184.7497 
 112   0.0000       6.953705       189.2199 
 113   0.0000       6.953705       189.2199 
 114   0.0000       7.057171       192.0354 
 115   0.0000       8.043510       218.8750 

                 SPIN DOWN ORBITALS
  NO   OCC          E(Eh)            E(eV) 
   0   1.0000    -215.564526     -5865.8090 
   1   1.0000     -24.633702      -670.3171 
   2   1.0000     -20.929970      -569.5334 
   3   1.0000     -20.924046      -569.3722 
   4   1.0000     -20.924046      -569.3722 
   5   1.0000      -2.820853       -76.7593 
   6   1.0000      -1.767307       -48.0909 
   7   1.0000      -1.754598       -47.7450 
   8   1.0000      -1.754598       -47.7450 
   9   1.0000      -0.351766        -9.5720 
  10   0.0000      -0.001202        -0.0327 
  11   0.0000       0.026871         0.7312 
  12   0.0000       0.026871         0.7312 
  13   0.0000       0.029582         0.8050 
  14   0.0000       0.039748         1.0816 
  15   0.0000       0.073661         2.0044 
  16   0.0000       0.079239         2.1562 
  17   0.0000       0.079239         2.1562 
  18   0.0000       0.082286         2.2391 
  19   0.0000       0.082287         2.2391 
  20   0.0000       0.082451         2.2436 
  21   0.0000       0.082451         2.2436 
  22   0.0000       0.096113         2.6154 
  23   0.0000       0.127916         3.4808 
  24   0.0000       0.142416         3.8753 
  25   0.0000       0.142416         3.8753 
  26   0.0000       0.148343         4.0366 
  27   0.0000       0.148344         4.0366 
  28   0.0000       0.192031         5.2254 
  29   0.0000       0.236963         6.4481 
  30   0.0000       0.236963         6.4481 
  31   0.0000       0.240757         6.5513 
  32   0.0000       0.279338         7.6012 
  33   0.0000       0.317296         8.6341 
  34   0.0000       0.317296         8.6341 
  35   0.0000       0.318305         8.6615 
  36   0.0000       0.318305         8.6615 
  37   0.0000       0.343934         9.3589 
  38   0.0000       0.343934         9.3589 
  39   0.0000       0.358656         9.7595 
  40   0.0000       0.501413        13.6441 
  41   0.0000       0.641054        17.4440 
  42   0.0000       0.641054        17.4440 
  43   0.0000       0.643624        17.5139 
  44   0.0000       0.643627        17.5140 
  45   0.0000       0.727570        19.7982 
  46   0.0000       0.727570        19.7982 
  47   0.0000       0.734404        19.9842 
  48   0.0000       0.747975        20.3534 
  49   0.0000       0.750480        20.4216 
  50   0.0000       0.750480        20.4216 
  51   0.0000       0.799705        21.7611 
  52   0.0000       0.952122        25.9085 
  53   0.0000       0.952123        25.9086 
  54   0.0000       0.954243        25.9663 
  55   0.0000       0.954243        25.9663 
  56   0.0000       1.040304        28.3081 
  57   0.0000       1.040304        28.3081 
  58   0.0000       1.056912        28.7600 
  59   0.0000       1.056912        28.7600 
  60   0.0000       1.058756        28.8102 
  61   0.0000       1.325361        36.0649 
  62   0.0000       1.476540        40.1787 
  63   0.0000       1.476540        40.1787 
  64   0.0000       1.829531        49.7841 
  65   0.0000       1.855633        50.4943 
  66   0.0000       1.977976        53.8235 
  67   0.0000       1.977984        53.8237 
  68   0.0000       1.978163        53.8286 
  69   0.0000       1.978163        53.8286 
  70   0.0000       2.064256        56.1713 
  71   0.0000       2.064256        56.1713 
  72   0.0000       2.256343        61.3982 
  73   0.0000       2.337525        63.6073 
  74   0.0000       2.337525        63.6073 
  75   0.0000       2.339390        63.6580 
  76   0.0000       2.339413        63.6587 
  77   0.0000       2.435856        66.2830 
  78   0.0000       2.435857        66.2830 
  79   0.0000       2.495325        67.9012 
  80   0.0000       2.495325        67.9012 
  81   0.0000       2.546829        69.3027 
  82   0.0000       2.683822        73.0305 
  83   0.0000       2.683822        73.0305 
  84   0.0000       2.844209        77.3949 
  85   0.0000       3.093143        84.1687 
  86   0.0000       3.553351        96.6916 
  87   0.0000       3.553358        96.6918 
  88   0.0000       3.655272        99.4650 
  89   0.0000       3.655272        99.4650 
  90   0.0000       3.850106       104.7667 
  91   0.0000       3.850175       104.7686 
  92   0.0000       3.947178       107.4082 
  93   0.0000       4.184203       113.8579 
  94   0.0000       4.184203       113.8579 
  95   0.0000       4.290083       116.7391 
  96   0.0000       4.290083       116.7391 
  97   0.0000       4.627342       125.9164 
  98   0.0000       4.959868       134.9649 
  99   0.0000       6.412138       174.4831 
 100   0.0000       6.412138       174.4831 
 101   0.0000       6.419939       174.6954 
 102   0.0000       6.419955       174.6959 
 103   0.0000       6.512702       177.2196 
 104   0.0000       6.512702       177.2196 
 105   0.0000       6.730458       183.1451 
 106   0.0000       6.853427       186.4912 
 107   0.0000       6.853447       186.4918 
 108   0.0000       6.853447       186.4918 
 109   0.0000       6.853454       186.4920 
 110   0.0000       6.901534       187.8003 
 111   0.0000       6.901559       187.8010 
 112   0.0000       7.057043       192.0319 
 113   0.0000       7.057043       192.0319 
 114   0.0000       7.158749       194.7995 
 115   0.0000       8.152115       221.8303 

                    ********************************
                    * MULLIKEN POPULATION ANALYSIS *
                    ********************************

--------------------------------------------
MULLIKEN ATOMIC CHARGES AND SPIN POPULATIONS
--------------------------------------------
   0 Cr:    0.248809    5.079860
   1 H :   -0.248809   -0.079860
Sum of atomic charges         :   -0.0000000
Sum of atomic spin populations:    5.0000000

-----------------------------------------------------
MULLIKEN REDUCED ORBITAL CHARGES AND SPIN POPULATIONS
-----------------------------------------------------
CHARGE
  0 Crs       :     6.767374  s :     6.767374
      pz      :     4.134433  p :    12.141563
      px      :     4.003565
      py      :     4.003565
      dz2     :     0.843008  d :     4.835353
      dxz     :     0.996576
      dyz     :     0.996576
      dx2y2   :     0.999596
      dxy     :     0.999596
      f0      :     0.005867  f :     0.006484
      f+1     :     0.000071
      f-1     :     0.000071
      f+2     :     0.000237
      f-2     :     0.000237
      f+3     :     0.000000
      f-3     :     0.000000
      g0      :     0.000418  g :     0.000417
      g+1     :    -0.000001
      g-1     :    -0.000001
      g+2     :     0.000000
      g-2     :     0.000000
      g+3     :     0.000000
      g-3     :     0.000000
      g+4     :     0.000000
      g-4     :     0.000000
  1 H s       :     1.245656  s :     1.245656
      pz      :     0.002955  p :     0.004319
      px      :     0.000682
      py      :     0.000682
      dz2     :     0.000290  d :    -0.001166
      dxz     :    -0.000894
      dyz     :    -0.000894
      dx2y2   :     0.000166
      dxy     :     0.000166

SPIN
  0 Crs       :     0.427360  s :     0.427360
      pz      :    -0.012485  p :    -0.006613
      px      :     0.002936
      py      :     0.002936
      dz2     :     0.666208  d :     4.658374
      dxz     :     0.996487
      dyz     :     0.996487
      dx2y2   :     0.999596
      dxy     :     0.999596
      f0      :     0.000306  f :     0.000920
      f+1     :     0.000069
      f-1     :     0.000069
      f+2     :     0.000237
      f-2     :     0.000237
      f+3     :    -0.000000
      f-3     :    -0.000000
      g0      :    -0.000179  g :    -0.000181
      g+1     :    -0.000001
      g-1     :    -0.000001
      g+2     :     0.000000
      g-2     :     0.000000
      g+3     :    -0.000000
      g-3     :    -0.000000
      g+4     :    -0.000000
      g-4     :    -0.000000
  1 H s       :    -0.083145  s :    -0.083145
      pz      :     0.002450  p :     0.004195
      px      :     0.000873
      py      :     0.000873
      dz2     :    -0.000516  d :    -0.000910
      dxz     :    -0.000364
      dyz     :    -0.000364
      dx2y2   :     0.000166
      dxy     :     0.000166


                     *******************************
                     * LOEWDIN POPULATION ANALYSIS *
                     *******************************

-------------------------------------------
LOEWDIN ATOMIC CHARGES AND SPIN POPULATIONS
-------------------------------------------
   0 Cr:    0.614309    4.877416
   1 H :   -0.614309    0.122584

----------------------------------------------------
LOEWDIN REDUCED ORBITAL CHARGES AND SPIN POPULATIONS
----------------------------------------------------
CHARGE
  0 Crs       :     6.599490  s :     6.599490
      pz      :     4.117392  p :    12.031791
      px      :     3.957200
      py      :     3.957200
      dz2     :     0.852139  d :     4.720808
      dxz     :     0.941547
      dyz     :     0.941547
      dx2y2   :     0.992787
      dxy     :     0.992787
      f0      :     0.024726  f :     0.030231
      f+1     :     0.002088
      f-1     :     0.002088
      f+2     :     0.000665
      f-2     :     0.000665
      f+3     :     0.000000
      f-3     :     0.000000
      g0      :     0.002823  g :     0.003371
      g+1     :     0.000249
      g-1     :     0.000249
      g+2     :     0.000025
      g-2     :     0.000025
      g+3     :     0.000000
      g-3     :     0.000000
      g+4     :     0.000000
      g-4     :     0.000000
  1 H s       :     1.083111  s :     1.083111
      pz      :     0.192085  p :     0.276284
      px      :     0.042100
      py      :     0.042100
      dz2     :     0.128233  d :     0.254914
      dxz     :     0.056818
      dyz     :     0.056818
      dx2y2   :     0.006522
      dxy     :     0.006522

SPIN
  0 Crs       :     0.405267  s :     0.405267
      pz      :    -0.034785  p :    -0.015041
      px      :     0.009872
      py      :     0.009872
      dz2     :     0.622969  d :     4.486105
      dxz     :     0.938780
      dyz     :     0.938780
      dx2y2   :     0.992787
      dxy     :     0.992787
      f0      :    -0.003214  f :     0.001308
      f+1     :     0.001596
      f-1     :     0.001596
      f+2     :     0.000665
      f-2     :     0.000665
      f+3     :    -0.000000
      f-3     :    -0.000000
      g0      :    -0.000681  g :    -0.000222
      g+1     :     0.000204
      g-1     :     0.000204
      g+2     :     0.000025
      g-2     :     0.000025
      g+3     :    -0.000000
      g-3     :    -0.000000
      g+4     :    -0.000000
      g-4     :    -0.000000
  1 H s       :    -0.019003  s :    -0.019003
      pz      :     0.028854  p :     0.079338
      px      :     0.025242
      py      :     0.025242
      dz2     :     0.000593  d :     0.062249
      dxz     :     0.024306
      dyz     :     0.024306
      dx2y2   :     0.006522
      dxy     :     0.006522


                      *****************************
                      * MAYER POPULATION ANALYSIS *
                      *****************************

  NA   - Mulliken gross atomic population
  ZA   - Total nuclear charge
  QA   - Mulliken gross atomic charge
  VA   - Mayer's total valence
  BVA  - Mayer's bonded valence
  FA   - Mayer's free valence

  ATOM       NA         ZA         QA         VA         BVA        FA
  0 Cr    23.7512    24.0000     0.2488     5.9575     0.9933     4.9642
  1 H      1.2488     1.0000    -0.2488     1.0110     0.9933     0.0177

  Mayer bond orders larger than 0.100000
B(  0-Cr,  1-H ) :   0.9933 

-------
TIMINGS
-------

Total SCF time: 0 days 0 hours 3 min 32 sec 

Total time                  ....     212.744 sec
Sum of individual times     ....     212.375 sec  ( 99.8%)

Fock matrix formation       ....     212.035 sec  ( 99.7%)
  XC integration            ....       0.343 sec  (  0.2% of F)
    Basis function eval.    ....       0.079 sec  ( 23.1% of XC)
    Density eval.           ....       0.040 sec  ( 11.6% of XC)
    XC-Functional eval.     ....       0.019 sec  (  5.6% of XC)
    XC-Potential eval.      ....       0.095 sec  ( 27.7% of XC)
Diagonalization             ....       0.067 sec  (  0.0%)
Density matrix formation    ....       0.011 sec  (  0.0%)
Population analysis         ....       0.006 sec  (  0.0%)
Initial guess               ....       0.100 sec  (  0.0%)
Orbital Transformation      ....       0.000 sec  (  0.0%)
Orbital Orthonormalization  ....       0.000 sec  (  0.0%)
DIIS solution               ....       0.023 sec  (  0.0%)
Grid generation             ....       0.134 sec  (  0.1%)

-------------------------   --------------------
FINAL SINGLE POINT ENERGY     -1044.885862834171
-------------------------   --------------------


                            ***************************************
                            *     ORCA property calculations      *
                            ***************************************

                                    ---------------------
                                    Active property flags
                                    ---------------------
   (+) Dipole Moment


------------------------------------------------------------------------------
                       ORCA ELECTRIC PROPERTIES CALCULATION
------------------------------------------------------------------------------

Dipole Moment Calculation                       ... on
Quadrupole Moment Calculation                   ... off
Polarizability Calculation                      ... off
GBWName                                         ... 19_CrH.gbw
Electron density file                           ... 19_CrH.scfp
The origin for moment calculation is the CENTER OF MASS  = ( 0.000000,  0.000000  0.381568)

-------------
DIPOLE MOMENT
-------------
                                X             Y             Z
Electronic contribution:      0.00000      -0.00000      -3.07974
Nuclear contribution   :      0.00000       0.00000       1.64492
                        -----------------------------------------
Total Dipole Moment    :      0.00000      -0.00000      -1.43482
                        -----------------------------------------
Magnitude (a.u.)       :      1.43482
Magnitude (Debye)      :      3.64703



--------------------
Rotational spectrum 
--------------------
 
Rotational constants in cm-1:     0.000000     6.192127     6.192127 
Rotational constants in MHz :     0.000000 185635.310837 185635.310837 

 Dipole components along the rotational axes: 
x,y,z [a.u.] :    -1.434824    -0.000000     0.000000 
x,y,z [Debye]:    -3.647032    -0.000000     0.000000 

 

Timings for individual modules:

Sum of individual times         ...      216.186 sec (=   3.603 min)
GTO integral calculation        ...        2.913 sec (=   0.049 min)   1.3 %
SCF iterations                  ...      213.273 sec (=   3.555 min)  98.7 %
                             ****ORCA TERMINATED NORMALLY****
TOTAL RUN TIME: 0 days 0 hours 3 minutes 36 seconds 797 msec
