
                                 *****************
                                 * O   R   C   A *
                                 *****************

           --- An Ab Initio, DFT and Semiempirical electronic structure package ---

                  #######################################################
                  #                        -***-                        #
                  #          Department of theory and spectroscopy      #
                  #               Directorship: Frank Neese             #
                  #        Max Planck Institute fuer Kohlenforschung    #
                  #                Kaiser Wilhelm Platz 1               #
                  #                 D-45470 Muelheim/Ruhr               #
                  #                      Germany                        #
                  #                                                     #
                  #                  All rights reserved                #
                  #                        -***-                        #
                  #######################################################


                         Program Version 4.2.0 -  RELEASE  -


 With contributions from (in alphabetic order):
   Daniel Aravena         : Magnetic Suceptibility
   Michael Atanasov       : Ab Initio Ligand Field Theory (pilot matlab implementation)
   Alexander A. Auer      : GIAO ZORA, VPT2
   Ute Becker             : Parallelization
   Giovanni Bistoni       : ED, misc. LED, open-shell LED, HFLED
   Martin Brehm           : Molecular dynamics
   Dmytro Bykov           : SCF Hessian
   Vijay G. Chilkuri      : MRCI spin determinant printing, contributions to CSF-ICE
   Dipayan Datta          : RHF DLPNO-CCSD density
   Achintya Kumar Dutta   : EOM-CC, STEOM-CC
   Dmitry Ganyushin       : Spin-Orbit,Spin-Spin,Magnetic field MRCI
   Miquel Garcia          : C-PCM Hessian, Gaussian charge scheme
   Yang Guo               : DLPNO-NEVPT2, CIM, IAO-localization
   Andreas Hansen         : Spin unrestricted coupled pair/coupled cluster methods
   Benjamin Helmich-Paris : CASSCF linear response (MC-RPA)
   Lee Huntington         : MR-EOM, pCC
   Robert Izsak           : Overlap fitted RIJCOSX, COSX-SCS-MP3, EOM
   Christian Kollmar      : KDIIS, OOCD, Brueckner-CCSD(T), CCSD density
   Simone Kossmann        : Meta GGA functionals, TD-DFT gradient, OOMP2, MP2 Hessian
   Martin Krupicka        : AUTO-CI
   Lucas Lang             : DCDCAS
   Dagmar Lenk            : GEPOL surface, SMD
   Dimitrios Liakos       : Extrapolation schemes; Compound Job, initial MDCI parallelization
   Dimitrios Manganas     : Further ROCIS development; embedding schemes
   Dimitrios Pantazis     : SARC Basis sets
   Taras Petrenko         : DFT Hessian,TD-DFT gradient, ASA, ECA, R-Raman, ABS, FL, XAS/XES, NRVS
   Peter Pinski           : DLPNO-MP2, DLPNO-MP2 Gradient
   Christoph Reimann      : Effective Core Potentials
   Marius Retegan         : Local ZFS, SOC
   Christoph Riplinger    : Optimizer, TS searches, QM/MM, DLPNO-CCSD(T), (RO)-DLPNO pert. Triples
   Tobias Risthaus        : Range-separated hybrids, TD-DFT gradient, RPA, STAB
   Michael Roemelt        : Original ROCIS implementation
   Masaaki Saitow         : Open-shell DLPNO-CCSD energy and density
   Barbara Sandhoefer     : DKH picture change effects
   Avijit Sen             : IP-ROCIS
   Kantharuban Sivalingam : CASSCF convergence, NEVPT2, FIC-MRCI
   Bernardo de Souza      : ESD, SOC TD-DFT
   Georgi Stoychev        : AutoAux, RI-MP2 NMR
   Willem Van den Heuvel  : Paramagnetic NMR
   Boris Wezisla          : Elementary symmetry handling
   Frank Wennmohs         : Technical directorship


 We gratefully acknowledge several colleagues who have allowed us to
 interface, adapt or use parts of their codes:
   Stefan Grimme, W. Hujo, H. Kruse,             : VdW corrections, initial TS optimization,
                  C. Bannwarth                     DFT functionals, gCP, sTDA/sTD-DF
   Ed Valeev, F. Pavosevic, A. Kumar             : LibInt (2-el integral package), F12 methods
   Garnet Chan, S. Sharma, J. Yang, R. Olivares  : DMRG
   Ulf Ekstrom                                   : XCFun DFT Library
   Mihaly Kallay                                 : mrcc  (arbitrary order and MRCC methods)
   Andreas Klamt, Michael Diedenhofen            : otool_cosmo (COSMO solvation model)
   Jiri Pittner, Ondrej Demel                    : Mk-CCSD
   Frank Weinhold                                : gennbo (NPA and NBO analysis)
   Christopher J. Cramer and Donald G. Truhlar   : smd solvation model
   Lars Goerigk                                  : TD-DFT with DH, B97 family of functionals
   V. Asgeirsson, H. Jonsson                     : NEB implementation
   FAccTs GmbH                                   : IRC, NEB, NEB-TS, Multilevel, MM, QM/MM, CI optimization
   S Lehtola, MJT Oliveira, MAL Marques          : LibXC Library


 Your calculation uses the libint2 library for the computation of 2-el integrals
 For citations please refer to: http://libint.valeyev.net

 Your ORCA version has been built with support for libXC version: 4.2.3
 For citations please refer to: https://tddft.org/programs/libxc/

 This ORCA versions uses:
   CBLAS   interface :  Fast vector & matrix operations
   LAPACKE interface :  Fast linear algebra routines
   SCALAPACK package :  Parallel linear algebra routines


Your calculation utilizes the DFT-NL dispersion correction.
Cite in your paper:
Vydrov, O. A.; Van Voorhis, T. J. Chem. Phys. 2010, 133, 244103
Hujo, W.; Grimme, S. J. Chem. Theory Comput. 2011, 7, 3866 
   

----- Orbital basis set information -----
Your calculation utilizes the basis: aug-cc-pVTZ 
    H, B-Ne : Obtained from the ccRepo (grant-hill.group.shef.ac.uk/ccrepo) Feb. 2017
              R. A. Kendall, T. H. Dunning, Jr., R. J. Harrison, J. Chem. Phys. 96, 6796 (1992)
         He : Obtained from the ccRepo (grant-hill.group.shef.ac.uk/ccrepo) Feb. 2017
              D. E. Woon, T. H. Dunning, Jr., J. Chem. Phys. 100, 2975 (1994)
  Li-Be, Na : Obtained from the ccRepo (grant-hill.group.shef.ac.uk/ccrepo) Feb. 2017
              B. P. Prascher, D. E. Woon, K. A. Peterson, T. H. Dunning, Jr., A. K. Wilson, Theor. Chem. Acc. 128, 69 (2011)
         Mg : Obtained from the Peterson Research Group Website (tyr0.chem.wsu.edu/~kipeters) Feb. 2017
              B. P. Prascher, D. E. Woon, K. A. Peterson, T. H. Dunning, Jr., A. K. Wilson, Theor. Chem. Acc. 128, 69 (2011)
      Al-Ar : Obtained from the ccRepo (grant-hill.group.shef.ac.uk/ccrepo) Feb. 2017
              D. E. Woon, T. H. Dunning, Jr., J. Chem. Phys. 98, 1358 (1993)
      Sc-Zn : Obtained from the ccRepo (grant-hill.group.shef.ac.uk/ccrepo) Feb. 2017
              N. B. Balabanov, K. A. Peterson, J. Chem. Phys. 123, 064107 (2005)
              N. B. Balabanov, K. A. Peterson, J. Chem. Phys. 125, 074110 (2006)
      Ga-Kr : Obtained from the ccRepo (grant-hill.group.shef.ac.uk/ccrepo) Feb. 2017
              A. K. Wilson, D. E. Woon, K. A. Peterson, T. H. Dunning, Jr., J. Chem. Phys. 110, 7667 (1999)
     Ag, Au : Obtained from the Peterson Research Group Website (tyr0.chem.wsu.edu/~kipeters) Feb. 2017
              K. A. Peterson, C. Puzzarini, Theor. Chem. Acc. 114, 283 (2005)

----- AuxJK basis set information -----
Your calculation utilizes the auxiliary basis: def2/JK
   H-Ba, Hf-Rn: F. Weigend, J. Comput. Chem. 29, 167 (2008).

================================================================================
                                        WARNINGS
                       Please study these warnings very carefully!
================================================================================


WARNING: your system is open-shell and RHF/RKS was chosen
  ===> : WILL SWITCH to UHF/UKS


INFO   : the flag for use of LIBINT has been found!

================================================================================
                                       INPUT FILE
================================================================================
NAME = 22_CrBr.in
|  1> #
|  2> # 22_CrBr wb97x-v/aug-cc-pvtz
|  3> #
|  4> ! wb97x-v aug-cc-pvtz def2/jk grid4 nofinalgrid
|  5> 
|  6> *xyz 0 6
|  7>   Cr  0.00000000000000      0.00000000000000     -0.17198862284832
|  8>   Br  0.00000000000000      0.00000000000000      2.17198862284831
|  9> *
| 10> 
| 11> %pal
| 12> nprocs 24
| 13> end
| 14> 
| 15> 
| 16>                          ****END OF INPUT****
================================================================================

                       ****************************
                       * Single Point Calculation *
                       ****************************

---------------------------------
CARTESIAN COORDINATES (ANGSTROEM)
---------------------------------
  Cr     0.000000    0.000000   -0.171989
  Br     0.000000    0.000000    2.171989

----------------------------
CARTESIAN COORDINATES (A.U.)
----------------------------
  NO LB      ZA    FRAG     MASS         X           Y           Z
   0 Cr   24.0000    0    52.000    0.000000    0.000000   -0.325011
   1 Br   35.0000    0    79.900    0.000000    0.000000    4.104464

--------------------------------
INTERNAL COORDINATES (ANGSTROEM)
--------------------------------
 Cr     0   0   0     0.000000000000     0.00000000     0.00000000
 Br     1   0   0     2.343977245697     0.00000000     0.00000000

---------------------------
INTERNAL COORDINATES (A.U.)
---------------------------
 Cr     0   0   0     0.000000000000     0.00000000     0.00000000
 Br     1   0   0     4.429475058510     0.00000000     0.00000000

---------------------
BASIS SET INFORMATION
---------------------
There are 2 groups of distinct atoms

 Group   1 Type Cr  : 116s77p23d3f2g contracted to 8s7p5d3f2g pattern {19191919191911/151515151511/77711/111/11}
 Group   2 Type Br  : 75s36p10d2f contracted to 7s6p4d2f pattern {18181818111/111111111/7111/11}

Atom   0Cr   basis set group =>   1
Atom   1Br   basis set group =>   2
----------------------------------
AUXILIARY/JK BASIS SET INFORMATION
----------------------------------
There are 2 groups of distinct atoms

 Group   1 Type Cr  : 19s14p12d10f7g3h1i contracted to 16s13p11d9f5g3h1i pattern {4111111111111111/2111111111111/21111111111/211111111/31111/111/1}
 Group   2 Type Br  : 20s14p13d10f7g3h contracted to 17s13p12d9f6g3h pattern {41111111111111111/2111111111111/211111111111/211111111/211111/111}

Atom   0Cr   basis set group =>   1
Atom   1Br   basis set group =>   2


           ************************************************************
           *        Program running with 24 parallel MPI-processes    *
           *              working on a common directory               *
           ************************************************************
------------------------------------------------------------------------------
                           ORCA GTO INTEGRAL CALCULATION
------------------------------------------------------------------------------

                         BASIS SET STATISTICS AND STARTUP INFO

 # of primitive gaussian shells          ...  344
 # of primitive gaussian functions       ...  748
 # of contracted shells                  ...   44
 # of contracted basis functions         ...  152
 Highest angular momentum                ...    4
 Maximum contraction depth               ...   19
 Integral package used                   ... LIBINT
 Integral threshhold            Thresh   ...  1.000e-10
 Primitive cut-off              TCut     ...  1.000e-11


------------------------------ INTEGRAL EVALUATION ----------------------------


 * One electron integrals 
 Pre-screening matrix                    ... done
 Shell pair data                         ... done (   0.002 sec)



           ************************************************************
           *        Program running with 24 parallel MPI-processes    *
           *              working on a common directory               *
           ************************************************************
-------------------------------------------------------------------------------
                                 ORCA SCF
-------------------------------------------------------------------------------

------------
SCF SETTINGS
------------
Hamiltonian:
 Density Functional     Method          .... DFT(GTOs)
 Exchange Functional    Exchange        .... WB97X-V
 Correlation Functional Correlation     .... WB97X-V
 Gradients option       PostSCFGGA      .... off
 Hybrid DFT is turned on
   Fraction HF Exchange ScalHFX         ....  0.167000
   Scaling of DF-GGA-X  ScalDFX         ....  0.000000
   Scaling of DF-GGA-C  ScalDFC         ....  1.000000
   Scaling of DF-LDA-C  ScalLDAC        ....  1.000000
   Perturbative correction              ....  0.000000
   Density functional embedding theory  .... OFF
 Long-range corrected/Screened/Range-Separated Hybrid DFT is turned on
   Amount of maximum screened exact exchange              ....  0.833000
   Range separation parameter mu (erf(mu*r12)/r12)        ....  0.300000
   NL short-range parameter             ....  6.000000
   NL long-range parameter              ....  0.010000


General Settings:
 Integral files         IntName         .... 22_CrBr
 Hartree-Fock type      HFTyp           .... UHF
 Total Charge           Charge          ....    0
 Multiplicity           Mult            ....    6
 Number of Electrons    NEL             ....   59
 Basis Dimension        Dim             ....  152
 Nuclear Repulsion      ENuc            ....    189.6387244322 Eh

Convergence Acceleration:
 DIIS                   CNVDIIS         .... on
   Start iteration      DIISMaxIt       ....    12
   Startup error        DIISStart       ....  0.200000
   # of expansion vecs  DIISMaxEq       ....     5
   Bias factor          DIISBfac        ....   1.050
   Max. coefficient     DIISMaxC        ....  10.000
 Newton-Raphson         CNVNR           .... off
 SOSCF                  CNVSOSCF        .... off
 Level Shifting         CNVShift        .... on
   Level shift para.    LevelShift      ....    0.2500
   Turn off err/grad.   ShiftErr        ....    0.0010
 Zerner damping         CNVZerner       .... off
 Static damping         CNVDamp         .... on
   Fraction old density DampFac         ....    0.7000
   Max. Damping (<1)    DampMax         ....    0.9800
   Min. Damping (>=0)   DampMin         ....    0.0000
   Turn off err/grad.   DampErr         ....    0.1000
 Fernandez-Rico         CNVRico         .... off

SCF Procedure:
 Maximum # iterations   MaxIter         ....   125
 SCF integral mode      SCFMode         .... Direct
   Integral package                     .... LIBINT
 Reset frequency        DirectResetFreq ....    20
 Integral Threshold     Thresh          ....  1.000e-10 Eh
 Primitive CutOff       TCut            ....  1.000e-11 Eh

Convergence Tolerance:
 Convergence Check Mode ConvCheckMode   .... Total+1el-Energy
 Convergence forced     ConvForced      .... 0
 Energy Change          TolE            ....  1.000e-06 Eh
 1-El. energy change                    ....  1.000e-03 Eh
 DIIS Error             TolErr          ....  1.000e-06


Diagonalization of the overlap matrix:
Smallest eigenvalue                        ... 9.409e-05
Time for diagonalization                   ...    0.005 sec
Threshold for overlap eigenvalues          ... 1.000e-08
Number of eigenvalues below threshold      ... 0
Time for construction of square roots      ...    0.003 sec
Total time needed                          ...    0.008 sec

-------------------
DFT GRID GENERATION
-------------------

General Integration Accuracy     IntAcc      ...  4.670
Radial Grid Type                 RadialGrid  ... Gauss-Chebyshev
Angular Grid (max. acc.)         AngularGrid ... Lebedev-302
Angular grid pruning method      GridPruning ... 3 (G Style)
Weight generation scheme         WeightScheme... Becke
Basis function cutoff            BFCut       ...    1.0000e-10
Integration weight cutoff        WCut        ...    1.0000e-14
Grids for H and He will be reduced by one unit

# of grid points (after initial pruning)     ...  19280 (   0.0 sec)
# of grid points (after weights+screening)   ...  19253 (   0.0 sec)
nearest neighbour list constructed           ...    0.0 sec
Grid point re-assignment to atoms done       ...    0.0 sec
Grid point division into batches done        ...    0.1 sec
Reduced shell lists constructed in    0.1 sec

Total number of grid points                  ...    19253
Total number of batches                      ...      302
Average number of points per batch           ...       63
Average number of grid points per atom       ...     9626
Average number of shells per batch           ...    16.43 (37.34%)
Average number of basis functions per batch  ...    43.57 (28.67%)
Average number of large shells per batch     ...     9.36 (56.96%)
Average number of large basis fcns per batch ...    25.64 (58.85%)
Maximum spatial batch extension              ...  24.49, 24.19, 17.83 au
Average spatial batch extension              ...   0.84,  0.83,  0.67 au

Time for grid setup =    0.200 sec

------------------------------
INITIAL GUESS: MODEL POTENTIAL
------------------------------
Loading Hartree-Fock densities                     ... done
Calculating cut-offs                               ... done
Setting up the integral package                    ... done
Initializing the effective Hamiltonian             ... done
Starting the Coulomb interaction                   ... done (   0.0 sec)
Reading the grid                                   ... done
Mapping shells                                     ... done
Starting the XC term evaluation                    ... done (   0.0 sec)
  promolecular density results
     # of electrons  =     58.999978508
     EX              =   -105.234015933
     EC              =     -3.639508172
     EX+EC           =   -108.873524105
Transforming the Hamiltonian                       ... done (   0.0 sec)
Diagonalizing the Hamiltonian                      ... done (   0.0 sec)
Back transforming the eigenvectors                 ... done (   0.0 sec)
Now organizing SCF variables                       ... done
                      ------------------
                      INITIAL GUESS DONE (   0.3 sec)
                      ------------------
--------------
SCF ITERATIONS
--------------
ITER       Energy         Delta-E        Max-DP      RMS-DP      [F,P]     Damp
               ***  Starting incremental Fock matrix formation  ***
  0  -3613.2664369447   0.000000000000 2.50888942  0.04130780  1.0389226 0.7000
  1  -3615.6550917399  -2.388654795201 1.79815341  0.02049386  0.3459469 0.7000
  2  -3616.5434170870  -0.888325347134 1.26279465  0.01466300  0.3019731 0.7000
  3  -3617.1551210774  -0.611703990335 0.88374705  0.01049119  0.2009746 0.7000
                               ***Turning on DIIS***
  4  -3617.5737605567  -0.418639479356 0.61822574  0.00742779  0.1266677 0.7000
  5  -3617.8684315699  -0.294671013204 1.44293773  0.01747748  0.0802554 0.0000
  6  -3618.5872844307  -0.718852860759 0.11574369  0.00148041  0.0327872 0.0000
  7  -3618.5954410724  -0.008156641719 0.03567618  0.00049224  0.0113112 0.0000
  8  -3618.5969163569  -0.001475284519 0.02612341  0.00036822  0.0082027 0.0000
  9  -3618.5978845110  -0.000968154042 0.01349400  0.00015538  0.0061943 0.0000
 10  -3618.5982843564  -0.000399845460 0.01190510  0.00010438  0.0042940 0.0000
 11  -3618.5984757570  -0.000191400563 0.00968600  0.00007799  0.0031372 0.0000
 12  -3618.5985830060  -0.000107249060 0.00991120  0.00007093  0.0025502 0.0000
 13  -3618.5986653571  -0.000082351035 0.00886989  0.00006116  0.0019561 0.0000
 14  -3618.5987239719  -0.000058614808 0.01009079  0.00007645  0.0014792 0.0000
 15  -3618.5987740569  -0.000050085009 0.00460949  0.00003716  0.0011460 0.0000
 16  -3618.5987928771  -0.000018820150 0.01426424  0.00010422  0.0007503 0.0000
 17  -3618.5988224459  -0.000029568830 0.00244055  0.00001920  0.0001579 0.0000
 18  -3618.5988238839  -0.000001438021 0.00035628  0.00000337  0.0001005 0.0000
                 **** Energy Check signals convergence ****

               *****************************************************
               *                     SUCCESS                       *
               *           SCF CONVERGED AFTER  19 CYCLES          *
               *****************************************************


Setting up the DFT-NL grid :

General Integration Accuracy     IntAcc      ...  4.340
Radial Grid Type                 RadialGrid  ... Gauss-Chebyshev
Angular Grid (max. acc.)         AngularGrid ... Lebedev-110
Angular grid pruning method      GridPruning ... 3 (G Style)
Weight generation scheme         WeightScheme... Becke
Basis function cutoff            BFCut       ...    1.0000e-10
Integration weight cutoff        WCut        ...    1.0000e-14
Grids for H and He will be reduced by one unit

# of grid points (after initial pruning)     ...   5862 (   0.0 sec)
# of grid points (after weights+screening)   ...   5838 (   0.0 sec)
nearest neighbour list constructed           ...    0.0 sec
Grid point re-assignment to atoms done       ...    0.0 sec
Grid point division into batches done        ...    0.0 sec
Reduced shell lists constructed in    0.0 sec

Total number of grid points                  ...     5838
Total number of batches                      ...       92
Average number of points per batch           ...       63
Average number of grid points per atom       ...     2919
Average number of shells per batch           ...    23.60 (53.64%)
Average number of basis functions per batch  ...    71.60 (47.11%)
Average number of large shells per batch     ...    16.00 (67.80%)
Average number of large basis fcns per batch ...    46.40 (64.80%)
Maximum spatial batch extension              ...  18.98, 28.73, 16.39 au
Average spatial batch extension              ...   0.76,  1.04,  0.71 au

Final grid set up in    0.0 sec

-------------------------------------------------------------------------------
                         DFT-NL dispersion correction                          
-------------------------------------------------------------------------------

SC Energy -3618.598824072 
NL    Energy 0.246940997 
SC+NL Energy -3618.351883076 
NL done in    0.1 sec
-------------------------------------------------------------------------------

----------------
TOTAL SCF ENERGY
----------------

Total Energy       :        -3618.35188308 Eh          -98460.36037 eV

Components:
Nuclear Repulsion  :          189.63872443 Eh            5160.33204 eV
Electronic Energy  :        -3807.99060751 Eh         -103620.69240 eV
One Electron Energy:        -5401.36584167 Eh         -146978.63680 eV
Two Electron Energy:         1593.37523416 Eh           43357.94440 eV

Virial components:
Potential Energy   :        -7231.77807778 Eh         -196786.68594 eV
Kinetic Energy     :         3613.42619471 Eh           98326.32557 eV
Virial Ratio       :            2.00136316


DFT components:
N(Alpha)           :       31.999995808146 electrons
N(Beta)            :       26.999996462673 electrons
N(Total)           :       58.999992270819 electrons
E(X)               :     -105.467032250411 Eh       
E(C)               :       -3.602401941327 Eh       
NL Energy, E(C,NL) :        0.246940996621 Eh       
E(XC)              :     -108.822493195116 Eh       
DFET-embed. en.    :        0.000000000000 Eh       

---------------
SCF CONVERGENCE
---------------

  Last Energy change         ...   -1.8856e-07  Tolerance :   1.0000e-06
  Last MAX-Density change    ...    2.3961e-04  Tolerance :   1.0000e-05
  Last RMS-Density change    ...    2.4830e-06  Tolerance :   1.0000e-06
  Last DIIS Error            ...    5.1522e-05  Tolerance :   1.0000e-06

             **** THE GBW FILE WAS UPDATED (22_CrBr.gbw) ****
             **** DENSITY FILE WAS UPDATED (22_CrBr.scfp) ****
             **** ENERGY FILE WAS UPDATED (22_CrBr.en.tmp) ****
----------------------
UHF SPIN CONTAMINATION
----------------------

Warning: in a DFT calculation there is little theoretical justification to 
         calculate <S**2> as in Hartree-Fock theory. We will do it anyways
         but you should keep in mind that the values have only limited relevance

Expectation value of <S**2>     :     8.760769
Ideal value S*(S+1) for S=2.5   :     8.750000
Deviation                       :     0.010769

             **** THE GBW FILE WAS UPDATED (22_CrBr.gbw) ****
             **** DENSITY FILE WAS UPDATED (22_CrBr.scfp) ****
----------------
ORBITAL ENERGIES
----------------
                 SPIN UP ORBITALS
  NO   OCC          E(Eh)            E(eV) 
   0   1.0000    -482.602135    -13132.2717 
   1   1.0000    -215.587393     -5866.4312 
   2   1.0000     -62.476341     -1700.0677 
   3   1.0000     -56.280262     -1531.4638 
   4   1.0000     -56.279610     -1531.4460 
   5   1.0000     -56.279609     -1531.4460 
   6   1.0000     -24.713489      -672.4882 
   7   1.0000     -20.995177      -571.3078 
   8   1.0000     -20.995175      -571.3078 
   9   1.0000     -20.994404      -571.2868 
  10   1.0000      -8.740284      -237.8352 
  11   1.0000      -6.563709      -178.6076 
  12   1.0000      -6.561093      -178.5364 
  13   1.0000      -6.561092      -178.5364 
  14   1.0000      -3.014397       -82.0259 
  15   1.0000      -2.687436       -73.1288 
  16   1.0000      -2.686526       -73.1041 
  17   1.0000      -2.686526       -73.1041 
  18   1.0000      -2.684381       -73.0457 
  19   1.0000      -2.684347       -73.0448 
  20   1.0000      -1.972825       -53.6833 
  21   1.0000      -1.969366       -53.5892 
  22   1.0000      -1.969366       -53.5892 
  23   1.0000      -0.832789       -22.6613 
  24   1.0000      -0.403692       -10.9850 
  25   1.0000      -0.384405       -10.4602 
  26   1.0000      -0.384396       -10.4600 
  27   1.0000      -0.338561        -9.2127 
  28   1.0000      -0.338560        -9.2127 
  29   1.0000      -0.316676        -8.6172 
  30   1.0000      -0.316672        -8.6171 
  31   1.0000      -0.306619        -8.3435 
  32   0.0000      -0.032128        -0.8742 
  33   0.0000       0.016078         0.4375 
  34   0.0000       0.016079         0.4375 
  35   0.0000       0.023548         0.6408 
  36   0.0000       0.034494         0.9386 
  37   0.0000       0.056552         1.5389 
  38   0.0000       0.056552         1.5389 
  39   0.0000       0.072739         1.9793 
  40   0.0000       0.074309         2.0221 
  41   0.0000       0.074309         2.0221 
  42   0.0000       0.080758         2.1975 
  43   0.0000       0.080758         2.1975 
  44   0.0000       0.099181         2.6989 
  45   0.0000       0.146826         3.9954 
  46   0.0000       0.150747         4.1020 
  47   0.0000       0.150747         4.1020 
  48   0.0000       0.170769         4.6469 
  49   0.0000       0.201761         5.4902 
  50   0.0000       0.201762         5.4902 
  51   0.0000       0.239696         6.5225 
  52   0.0000       0.248880         6.7724 
  53   0.0000       0.256930         6.9914 
  54   0.0000       0.256931         6.9914 
  55   0.0000       0.273116         7.4319 
  56   0.0000       0.273116         7.4319 
  57   0.0000       0.304936         8.2977 
  58   0.0000       0.304936         8.2977 
  59   0.0000       0.355123         9.6634 
  60   0.0000       0.382196        10.4001 
  61   0.0000       0.382197        10.4001 
  62   0.0000       0.420072        11.4308 
  63   0.0000       0.563302        15.3282 
  64   0.0000       0.563302        15.3282 
  65   0.0000       0.607927        16.5425 
  66   0.0000       0.607927        16.5425 
  67   0.0000       0.646517        17.5926 
  68   0.0000       0.646517        17.5926 
  69   0.0000       0.661908        18.0114 
  70   0.0000       0.669213        18.2102 
  71   0.0000       0.669213        18.2102 
  72   0.0000       0.679972        18.5030 
  73   0.0000       0.737864        20.0783 
  74   0.0000       0.744120        20.2485 
  75   0.0000       0.744120        20.2485 
  76   0.0000       0.751186        20.4408 
  77   0.0000       0.751186        20.4408 
  78   0.0000       0.795575        21.6487 
  79   0.0000       0.795579        21.6488 
  80   0.0000       0.832133        22.6435 
  81   0.0000       0.897691        24.4274 
  82   0.0000       0.897691        24.4274 
  83   0.0000       0.912461        24.8293 
  84   0.0000       0.929276        25.2869 
  85   0.0000       0.929276        25.2869 
  86   0.0000       0.955277        25.9944 
  87   0.0000       0.955278        25.9944 
  88   0.0000       1.063356        28.9354 
  89   0.0000       1.063356        28.9354 
  90   0.0000       1.157249        31.4904 
  91   0.0000       1.345960        36.6254 
  92   0.0000       1.345960        36.6254 
  93   0.0000       1.546313        42.0773 
  94   0.0000       1.824132        49.6372 
  95   0.0000       1.866968        50.8028 
  96   0.0000       1.866968        50.8028 
  97   0.0000       1.886463        51.3333 
  98   0.0000       1.886463        51.3333 
  99   0.0000       1.900949        51.7275 
 100   0.0000       1.900950        51.7275 
 101   0.0000       1.941159        52.8216 
 102   0.0000       2.037911        55.4544 
 103   0.0000       2.037911        55.4544 
 104   0.0000       2.128088        57.9082 
 105   0.0000       2.128970        57.9322 
 106   0.0000       2.128979        57.9325 
 107   0.0000       2.166536        58.9544 
 108   0.0000       2.166536        58.9544 
 109   0.0000       2.210581        60.1530 
 110   0.0000       2.220616        60.4260 
 111   0.0000       2.220617        60.4261 
 112   0.0000       2.231785        60.7300 
 113   0.0000       2.231788        60.7300 
 114   0.0000       2.262989        61.5791 
 115   0.0000       2.263008        61.5796 
 116   0.0000       2.271709        61.8163 
 117   0.0000       2.271710        61.8164 
 118   0.0000       2.281691        62.0880 
 119   0.0000       2.281691        62.0880 
 120   0.0000       2.374932        64.6252 
 121   0.0000       2.374933        64.6252 
 122   0.0000       2.416633        65.7599 
 123   0.0000       2.416633        65.7599 
 124   0.0000       2.491360        67.7934 
 125   0.0000       2.664121        72.4944 
 126   0.0000       2.675193        72.7957 
 127   0.0000       2.675194        72.7957 
 128   0.0000       3.022639        82.2502 
 129   0.0000       3.409258        92.7706 
 130   0.0000       3.409265        92.7708 
 131   0.0000       3.599094        97.9363 
 132   0.0000       3.599095        97.9363 
 133   0.0000       4.212118       114.6176 
 134   0.0000       4.445973       120.9811 
 135   0.0000       6.243534       169.8952 
 136   0.0000       6.243534       169.8952 
 137   0.0000       6.250563       170.0865 
 138   0.0000       6.250583       170.0870 
 139   0.0000       6.293800       171.2630 
 140   0.0000       6.293800       171.2630 
 141   0.0000       6.433177       175.0557 
 142   0.0000       6.711883       182.6396 
 143   0.0000       6.711904       182.6402 
 144   0.0000       6.711904       182.6402 
 145   0.0000       6.712194       182.6481 
 146   0.0000       6.750195       183.6821 
 147   0.0000       6.750233       183.6832 
 148   0.0000       6.861726       186.7171 
 149   0.0000       6.861726       186.7171 
 150   0.0000       6.963393       189.4836 
 151   0.0000       7.841872       213.3882 

                 SPIN DOWN ORBITALS
  NO   OCC          E(Eh)            E(eV) 
   0   1.0000    -482.602251    -13132.2749 
   1   1.0000    -215.586679     -5866.4118 
   2   1.0000     -62.476377     -1700.0687 
   3   1.0000     -56.280603     -1531.4731 
   4   1.0000     -56.279589     -1531.4455 
   5   1.0000     -56.279589     -1531.4455 
   6   1.0000     -24.652340      -670.8243 
   7   1.0000     -20.947416      -570.0082 
   8   1.0000     -20.943837      -569.9108 
   9   1.0000     -20.943833      -569.9107 
  10   1.0000      -8.740427      -237.8391 
  11   1.0000      -6.564326      -178.6244 
  12   1.0000      -6.561047      -178.5352 
  13   1.0000      -6.561046      -178.5351 
  14   1.0000      -2.842322       -77.3435 
  15   1.0000      -2.687823       -73.1394 
  16   1.0000      -2.686821       -73.1121 
  17   1.0000      -2.686820       -73.1121 
  18   1.0000      -2.684283       -73.0430 
  19   1.0000      -2.684249       -73.0421 
  20   1.0000      -1.788569       -48.6694 
  21   1.0000      -1.777410       -48.3658 
  22   1.0000      -1.777404       -48.3656 
  23   1.0000      -0.833033       -22.6680 
  24   1.0000      -0.392883       -10.6909 
  25   1.0000      -0.360077        -9.7982 
  26   1.0000      -0.360075        -9.7981 
  27   0.0000      -0.012155        -0.3308 
  28   0.0000       0.025728         0.7001 
  29   0.0000       0.025731         0.7002 
  30   0.0000       0.026718         0.7270 
  31   0.0000       0.042145         1.1468 
  32   0.0000       0.068574         1.8660 
  33   0.0000       0.073575         2.0021 
  34   0.0000       0.073579         2.0022 
  35   0.0000       0.076330         2.0770 
  36   0.0000       0.076330         2.0771 
  37   0.0000       0.087817         2.3896 
  38   0.0000       0.092244         2.5101 
  39   0.0000       0.092247         2.5102 
  40   0.0000       0.121456         3.3050 
  41   0.0000       0.121457         3.3050 
  42   0.0000       0.126193         3.4339 
  43   0.0000       0.129519         3.5244 
  44   0.0000       0.129521         3.5245 
  45   0.0000       0.156845         4.2680 
  46   0.0000       0.156845         4.2680 
  47   0.0000       0.166220         4.5231 
  48   0.0000       0.196580         5.3492 
  49   0.0000       0.229647         6.2490 
  50   0.0000       0.229652         6.2491 
  51   0.0000       0.242860         6.6086 
  52   0.0000       0.282601         7.6900 
  53   0.0000       0.284725         7.7478 
  54   0.0000       0.284726         7.7478 
  55   0.0000       0.314852         8.5676 
  56   0.0000       0.314856         8.5677 
  57   0.0000       0.325930         8.8690 
  58   0.0000       0.325930         8.8690 
  59   0.0000       0.375137        10.2080 
  60   0.0000       0.389572        10.6008 
  61   0.0000       0.389573        10.6008 
  62   0.0000       0.432627        11.7724 
  63   0.0000       0.565527        15.3888 
  64   0.0000       0.565527        15.3888 
  65   0.0000       0.630910        17.1679 
  66   0.0000       0.630910        17.1679 
  67   0.0000       0.670926        18.2568 
  68   0.0000       0.670927        18.2569 
  69   0.0000       0.678855        18.4726 
  70   0.0000       0.691135        18.8067 
  71   0.0000       0.694511        18.8986 
  72   0.0000       0.694513        18.8987 
  73   0.0000       0.753981        20.5169 
  74   0.0000       0.753981        20.5169 
  75   0.0000       0.766842        20.8668 
  76   0.0000       0.773048        21.0357 
  77   0.0000       0.773051        21.0358 
  78   0.0000       0.838703        22.8223 
  79   0.0000       0.838708        22.8224 
  80   0.0000       0.861289        23.4369 
  81   0.0000       0.922460        25.1014 
  82   0.0000       0.931072        25.3358 
  83   0.0000       0.931072        25.3358 
  84   0.0000       0.965732        26.2789 
  85   0.0000       0.965733        26.2789 
  86   0.0000       0.982853        26.7448 
  87   0.0000       0.982853        26.7448 
  88   0.0000       1.075613        29.2689 
  89   0.0000       1.075614        29.2690 
  90   0.0000       1.190059        32.3832 
  91   0.0000       1.371922        37.3319 
  92   0.0000       1.371923        37.3319 
  93   0.0000       1.584279        43.1104 
  94   0.0000       1.878862        51.1264 
  95   0.0000       1.946433        52.9651 
  96   0.0000       1.946434        52.9652 
  97   0.0000       1.956452        53.2378 
  98   0.0000       1.956452        53.2378 
  99   0.0000       1.968527        53.5663 
 100   0.0000       1.968554        53.5671 
 101   0.0000       1.991576        54.1935 
 102   0.0000       2.053931        55.8903 
 103   0.0000       2.053932        55.8903 
 104   0.0000       2.132883        58.0387 
 105   0.0000       2.132891        58.0389 
 106   0.0000       2.134730        58.0890 
 107   0.0000       2.170683        59.0673 
 108   0.0000       2.170683        59.0673 
 109   0.0000       2.229964        60.6804 
 110   0.0000       2.232526        60.7501 
 111   0.0000       2.232528        60.7502 
 112   0.0000       2.240632        60.9707 
 113   0.0000       2.240633        60.9707 
 114   0.0000       2.278161        61.9919 
 115   0.0000       2.278162        61.9919 
 116   0.0000       2.315077        62.9965 
 117   0.0000       2.315095        62.9969 
 118   0.0000       2.326873        63.3174 
 119   0.0000       2.326873        63.3174 
 120   0.0000       2.414256        65.6953 
 121   0.0000       2.414273        65.6957 
 122   0.0000       2.500361        68.0383 
 123   0.0000       2.500361        68.0383 
 124   0.0000       2.550440        69.4010 
 125   0.0000       2.691134        73.2295 
 126   0.0000       2.713041        73.8256 
 127   0.0000       2.713042        73.8256 
 128   0.0000       3.079338        83.7931 
 129   0.0000       3.534373        96.1752 
 130   0.0000       3.534374        96.1752 
 131   0.0000       3.718768       101.1928 
 132   0.0000       3.718770       101.1929 
 133   0.0000       4.248975       115.6205 
 134   0.0000       4.505179       122.5922 
 135   0.0000       6.390769       173.9017 
 136   0.0000       6.390769       173.9017 
 137   0.0000       6.403723       174.2542 
 138   0.0000       6.403730       174.2543 
 139   0.0000       6.437785       175.1810 
 140   0.0000       6.437790       175.1812 
 141   0.0000       6.566254       178.6769 
 142   0.0000       6.829393       185.8372 
 143   0.0000       6.829683       185.8451 
 144   0.0000       6.830893       185.8781 
 145   0.0000       6.830893       185.8781 
 146   0.0000       6.863299       186.7599 
 147   0.0000       6.863332       186.7608 
 148   0.0000       6.967621       189.5986 
 149   0.0000       6.967624       189.5987 
 150   0.0000       7.066023       192.2763 
 151   0.0000       7.953829       216.4347 

                    ********************************
                    * MULLIKEN POPULATION ANALYSIS *
                    ********************************

--------------------------------------------
MULLIKEN ATOMIC CHARGES AND SPIN POPULATIONS
--------------------------------------------
   0 Cr:    0.358181    5.020083
   1 Br:   -0.358181   -0.020083
Sum of atomic charges         :   -0.0000000
Sum of atomic spin populations:    5.0000000

-----------------------------------------------------
MULLIKEN REDUCED ORBITAL CHARGES AND SPIN POPULATIONS
-----------------------------------------------------
CHARGE
  0 Crs       :     6.523909  s :     6.523909
      pz      :     4.121154  p :    12.215977
      px      :     4.047384
      py      :     4.047439
      dz2     :     0.842815  d :     4.878712
      dxz     :     1.018945
      dyz     :     1.018908
      dx2y2   :     0.999022
      dxy     :     0.999022
      f0      :     0.007240  f :     0.021824
      f+1     :     0.007152
      f-1     :     0.007152
      f+2     :     0.000140
      f-2     :     0.000140
      f+3     :     0.000000
      f-3     :     0.000000
      g0      :     0.000616  g :     0.001397
      g+1     :     0.000389
      g-1     :     0.000389
      g+2     :     0.000002
      g-2     :     0.000002
      g+3     :     0.000000
      g-3     :     0.000000
      g+4     :     0.000000
      g-4     :     0.000000
  1 Brs       :     7.929979  s :     7.929979
      pz      :     5.571531  p :    17.409787
      px      :     5.919137
      py      :     5.919119
      dz2     :     2.002920  d :    10.016364
      dxz     :     2.006227
      dyz     :     2.006227
      dx2y2   :     2.000495
      dxy     :     2.000495
      f0      :    -0.000163  f :     0.002050
      f+1     :     0.000766
      f-1     :     0.000766
      f+2     :     0.000341
      f-2     :     0.000341
      f+3     :     0.000000
      f-3     :     0.000000

SPIN
  0 Crs       :     0.313244  s :     0.313244
      pz      :     0.004369  p :     0.041328
      px      :     0.018451
      py      :     0.018509
      dz2     :     0.737749  d :     4.665158
      dxz     :     0.964700
      dyz     :     0.964666
      dx2y2   :     0.999022
      dxy     :     0.999022
      f0      :     0.000603  f :     0.000394
      f+1     :    -0.000241
      f-1     :    -0.000241
      f+2     :     0.000136
      f-2     :     0.000136
      f+3     :     0.000000
      f-3     :     0.000000
      g0      :    -0.000032  g :    -0.000041
      g+1     :    -0.000006
      g-1     :    -0.000006
      g+2     :     0.000001
      g-2     :     0.000001
      g+3     :     0.000000
      g-3     :    -0.000000
      g+4     :    -0.000000
      g-4     :     0.000000
  1 Brs       :     0.004228  s :     0.004228
      pz      :    -0.062963  p :    -0.032699
      px      :     0.015144
      py      :     0.015120
      dz2     :     0.002694  d :     0.007040
      dxz     :     0.001673
      dyz     :     0.001673
      dx2y2   :     0.000500
      dxy     :     0.000500
      f0      :     0.000108  f :     0.001347
      f+1     :     0.000280
      f-1     :     0.000280
      f+2     :     0.000340
      f-2     :     0.000340
      f+3     :    -0.000000
      f-3     :    -0.000000


                     *******************************
                     * LOEWDIN POPULATION ANALYSIS *
                     *******************************

-------------------------------------------
LOEWDIN ATOMIC CHARGES AND SPIN POPULATIONS
-------------------------------------------
   0 Cr:   -0.053631    4.896443
   1 Br:    0.053631    0.103557

----------------------------------------------------
LOEWDIN REDUCED ORBITAL CHARGES AND SPIN POPULATIONS
----------------------------------------------------
CHARGE
  0 Crs       :     6.368662  s :     6.368662
      pz      :     4.207973  p :    12.370503
      px      :     4.081232
      py      :     4.081298
      dz2     :     0.968435  d :     5.096198
      dxz     :     1.069205
      dyz     :     1.069173
      dx2y2   :     0.994692
      dxy     :     0.994692
      f0      :     0.072678  f :     0.206202
      f+1     :     0.066397
      f-1     :     0.066395
      f+2     :     0.000365
      f-2     :     0.000365
      f+3     :     0.000000
      f-3     :     0.000000
      g0      :     0.005178  g :     0.012067
      g+1     :     0.003441
      g-1     :     0.003441
      g+2     :     0.000003
      g-2     :     0.000003
      g+3     :     0.000000
      g-3     :     0.000000
      g+4     :     0.000000
      g-4     :     0.000000
  1 Brs       :     7.576417  s :     7.576417
      pz      :     5.655621  p :    17.111308
      px      :     5.727851
      py      :     5.727836
      dz2     :     2.101016  d :    10.167153
      dxz     :     2.030718
      dyz     :     2.030705
      dx2y2   :     2.002358
      dxy     :     2.002358
      f0      :     0.044019  f :     0.091491
      f+1     :     0.021157
      f-1     :     0.021152
      f+2     :     0.002582
      f-2     :     0.002582
      f+3     :     0.000000
      f-3     :     0.000000

SPIN
  0 Crs       :     0.289085  s :     0.289085
      pz      :    -0.006472  p :     0.053773
      px      :     0.030088
      py      :     0.030157
      dz2     :     0.710447  d :     4.547294
      dxz     :     0.923749
      dyz     :     0.923720
      dx2y2   :     0.994689
      dxy     :     0.994689
      f0      :    -0.000364  f :     0.006271
      f+1     :     0.002971
      f-1     :     0.002969
      f+2     :     0.000348
      f-2     :     0.000348
      f+3     :     0.000000
      f-3     :     0.000000
      g0      :    -0.000299  g :     0.000020
      g+1     :     0.000157
      g-1     :     0.000156
      g+2     :     0.000003
      g-2     :     0.000003
      g+3     :     0.000000
      g-3     :    -0.000000
      g+4     :    -0.000000
      g-4     :     0.000000
  1 Brs       :     0.009855  s :     0.009855
      pz      :    -0.014647  p :     0.007905
      px      :     0.011286
      py      :     0.011266
      dz2     :     0.009893  d :     0.050414
      dxz     :     0.017888
      dyz     :     0.017875
      dx2y2   :     0.002379
      dxy     :     0.002379
      f0      :     0.002504  f :     0.035384
      f+1     :     0.013861
      f-1     :     0.013856
      f+2     :     0.002581
      f-2     :     0.002581
      f+3     :    -0.000000
      f-3     :    -0.000000


                      *****************************
                      * MAYER POPULATION ANALYSIS *
                      *****************************

  NA   - Mulliken gross atomic population
  ZA   - Total nuclear charge
  QA   - Mulliken gross atomic charge
  VA   - Mayer's total valence
  BVA  - Mayer's bonded valence
  FA   - Mayer's free valence

  ATOM       NA         ZA         QA         VA         BVA        FA
  0 Cr    23.6418    24.0000     0.3582     5.9746     1.1058     4.8688
  1 Br    35.3582    35.0000    -0.3582     1.1124     1.1058     0.0065

  Mayer bond orders larger than 0.100000
B(  0-Cr,  1-Br) :   1.1058 

-------
TIMINGS
-------

Total SCF time: 0 days 0 hours 7 min 15 sec 

Total time                  ....     435.000 sec
Sum of individual times     ....     434.611 sec  ( 99.9%)

Fock matrix formation       ....     434.117 sec  ( 99.8%)
  XC integration            ....       0.577 sec  (  0.1% of F)
    Basis function eval.    ....       0.132 sec  ( 22.8% of XC)
    Density eval.           ....       0.070 sec  ( 12.1% of XC)
    XC-Functional eval.     ....       0.026 sec  (  4.5% of XC)
    XC-Potential eval.      ....       0.160 sec  ( 27.7% of XC)
Diagonalization             ....       0.106 sec  (  0.0%)
Density matrix formation    ....       0.014 sec  (  0.0%)
Population analysis         ....       0.007 sec  (  0.0%)
Initial guess               ....       0.109 sec  (  0.0%)
Orbital Transformation      ....       0.000 sec  (  0.0%)
Orbital Orthonormalization  ....       0.000 sec  (  0.0%)
DIIS solution               ....       0.038 sec  (  0.0%)
Grid generation             ....       0.220 sec  (  0.1%)

-------------------------   --------------------
FINAL SINGLE POINT ENERGY     -3618.351883075839
-------------------------   --------------------


                            ***************************************
                            *     ORCA property calculations      *
                            ***************************************

                                    ---------------------
                                    Active property flags
                                    ---------------------
   (+) Dipole Moment


------------------------------------------------------------------------------
                       ORCA ELECTRIC PROPERTIES CALCULATION
------------------------------------------------------------------------------

Dipole Moment Calculation                       ... on
Quadrupole Moment Calculation                   ... off
Polarizability Calculation                      ... off
GBWName                                         ... 22_CrBr.gbw
Electron density file                           ... 22_CrBr.scfp
The origin for moment calculation is the CENTER OF MASS  = ( 0.000000,  0.000000  2.358196)

-------------
DIPOLE MOMENT
-------------
                                X             Y             Z
Electronic contribution:      0.00000      -0.00000       0.88691
Nuclear contribution   :      0.00000       0.00000      -3.27761
                        -----------------------------------------
Total Dipole Moment    :      0.00000      -0.00000      -2.39070
                        -----------------------------------------
Magnitude (a.u.)       :      2.39070
Magnitude (Debye)      :      6.07667



--------------------
Rotational spectrum 
--------------------
 
Rotational constants in cm-1:     0.000000     0.097406     0.097406 
Rotational constants in MHz :     0.000000  2920.152240  2920.152240 

 Dipole components along the rotational axes: 
x,y,z [a.u.] :    -2.390696    -0.000000     0.000000 
x,y,z [Debye]:    -6.076667    -0.000000     0.000000 

 

Timings for individual modules:

Sum of individual times         ...      440.189 sec (=   7.336 min)
GTO integral calculation        ...        4.663 sec (=   0.078 min)   1.1 %
SCF iterations                  ...      435.527 sec (=   7.259 min)  98.9 %
                             ****ORCA TERMINATED NORMALLY****
TOTAL RUN TIME: 0 days 0 hours 7 minutes 20 seconds 819 msec
