
                                 *****************
                                 * O   R   C   A *
                                 *****************

           --- An Ab Initio, DFT and Semiempirical electronic structure package ---

                  #######################################################
                  #                        -***-                        #
                  #          Department of theory and spectroscopy      #
                  #               Directorship: Frank Neese             #
                  #        Max Planck Institute fuer Kohlenforschung    #
                  #                Kaiser Wilhelm Platz 1               #
                  #                 D-45470 Muelheim/Ruhr               #
                  #                      Germany                        #
                  #                                                     #
                  #                  All rights reserved                #
                  #                        -***-                        #
                  #######################################################


                         Program Version 4.2.0 -  RELEASE  -


 With contributions from (in alphabetic order):
   Daniel Aravena         : Magnetic Suceptibility
   Michael Atanasov       : Ab Initio Ligand Field Theory (pilot matlab implementation)
   Alexander A. Auer      : GIAO ZORA, VPT2
   Ute Becker             : Parallelization
   Giovanni Bistoni       : ED, misc. LED, open-shell LED, HFLED
   Martin Brehm           : Molecular dynamics
   Dmytro Bykov           : SCF Hessian
   Vijay G. Chilkuri      : MRCI spin determinant printing, contributions to CSF-ICE
   Dipayan Datta          : RHF DLPNO-CCSD density
   Achintya Kumar Dutta   : EOM-CC, STEOM-CC
   Dmitry Ganyushin       : Spin-Orbit,Spin-Spin,Magnetic field MRCI
   Miquel Garcia          : C-PCM Hessian, Gaussian charge scheme
   Yang Guo               : DLPNO-NEVPT2, CIM, IAO-localization
   Andreas Hansen         : Spin unrestricted coupled pair/coupled cluster methods
   Benjamin Helmich-Paris : CASSCF linear response (MC-RPA)
   Lee Huntington         : MR-EOM, pCC
   Robert Izsak           : Overlap fitted RIJCOSX, COSX-SCS-MP3, EOM
   Christian Kollmar      : KDIIS, OOCD, Brueckner-CCSD(T), CCSD density
   Simone Kossmann        : Meta GGA functionals, TD-DFT gradient, OOMP2, MP2 Hessian
   Martin Krupicka        : AUTO-CI
   Lucas Lang             : DCDCAS
   Dagmar Lenk            : GEPOL surface, SMD
   Dimitrios Liakos       : Extrapolation schemes; Compound Job, initial MDCI parallelization
   Dimitrios Manganas     : Further ROCIS development; embedding schemes
   Dimitrios Pantazis     : SARC Basis sets
   Taras Petrenko         : DFT Hessian,TD-DFT gradient, ASA, ECA, R-Raman, ABS, FL, XAS/XES, NRVS
   Peter Pinski           : DLPNO-MP2, DLPNO-MP2 Gradient
   Christoph Reimann      : Effective Core Potentials
   Marius Retegan         : Local ZFS, SOC
   Christoph Riplinger    : Optimizer, TS searches, QM/MM, DLPNO-CCSD(T), (RO)-DLPNO pert. Triples
   Tobias Risthaus        : Range-separated hybrids, TD-DFT gradient, RPA, STAB
   Michael Roemelt        : Original ROCIS implementation
   Masaaki Saitow         : Open-shell DLPNO-CCSD energy and density
   Barbara Sandhoefer     : DKH picture change effects
   Avijit Sen             : IP-ROCIS
   Kantharuban Sivalingam : CASSCF convergence, NEVPT2, FIC-MRCI
   Bernardo de Souza      : ESD, SOC TD-DFT
   Georgi Stoychev        : AutoAux, RI-MP2 NMR
   Willem Van den Heuvel  : Paramagnetic NMR
   Boris Wezisla          : Elementary symmetry handling
   Frank Wennmohs         : Technical directorship


 We gratefully acknowledge several colleagues who have allowed us to
 interface, adapt or use parts of their codes:
   Stefan Grimme, W. Hujo, H. Kruse,             : VdW corrections, initial TS optimization,
                  C. Bannwarth                     DFT functionals, gCP, sTDA/sTD-DF
   Ed Valeev, F. Pavosevic, A. Kumar             : LibInt (2-el integral package), F12 methods
   Garnet Chan, S. Sharma, J. Yang, R. Olivares  : DMRG
   Ulf Ekstrom                                   : XCFun DFT Library
   Mihaly Kallay                                 : mrcc  (arbitrary order and MRCC methods)
   Andreas Klamt, Michael Diedenhofen            : otool_cosmo (COSMO solvation model)
   Jiri Pittner, Ondrej Demel                    : Mk-CCSD
   Frank Weinhold                                : gennbo (NPA and NBO analysis)
   Christopher J. Cramer and Donald G. Truhlar   : smd solvation model
   Lars Goerigk                                  : TD-DFT with DH, B97 family of functionals
   V. Asgeirsson, H. Jonsson                     : NEB implementation
   FAccTs GmbH                                   : IRC, NEB, NEB-TS, Multilevel, MM, QM/MM, CI optimization
   S Lehtola, MJT Oliveira, MAL Marques          : LibXC Library


 Your calculation uses the libint2 library for the computation of 2-el integrals
 For citations please refer to: http://libint.valeyev.net

 Your ORCA version has been built with support for libXC version: 4.2.3
 For citations please refer to: https://tddft.org/programs/libxc/

 This ORCA versions uses:
   CBLAS   interface :  Fast vector & matrix operations
   LAPACKE interface :  Fast linear algebra routines
   SCALAPACK package :  Parallel linear algebra routines


Your calculation utilizes the DFT-NL dispersion correction.
Cite in your paper:
Vydrov, O. A.; Van Voorhis, T. J. Chem. Phys. 2010, 133, 244103
Hujo, W.; Grimme, S. J. Chem. Theory Comput. 2011, 7, 3866 
   

----- Orbital basis set information -----
Your calculation utilizes the basis: aug-cc-pVTZ 
    H, B-Ne : Obtained from the ccRepo (grant-hill.group.shef.ac.uk/ccrepo) Feb. 2017
              R. A. Kendall, T. H. Dunning, Jr., R. J. Harrison, J. Chem. Phys. 96, 6796 (1992)
         He : Obtained from the ccRepo (grant-hill.group.shef.ac.uk/ccrepo) Feb. 2017
              D. E. Woon, T. H. Dunning, Jr., J. Chem. Phys. 100, 2975 (1994)
  Li-Be, Na : Obtained from the ccRepo (grant-hill.group.shef.ac.uk/ccrepo) Feb. 2017
              B. P. Prascher, D. E. Woon, K. A. Peterson, T. H. Dunning, Jr., A. K. Wilson, Theor. Chem. Acc. 128, 69 (2011)
         Mg : Obtained from the Peterson Research Group Website (tyr0.chem.wsu.edu/~kipeters) Feb. 2017
              B. P. Prascher, D. E. Woon, K. A. Peterson, T. H. Dunning, Jr., A. K. Wilson, Theor. Chem. Acc. 128, 69 (2011)
      Al-Ar : Obtained from the ccRepo (grant-hill.group.shef.ac.uk/ccrepo) Feb. 2017
              D. E. Woon, T. H. Dunning, Jr., J. Chem. Phys. 98, 1358 (1993)
      Sc-Zn : Obtained from the ccRepo (grant-hill.group.shef.ac.uk/ccrepo) Feb. 2017
              N. B. Balabanov, K. A. Peterson, J. Chem. Phys. 123, 064107 (2005)
              N. B. Balabanov, K. A. Peterson, J. Chem. Phys. 125, 074110 (2006)
      Ga-Kr : Obtained from the ccRepo (grant-hill.group.shef.ac.uk/ccrepo) Feb. 2017
              A. K. Wilson, D. E. Woon, K. A. Peterson, T. H. Dunning, Jr., J. Chem. Phys. 110, 7667 (1999)
     Ag, Au : Obtained from the Peterson Research Group Website (tyr0.chem.wsu.edu/~kipeters) Feb. 2017
              K. A. Peterson, C. Puzzarini, Theor. Chem. Acc. 114, 283 (2005)

----- AuxJK basis set information -----
Your calculation utilizes the auxiliary basis: def2/JK
   H-Ba, Hf-Rn: F. Weigend, J. Comput. Chem. 29, 167 (2008).

================================================================================
                                        WARNINGS
                       Please study these warnings very carefully!
================================================================================


WARNING: your system is open-shell and RHF/RKS was chosen
  ===> : WILL SWITCH to UHF/UKS


INFO   : the flag for use of LIBINT has been found!

================================================================================
                                       INPUT FILE
================================================================================
NAME = 23_CrO.in
|  1> #
|  2> # 23_CrO wb97x-v/aug-cc-pvtz
|  3> #
|  4> ! wb97x-v aug-cc-pvtz def2/jk grid4 nofinalgrid
|  5> 
|  6> *xyz 0 5
|  7>   Cr  0.00000000000000      0.00000000000000      0.19264925280896
|  8>   O   0.00000000000000      0.00000000000000      1.80735074719104
|  9> *
| 10> 
| 11> %pal
| 12> nprocs 24
| 13> end
| 14> 
| 15> 
| 16>                          ****END OF INPUT****
================================================================================

                       ****************************
                       * Single Point Calculation *
                       ****************************

---------------------------------
CARTESIAN COORDINATES (ANGSTROEM)
---------------------------------
  Cr     0.000000    0.000000    0.192649
  O      0.000000    0.000000    1.807351

----------------------------
CARTESIAN COORDINATES (A.U.)
----------------------------
  NO LB      ZA    FRAG     MASS         X           Y           Z
   0 Cr   24.0000    0    52.000    0.000000    0.000000    0.364054
   1 O     8.0000    0    15.999    0.000000    0.000000    3.415398

--------------------------------
INTERNAL COORDINATES (ANGSTROEM)
--------------------------------
 Cr     0   0   0     0.000000000000     0.00000000     0.00000000
 O      1   0   0     1.614701494382     0.00000000     0.00000000

---------------------------
INTERNAL COORDINATES (A.U.)
---------------------------
 Cr     0   0   0     0.000000000000     0.00000000     0.00000000
 O      1   0   0     3.051343612416     0.00000000     0.00000000

---------------------
BASIS SET INFORMATION
---------------------
There are 2 groups of distinct atoms

 Group   1 Type Cr  : 116s77p23d3f2g contracted to 8s7p5d3f2g pattern {19191919191911/151515151511/77711/111/11}
 Group   2 Type O   : 19s6p3d2f contracted to 5s4p3d2f pattern {88111/3111/111/11}

Atom   0Cr   basis set group =>   1
Atom   1O    basis set group =>   2
----------------------------------
AUXILIARY/JK BASIS SET INFORMATION
----------------------------------
There are 2 groups of distinct atoms

 Group   1 Type Cr  : 19s14p12d10f7g3h1i contracted to 16s13p11d9f5g3h1i pattern {4111111111111111/2111111111111/21111111111/211111111/31111/111/1}
 Group   2 Type O   : 14s10p6d2f1g contracted to 10s8p4d2f1g pattern {5111111111/31111111/3111/11/1}

Atom   0Cr   basis set group =>   1
Atom   1O    basis set group =>   2


           ************************************************************
           *        Program running with 24 parallel MPI-processes    *
           *              working on a common directory               *
           ************************************************************
------------------------------------------------------------------------------
                           ORCA GTO INTEGRAL CALCULATION
------------------------------------------------------------------------------

                         BASIS SET STATISTICS AND STARTUP INFO

 # of primitive gaussian shells          ...  251
 # of primitive gaussian functions       ...  567
 # of contracted shells                  ...   39
 # of contracted basis functions         ...  139
 Highest angular momentum                ...    4
 Maximum contraction depth               ...   19
 Integral package used                   ... LIBINT
 Integral threshhold            Thresh   ...  1.000e-10
 Primitive cut-off              TCut     ...  1.000e-11


------------------------------ INTEGRAL EVALUATION ----------------------------


 * One electron integrals 
 Pre-screening matrix                    ... done
 Shell pair data                         ... done (   0.001 sec)



           ************************************************************
           *        Program running with 24 parallel MPI-processes    *
           *              working on a common directory               *
           ************************************************************
-------------------------------------------------------------------------------
                                 ORCA SCF
-------------------------------------------------------------------------------

------------
SCF SETTINGS
------------
Hamiltonian:
 Density Functional     Method          .... DFT(GTOs)
 Exchange Functional    Exchange        .... WB97X-V
 Correlation Functional Correlation     .... WB97X-V
 Gradients option       PostSCFGGA      .... off
 Hybrid DFT is turned on
   Fraction HF Exchange ScalHFX         ....  0.167000
   Scaling of DF-GGA-X  ScalDFX         ....  0.000000
   Scaling of DF-GGA-C  ScalDFC         ....  1.000000
   Scaling of DF-LDA-C  ScalLDAC        ....  1.000000
   Perturbative correction              ....  0.000000
   Density functional embedding theory  .... OFF
 Long-range corrected/Screened/Range-Separated Hybrid DFT is turned on
   Amount of maximum screened exact exchange              ....  0.833000
   Range separation parameter mu (erf(mu*r12)/r12)        ....  0.300000
   NL short-range parameter             ....  6.000000
   NL long-range parameter              ....  0.010000


General Settings:
 Integral files         IntName         .... 23_CrO
 Hartree-Fock type      HFTyp           .... UHF
 Total Charge           Charge          ....    0
 Multiplicity           Mult            ....    5
 Number of Electrons    NEL             ....   32
 Basis Dimension        Dim             ....  139
 Nuclear Repulsion      ENuc            ....     62.9231002430 Eh

Convergence Acceleration:
 DIIS                   CNVDIIS         .... on
   Start iteration      DIISMaxIt       ....    12
   Startup error        DIISStart       ....  0.200000
   # of expansion vecs  DIISMaxEq       ....     5
   Bias factor          DIISBfac        ....   1.050
   Max. coefficient     DIISMaxC        ....  10.000
 Newton-Raphson         CNVNR           .... off
 SOSCF                  CNVSOSCF        .... off
 Level Shifting         CNVShift        .... on
   Level shift para.    LevelShift      ....    0.2500
   Turn off err/grad.   ShiftErr        ....    0.0010
 Zerner damping         CNVZerner       .... off
 Static damping         CNVDamp         .... on
   Fraction old density DampFac         ....    0.7000
   Max. Damping (<1)    DampMax         ....    0.9800
   Min. Damping (>=0)   DampMin         ....    0.0000
   Turn off err/grad.   DampErr         ....    0.1000
 Fernandez-Rico         CNVRico         .... off

SCF Procedure:
 Maximum # iterations   MaxIter         ....   125
 SCF integral mode      SCFMode         .... Direct
   Integral package                     .... LIBINT
 Reset frequency        DirectResetFreq ....    20
 Integral Threshold     Thresh          ....  1.000e-10 Eh
 Primitive CutOff       TCut            ....  1.000e-11 Eh

Convergence Tolerance:
 Convergence Check Mode ConvCheckMode   .... Total+1el-Energy
 Convergence forced     ConvForced      .... 0
 Energy Change          TolE            ....  1.000e-06 Eh
 1-El. energy change                    ....  1.000e-03 Eh
 DIIS Error             TolErr          ....  1.000e-06


Diagonalization of the overlap matrix:
Smallest eigenvalue                        ... 7.961e-05
Time for diagonalization                   ...    0.004 sec
Threshold for overlap eigenvalues          ... 1.000e-08
Number of eigenvalues below threshold      ... 0
Time for construction of square roots      ...    0.002 sec
Total time needed                          ...    0.007 sec

-------------------
DFT GRID GENERATION
-------------------

General Integration Accuracy     IntAcc      ...  4.670
Radial Grid Type                 RadialGrid  ... Gauss-Chebyshev
Angular Grid (max. acc.)         AngularGrid ... Lebedev-302
Angular grid pruning method      GridPruning ... 3 (G Style)
Weight generation scheme         WeightScheme... Becke
Basis function cutoff            BFCut       ...    1.0000e-10
Integration weight cutoff        WCut        ...    1.0000e-14
Grids for H and He will be reduced by one unit

# of grid points (after initial pruning)     ...  15876 (   0.0 sec)
# of grid points (after weights+screening)   ...  15834 (   0.0 sec)
nearest neighbour list constructed           ...    0.0 sec
Grid point re-assignment to atoms done       ...    0.0 sec
Grid point division into batches done        ...    0.1 sec
Reduced shell lists constructed in    0.1 sec

Total number of grid points                  ...    15834
Total number of batches                      ...      249
Average number of points per batch           ...       63
Average number of grid points per atom       ...     7917
Average number of shells per batch           ...    14.75 (37.82%)
Average number of basis functions per batch  ...    38.42 (27.64%)
Average number of large shells per batch     ...     7.67 (51.98%)
Average number of large basis fcns per batch ...    21.50 (55.97%)
Maximum spatial batch extension              ...  28.57, 31.41, 18.18 au
Average spatial batch extension              ...   0.89,  0.95,  0.67 au

Time for grid setup =    0.160 sec

------------------------------
INITIAL GUESS: MODEL POTENTIAL
------------------------------
Loading Hartree-Fock densities                     ... done
Calculating cut-offs                               ... done
Setting up the integral package                    ... done
Initializing the effective Hamiltonian             ... done
Starting the Coulomb interaction                   ... done (   0.0 sec)
Reading the grid                                   ... done
Mapping shells                                     ... done
Starting the XC term evaluation                    ... done (   0.0 sec)
  promolecular density results
     # of electrons  =     32.000000567
     EX              =    -41.629504097
     EC              =     -1.722955770
     EX+EC           =    -43.352459867
Transforming the Hamiltonian                       ... done (   0.0 sec)
Diagonalizing the Hamiltonian                      ... done (   0.0 sec)
Back transforming the eigenvectors                 ... done (   0.0 sec)
Now organizing SCF variables                       ... done
                      ------------------
                      INITIAL GUESS DONE (   0.3 sec)
                      ------------------
--------------
SCF ITERATIONS
--------------
ITER       Energy         Delta-E        Max-DP      RMS-DP      [F,P]     Damp
               ***  Starting incremental Fock matrix formation  ***
  0  -1115.5010333885   0.000000000000 3.38628820  0.04483905  0.9737382 0.7000
  1  -1117.1644819580  -1.663448569539 0.75112455  0.01317564  0.3453929 0.7000
  2  -1117.9538463579  -0.789364399915 0.54621308  0.01005710  0.2597387 0.7000
                               ***Turning on DIIS***
  3  -1118.4524331439  -0.498586785929 0.44388192  0.00715302  0.1732446 0.7000
  4  -1118.7977851531  -0.345352009239 0.35673647  0.00512445  0.1172857 0.7000
  5  -1119.0461687608  -0.248383607654 1.16009979  0.01367983  0.0834951 0.0000
  6  -1119.6494354247  -0.603266663945 0.06688765  0.00144618  0.0296072 0.0000
  7  -1119.6516674912  -0.002232066521 0.08816863  0.00093235  0.0138550 0.0000
  8  -1119.6535659589  -0.001898467703 0.02880420  0.00044114  0.0089093 0.0000
  9  -1119.6544776999  -0.000911740976 0.01141159  0.00024824  0.0113662 0.0000
 10  -1119.6550091436  -0.000531443736 0.01261458  0.00014031  0.0047557 0.0000
 11  -1119.6555743443  -0.000565200706 0.01418970  0.00013411  0.0032020 0.0000
 12  -1119.6560325343  -0.000458189999 0.01658137  0.00013844  0.0024190 0.0000
 13  -1119.6564201779  -0.000387643528 0.01462603  0.00011298  0.0013401 0.0000
 14  -1119.6566514442  -0.000231266291 0.01066629  0.00008847  0.0014420 0.0000
 15  -1119.6567747559  -0.000123311703 0.01064015  0.00007806  0.0012658 0.0000
 16  -1119.6568598565  -0.000085100678 0.01868862  0.00013575  0.0008640 0.0000
 17  -1119.6569418842  -0.000082027641 0.00619587  0.00005028  0.0007990 0.0000
 18  -1119.6569549422  -0.000013057989 0.00501819  0.00003570  0.0005642 0.0000
 19  -1119.6569582478  -0.000003305585 0.00161549  0.00001269  0.0002463 0.0000
               *** Restarting incremental Fock matrix formation ***
                                   *** Resetting DIIS ***
 20  -1119.6569586591  -0.000000411373 0.00037981  0.00000711  0.0000901 0.0000
 21  -1119.6569590358  -0.000000376674 0.00027144  0.00000491  0.0001253 0.0000
 22  -1119.6569591639  -0.000000128056 0.00016787  0.00000185  0.0000457 0.0000
                 **** Energy Check signals convergence ****

               *****************************************************
               *                     SUCCESS                       *
               *           SCF CONVERGED AFTER  23 CYCLES          *
               *****************************************************


Setting up the DFT-NL grid :

General Integration Accuracy     IntAcc      ...  4.340
Radial Grid Type                 RadialGrid  ... Gauss-Chebyshev
Angular Grid (max. acc.)         AngularGrid ... Lebedev-110
Angular grid pruning method      GridPruning ... 3 (G Style)
Weight generation scheme         WeightScheme... Becke
Basis function cutoff            BFCut       ...    1.0000e-10
Integration weight cutoff        WCut        ...    1.0000e-14
Grids for H and He will be reduced by one unit

# of grid points (after initial pruning)     ...   4688 (   0.0 sec)
# of grid points (after weights+screening)   ...   4661 (   0.0 sec)
nearest neighbour list constructed           ...    0.0 sec
Grid point re-assignment to atoms done       ...    0.0 sec
Grid point division into batches done        ...    0.0 sec
Reduced shell lists constructed in    0.0 sec

Total number of grid points                  ...     4661
Total number of batches                      ...       73
Average number of points per batch           ...       63
Average number of grid points per atom       ...     2330
Average number of shells per batch           ...    21.60 (55.38%)
Average number of basis functions per batch  ...    65.60 (47.19%)
Average number of large shells per batch     ...    16.00 (74.07%)
Average number of large basis fcns per batch ...    48.00 (73.17%)
Maximum spatial batch extension              ...  19.25, 28.73, 15.77 au
Average spatial batch extension              ...   1.01,  1.32,  0.86 au

Final grid set up in    0.0 sec

-------------------------------------------------------------------------------
                         DFT-NL dispersion correction                          
-------------------------------------------------------------------------------

SC Energy -1119.656959289 
NL    Energy 0.133802790 
SC+NL Energy -1119.523156499 
NL done in    0.0 sec
-------------------------------------------------------------------------------

----------------
TOTAL SCF ENERGY
----------------

Total Energy       :        -1119.52315650 Eh          -30463.77384 eV

Components:
Nuclear Repulsion  :           62.92310024 Eh            1712.22461 eV
Electronic Energy  :        -1182.44625674 Eh          -32175.99844 eV
One Electron Energy:        -1665.98340601 Eh          -45333.71320 eV
Two Electron Energy:          483.53714927 Eh           13157.71476 eV

Virial components:
Potential Energy   :        -2237.15039933 Eh          -60875.95724 eV
Kinetic Energy     :         1117.62724283 Eh           30412.18340 eV
Virial Ratio       :            2.00169637


DFT components:
N(Alpha)           :       17.999995884978 electrons
N(Beta)            :       13.999995778085 electrons
N(Total)           :       31.999991663063 electrons
E(X)               :      -41.882154658241 Eh       
E(C)               :       -1.694352526577 Eh       
NL Energy, E(C,NL) :        0.133802789736 Eh       
E(XC)              :      -43.442704395082 Eh       
DFET-embed. en.    :        0.000000000000 Eh       

---------------
SCF CONVERGENCE
---------------

  Last Energy change         ...   -1.2511e-07  Tolerance :   1.0000e-06
  Last MAX-Density change    ...    2.4454e-04  Tolerance :   1.0000e-05
  Last RMS-Density change    ...    3.4212e-06  Tolerance :   1.0000e-06
  Last DIIS Error            ...    7.6972e-05  Tolerance :   1.0000e-06

             **** THE GBW FILE WAS UPDATED (23_CrO.gbw) ****
             **** DENSITY FILE WAS UPDATED (23_CrO.scfp) ****
             **** ENERGY FILE WAS UPDATED (23_CrO.en.tmp) ****
----------------------
UHF SPIN CONTAMINATION
----------------------

Warning: in a DFT calculation there is little theoretical justification to 
         calculate <S**2> as in Hartree-Fock theory. We will do it anyways
         but you should keep in mind that the values have only limited relevance

Expectation value of <S**2>     :     6.145508
Ideal value S*(S+1) for S=2.0   :     6.000000
Deviation                       :     0.145508

             **** THE GBW FILE WAS UPDATED (23_CrO.gbw) ****
             **** DENSITY FILE WAS UPDATED (23_CrO.scfp) ****
----------------
ORBITAL ENERGIES
----------------
                 SPIN UP ORBITALS
  NO   OCC          E(Eh)            E(eV) 
   0   1.0000    -215.665676     -5868.5614 
   1   1.0000     -24.805738      -674.9984 
   2   1.0000     -21.088856      -573.8569 
   3   1.0000     -21.088642      -573.8511 
   4   1.0000     -21.081034      -573.6441 
   5   1.0000     -19.188240      -522.1386 
   6   1.0000      -3.077899       -83.7539 
   7   1.0000      -2.034444       -55.3600 
   8   1.0000      -2.029987       -55.2387 
   9   1.0000      -2.023622       -55.0656 
  10   1.0000      -0.983538       -26.7634 
  11   1.0000      -0.461280       -12.5521 
  12   1.0000      -0.449830       -12.2405 
  13   1.0000      -0.414842       -11.2884 
  14   1.0000      -0.389101       -10.5880 
  15   1.0000      -0.387953       -10.5567 
  16   1.0000      -0.312467        -8.5027 
  17   1.0000      -0.293490        -7.9863 
  18   0.0000      -0.023400        -0.6368 
  19   0.0000      -0.011965        -0.3256 
  20   0.0000       0.019087         0.5194 
  21   0.0000       0.025900         0.7048 
  22   0.0000       0.028976         0.7885 
  23   0.0000       0.033303         0.9062 
  24   0.0000       0.062553         1.7021 
  25   0.0000       0.068431         1.8621 
  26   0.0000       0.075957         2.0669 
  27   0.0000       0.076062         2.0697 
  28   0.0000       0.079060         2.1513 
  29   0.0000       0.082617         2.2481 
  30   0.0000       0.085164         2.3174 
  31   0.0000       0.119254         3.2451 
  32   0.0000       0.155756         4.2383 
  33   0.0000       0.203913         5.5487 
  34   0.0000       0.204866         5.5747 
  35   0.0000       0.258954         7.0465 
  36   0.0000       0.259992         7.0747 
  37   0.0000       0.260513         7.0889 
  38   0.0000       0.262148         7.1334 
  39   0.0000       0.262892         7.1537 
  40   0.0000       0.266928         7.2635 
  41   0.0000       0.295042         8.0285 
  42   0.0000       0.295309         8.0358 
  43   0.0000       0.355175         9.6648 
  44   0.0000       0.517073        14.0703 
  45   0.0000       0.585842        15.9416 
  46   0.0000       0.586188        15.9510 
  47   0.0000       0.611571        16.6417 
  48   0.0000       0.611581        16.6420 
  49   0.0000       0.660354        17.9691 
  50   0.0000       0.664005        18.0685 
  51   0.0000       0.680935        18.5292 
  52   0.0000       0.703415        19.1409 
  53   0.0000       0.709938        19.3184 
  54   0.0000       0.755793        20.5662 
  55   0.0000       0.805981        21.9319 
  56   0.0000       0.806589        21.9484 
  57   0.0000       0.837606        22.7924 
  58   0.0000       0.838998        22.8303 
  59   0.0000       0.839258        22.8374 
  60   0.0000       0.926495        25.2112 
  61   0.0000       0.926785        25.2191 
  62   0.0000       0.954213        25.9655 
  63   0.0000       0.958341        26.0778 
  64   0.0000       1.207191        32.8493 
  65   0.0000       1.359280        36.9879 
  66   0.0000       1.366774        37.1918 
  67   0.0000       1.367146        37.2019 
  68   0.0000       1.693490        46.0822 
  69   0.0000       1.746952        47.5370 
  70   0.0000       1.747559        47.5535 
  71   0.0000       1.776623        48.3444 
  72   0.0000       1.777365        48.3646 
  73   0.0000       1.844679        50.1963 
  74   0.0000       1.844715        50.1972 
  75   0.0000       1.929825        52.5132 
  76   0.0000       1.929843        52.5137 
  77   0.0000       1.966073        53.4996 
  78   0.0000       2.048569        55.7444 
  79   0.0000       2.093180        56.9583 
  80   0.0000       2.094205        56.9862 
  81   0.0000       2.169320        59.0302 
  82   0.0000       2.171277        59.0835 
  83   0.0000       2.230058        60.6830 
  84   0.0000       2.230543        60.6961 
  85   0.0000       2.251540        61.2675 
  86   0.0000       2.251546        61.2677 
  87   0.0000       2.377004        64.6816 
  88   0.0000       2.385456        64.9116 
  89   0.0000       2.397466        65.2384 
  90   0.0000       2.407949        65.5236 
  91   0.0000       2.408021        65.5256 
  92   0.0000       2.642597        71.9087 
  93   0.0000       2.657227        72.3068 
  94   0.0000       2.657403        72.3116 
  95   0.0000       2.866617        78.0046 
  96   0.0000       2.867333        78.0241 
  97   0.0000       2.927974        79.6742 
  98   0.0000       3.083322        83.9015 
  99   0.0000       3.291336        89.5618 
 100   0.0000       3.291643        89.5702 
 101   0.0000       3.360966        91.4565 
 102   0.0000       3.361493        91.4709 
 103   0.0000       3.637886        98.9919 
 104   0.0000       3.645437        99.1974 
 105   0.0000       4.221877       114.8831 
 106   0.0000       4.229336       115.0861 
 107   0.0000       4.285553       116.6158 
 108   0.0000       5.026042       136.7656 
 109   0.0000       6.182922       168.2459 
 110   0.0000       6.182927       168.2460 
 111   0.0000       6.201571       168.7533 
 112   0.0000       6.216415       169.1573 
 113   0.0000       6.217576       169.1889 
 114   0.0000       6.219600       169.2439 
 115   0.0000       6.219603       169.2440 
 116   0.0000       6.282108       170.9449 
 117   0.0000       6.283426       170.9807 
 118   0.0000       6.319775       171.9698 
 119   0.0000       6.320097       171.9786 
 120   0.0000       6.484112       176.4417 
 121   0.0000       6.551514       178.2758 
 122   0.0000       6.553583       178.3320 
 123   0.0000       6.669837       181.4955 
 124   0.0000       6.669844       181.4957 
 125   0.0000       6.701567       182.3589 
 126   0.0000       6.701612       182.3601 
 127   0.0000       6.738492       183.3637 
 128   0.0000       6.739577       183.3932 
 129   0.0000       6.837026       186.0449 
 130   0.0000       6.838061       186.0731 
 131   0.0000       6.975131       189.8030 
 132   0.0000       6.977885       189.8779 
 133   0.0000       7.088065       192.8760 
 134   0.0000       7.174773       195.2355 
 135   0.0000       7.176900       195.2934 
 136   0.0000       7.513543       204.4539 
 137   0.0000       8.262431       224.8322 
 138   0.0000      11.055492       300.8352 

                 SPIN DOWN ORBITALS
  NO   OCC          E(Eh)            E(eV) 
   0   1.0000    -215.664303     -5868.5240 
   1   1.0000     -24.754838      -673.6134 
   2   1.0000     -21.056367      -572.9729 
   3   1.0000     -21.046307      -572.6991 
   4   1.0000     -21.031496      -572.2961 
   5   1.0000     -19.195538      -522.3371 
   6   1.0000      -2.939197       -79.9796 
   7   1.0000      -1.912755       -52.0487 
   8   1.0000      -1.876987       -51.0754 
   9   1.0000      -1.845558       -50.2202 
  10   1.0000      -1.002898       -27.2902 
  11   1.0000      -0.436924       -11.8893 
  12   1.0000      -0.433415       -11.7938 
  13   1.0000      -0.409376       -11.1397 
  14   0.0000      -0.006575        -0.1789 
  15   0.0000       0.027898         0.7591 
  16   0.0000       0.029956         0.8151 
  17   0.0000       0.030064         0.8181 
  18   0.0000       0.040080         1.0906 
  19   0.0000       0.063170         1.7189 
  20   0.0000       0.064109         1.7445 
  21   0.0000       0.073224         1.9925 
  22   0.0000       0.073843         2.0094 
  23   0.0000       0.080150         2.1810 
  24   0.0000       0.086587         2.3562 
  25   0.0000       0.090318         2.4577 
  26   0.0000       0.095742         2.6053 
  27   0.0000       0.098281         2.6744 
  28   0.0000       0.099506         2.7077 
  29   0.0000       0.112528         3.0620 
  30   0.0000       0.127117         3.4590 
  31   0.0000       0.135438         3.6855 
  32   0.0000       0.186714         5.0807 
  33   0.0000       0.248666         6.7665 
  34   0.0000       0.256130         6.9696 
  35   0.0000       0.260115         7.0781 
  36   0.0000       0.264866         7.2074 
  37   0.0000       0.266975         7.2648 
  38   0.0000       0.307058         8.3555 
  39   0.0000       0.313797         8.5389 
  40   0.0000       0.315009         8.5718 
  41   0.0000       0.319592         8.6965 
  42   0.0000       0.326936         8.8964 
  43   0.0000       0.366305         9.9677 
  44   0.0000       0.550298        14.9744 
  45   0.0000       0.612730        16.6732 
  46   0.0000       0.612773        16.6744 
  47   0.0000       0.660962        17.9857 
  48   0.0000       0.660972        17.9860 
  49   0.0000       0.697425        18.9779 
  50   0.0000       0.707100        19.2412 
  51   0.0000       0.712670        19.3927 
  52   0.0000       0.741953        20.1896 
  53   0.0000       0.751494        20.4492 
  54   0.0000       0.795463        21.6456 
  55   0.0000       0.838598        22.8194 
  56   0.0000       0.840319        22.8662 
  57   0.0000       0.846783        23.0421 
  58   0.0000       0.851891        23.1811 
  59   0.0000       0.859602        23.3910 
  60   0.0000       0.967919        26.3384 
  61   0.0000       0.983342        26.7581 
  62   0.0000       0.986055        26.8319 
  63   0.0000       0.986217        26.8363 
  64   0.0000       1.205416        32.8010 
  65   0.0000       1.389908        37.8213 
  66   0.0000       1.391511        37.8649 
  67   0.0000       1.402555        38.1655 
  68   0.0000       1.746639        47.5285 
  69   0.0000       1.786716        48.6190 
  70   0.0000       1.786829        48.6221 
  71   0.0000       1.801720        49.0273 
  72   0.0000       1.815393        49.3994 
  73   0.0000       1.923160        52.3319 
  74   0.0000       1.923163        52.3319 
  75   0.0000       1.947184        52.9856 
  76   0.0000       1.947188        52.9857 
  77   0.0000       1.981662        53.9238 
  78   0.0000       2.075560        56.4788 
  79   0.0000       2.118287        57.6415 
  80   0.0000       2.119626        57.6780 
  81   0.0000       2.179475        59.3065 
  82   0.0000       2.191682        59.6387 
  83   0.0000       2.236820        60.8670 
  84   0.0000       2.237008        60.8721 
  85   0.0000       2.307528        62.7910 
  86   0.0000       2.307533        62.7912 
  87   0.0000       2.441742        66.4432 
  88   0.0000       2.443449        66.4896 
  89   0.0000       2.443464        66.4900 
  90   0.0000       2.450453        66.6802 
  91   0.0000       2.468340        67.1670 
  92   0.0000       2.662939        72.4623 
  93   0.0000       2.675587        72.8064 
  94   0.0000       2.687729        73.1368 
  95   0.0000       2.893271        78.7299 
  96   0.0000       2.893585        78.7385 
  97   0.0000       2.949582        80.2622 
  98   0.0000       3.119386        84.8828 
  99   0.0000       3.306699        89.9799 
 100   0.0000       3.322097        90.3988 
 101   0.0000       3.477710        94.6333 
 102   0.0000       3.477787        94.6354 
 103   0.0000       3.709716       100.9465 
 104   0.0000       3.733725       101.5998 
 105   0.0000       4.211518       114.6012 
 106   0.0000       4.233477       115.1988 
 107   0.0000       4.335105       117.9642 
 108   0.0000       5.035088       137.0117 
 109   0.0000       6.206286       168.8816 
 110   0.0000       6.206316       168.8824 
 111   0.0000       6.236155       169.6944 
 112   0.0000       6.304175       171.5453 
 113   0.0000       6.304538       171.5552 
 114   0.0000       6.315052       171.8413 
 115   0.0000       6.319676       171.9671 
 116   0.0000       6.319800       171.9705 
 117   0.0000       6.334254       172.3638 
 118   0.0000       6.334802       172.3787 
 119   0.0000       6.336104       172.4142 
 120   0.0000       6.542232       178.0232 
 121   0.0000       6.574562       178.9029 
 122   0.0000       6.597261       179.5206 
 123   0.0000       6.727124       183.0544 
 124   0.0000       6.727506       183.0648 
 125   0.0000       6.778960       184.4649 
 126   0.0000       6.778965       184.4650 
 127   0.0000       6.795751       184.9218 
 128   0.0000       6.795761       184.9220 
 129   0.0000       6.913281       188.1199 
 130   0.0000       6.913475       188.1252 
 131   0.0000       7.032793       191.3720 
 132   0.0000       7.055460       191.9888 
 133   0.0000       7.109304       193.4540 
 134   0.0000       7.165071       194.9715 
 135   0.0000       7.186744       195.5612 
 136   0.0000       7.543942       205.2811 
 137   0.0000       8.346943       227.1319 
 138   0.0000      11.049088       300.6610 

                    ********************************
                    * MULLIKEN POPULATION ANALYSIS *
                    ********************************

--------------------------------------------
MULLIKEN ATOMIC CHARGES AND SPIN POPULATIONS
--------------------------------------------
   0 Cr:    0.619080    4.282128
   1 O :   -0.619080   -0.282128
Sum of atomic charges         :    0.0000000
Sum of atomic spin populations:    4.0000000

-----------------------------------------------------
MULLIKEN REDUCED ORBITAL CHARGES AND SPIN POPULATIONS
-----------------------------------------------------
CHARGE
  0 Crs       :     6.697262  s :     6.697262
      pz      :     4.047549  p :    12.200992
      px      :     4.118840
      py      :     4.034604
      dz2     :     0.815400  d :     4.445824
      dxz     :     1.082363
      dyz     :     0.554801
      dx2y2   :     0.994706
      dxy     :     0.998554
      f0      :     0.006479  f :     0.030797
      f+1     :     0.014050
      f-1     :     0.009769
      f+2     :     0.000271
      f-2     :     0.000205
      f+3     :     0.000011
      f-3     :     0.000011
      g0      :     0.001359  g :     0.006045
      g+1     :     0.002673
      g-1     :     0.002001
      g+2     :     0.000004
      g-2     :    -0.000001
      g+3     :     0.000001
      g-3     :     0.000001
      g+4     :     0.000003
      g-4     :     0.000003
  1 O s       :     3.947605  s :     3.947605
      pz      :     1.483228  p :     4.646463
      px      :     1.764984
      py      :     1.398251
      dz2     :     0.004077  d :     0.020789
      dxz     :     0.005850
      dyz     :     0.009276
      dx2y2   :     0.000819
      dxy     :     0.000767
      f0      :     0.001077  f :     0.004221
      f+1     :     0.001227
      f-1     :     0.001269
      f+2     :     0.000320
      f-2     :     0.000312
      f+3     :     0.000008
      f-3     :     0.000008

SPIN
  0 Crs       :     0.627207  s :     0.627207
      pz      :     0.032541  p :     0.117996
      px      :     0.082861
      py      :     0.002593
      dz2     :     0.427964  d :     3.540041
      dxz     :     0.822184
      dyz     :     0.296981
      dx2y2   :     0.994372
      dxy     :     0.998540
      f0      :    -0.000877  f :    -0.002030
      f+1     :     0.000962
      f-1     :    -0.002561
      f+2     :     0.000246
      f-2     :     0.000204
      f+3     :    -0.000003
      f-3     :    -0.000003
      g0      :    -0.000334  g :    -0.001085
      g+1     :    -0.000089
      g-1     :    -0.000667
      g+2     :     0.000001
      g-2     :    -0.000001
      g+3     :    -0.000000
      g-3     :    -0.000001
      g+4     :     0.000003
      g-4     :     0.000003
  1 O s       :    -0.000848  s :    -0.000848
      pz      :    -0.082728  p :    -0.289565
      px      :     0.083573
      py      :    -0.290409
      dz2     :     0.001497  d :     0.006413
      dxz     :     0.000023
      dyz     :     0.003380
      dx2y2   :     0.000750
      dxy     :     0.000764
      f0      :     0.000070  f :     0.001871
      f+1     :     0.000505
      f-1     :     0.000684
      f+2     :     0.000314
      f-2     :     0.000312
      f+3     :    -0.000007
      f-3     :    -0.000007


                     *******************************
                     * LOEWDIN POPULATION ANALYSIS *
                     *******************************

-------------------------------------------
LOEWDIN ATOMIC CHARGES AND SPIN POPULATIONS
-------------------------------------------
   0 Cr:    0.591515    4.088515
   1 O :   -0.591515   -0.088515

----------------------------------------------------
LOEWDIN REDUCED ORBITAL CHARGES AND SPIN POPULATIONS
----------------------------------------------------
CHARGE
  0 Crs       :     6.374916  s :     6.374916
      pz      :     4.122781  p :    12.170614
      px      :     4.093409
      py      :     3.954424
      dz2     :     0.937038  d :     4.539859
      dxz     :     1.074678
      dyz     :     0.568714
      dx2y2   :     0.977820
      dxy     :     0.981609
      f0      :     0.113363  f :     0.259240
      f+1     :     0.087739
      f-1     :     0.055463
      f+2     :     0.001355
      f-2     :     0.001297
      f+3     :     0.000011
      f-3     :     0.000011
      g0      :     0.024033  g :     0.063856
      g+1     :     0.023547
      g-1     :     0.015814
      g+2     :     0.000229
      g-2     :     0.000224
      g+3     :     0.000001
      g-3     :     0.000001
      g+4     :     0.000003
      g-4     :     0.000003
  1 O s       :     3.528283  s :     3.528283
      pz      :     1.646684  p :     4.554638
      px      :     1.588921
      py      :     1.319033
      dz2     :     0.175367  d :     0.333731
      dxz     :     0.076341
      dyz     :     0.063546
      dx2y2   :     0.009252
      dxy     :     0.009225
      f0      :     0.081572  f :     0.174863
      f+1     :     0.045352
      f-1     :     0.032977
      f+2     :     0.007464
      f-2     :     0.007482
      f+3     :     0.000008
      f-3     :     0.000008

SPIN
  0 Crs       :     0.577196  s :     0.577196
      pz      :     0.033982  p :     0.149234
      px      :     0.124447
      py      :    -0.009195
      dz2     :     0.397036  d :     3.368938
      dxz     :     0.757622
      dyz     :     0.255196
      dx2y2   :     0.977488
      dxy     :     0.981596
      f0      :    -0.001613  f :    -0.003170
      f+1     :     0.013901
      f-1     :    -0.018077
      f+2     :     0.001329
      f-2     :     0.001296
      f+3     :    -0.000003
      f-3     :    -0.000003
      g0      :    -0.001351  g :    -0.003683
      g+1     :     0.002659
      g-1     :    -0.005444
      g+2     :     0.000225
      g-2     :     0.000224
      g+3     :    -0.000000
      g-3     :    -0.000001
      g+4     :     0.000003
      g-4     :     0.000003
  1 O s       :     0.022791  s :     0.022791
      pz      :    -0.030513  p :    -0.208859
      px      :     0.050377
      py      :    -0.228722
      dz2     :     0.003367  d :     0.057313
      dxz     :     0.024022
      dyz     :     0.011519
      dx2y2   :     0.009183
      dxy     :     0.009222
      f0      :     0.003597  f :     0.040239
      f+1     :     0.016991
      f-1     :     0.004725
      f+2     :     0.007458
      f-2     :     0.007482
      f+3     :    -0.000007
      f-3     :    -0.000007


                      *****************************
                      * MAYER POPULATION ANALYSIS *
                      *****************************

  NA   - Mulliken gross atomic population
  ZA   - Total nuclear charge
  QA   - Mulliken gross atomic charge
  VA   - Mayer's total valence
  BVA  - Mayer's bonded valence
  FA   - Mayer's free valence

  ATOM       NA         ZA         QA         VA         BVA        FA
  0 Cr    23.3809    24.0000     0.6191     5.8620     2.0720     3.7901
  1 O      8.6191     8.0000    -0.6191     2.1876     2.0720     0.1157

  Mayer bond orders larger than 0.100000
B(  0-Cr,  1-O ) :   2.0720 

-------
TIMINGS
-------

Total SCF time: 0 days 0 hours 5 min 28 sec 

Total time                  ....     328.501 sec
Sum of individual times     ....     328.144 sec  ( 99.9%)

Fock matrix formation       ....     327.667 sec  ( 99.7%)
  XC integration            ....       0.558 sec  (  0.2% of F)
    Basis function eval.    ....       0.119 sec  ( 21.3% of XC)
    Density eval.           ....       0.064 sec  ( 11.5% of XC)
    XC-Functional eval.     ....       0.027 sec  (  4.9% of XC)
    XC-Potential eval.      ....       0.165 sec  ( 29.6% of XC)
Diagonalization             ....       0.119 sec  (  0.0%)
Density matrix formation    ....       0.015 sec  (  0.0%)
Population analysis         ....       0.007 sec  (  0.0%)
Initial guess               ....       0.117 sec  (  0.0%)
Orbital Transformation      ....       0.000 sec  (  0.0%)
Orbital Orthonormalization  ....       0.000 sec  (  0.0%)
DIIS solution               ....       0.041 sec  (  0.0%)
Grid generation             ....       0.178 sec  (  0.1%)

-------------------------   --------------------
FINAL SINGLE POINT ENERGY     -1119.523156499240
-------------------------   --------------------


                            ***************************************
                            *     ORCA property calculations      *
                            ***************************************

                                    ---------------------
                                    Active property flags
                                    ---------------------
   (+) Dipole Moment


------------------------------------------------------------------------------
                       ORCA ELECTRIC PROPERTIES CALCULATION
------------------------------------------------------------------------------

Dipole Moment Calculation                       ... on
Quadrupole Moment Calculation                   ... off
Polarizability Calculation                      ... off
GBWName                                         ... 23_CrO.gbw
Electron density file                           ... 23_CrO.scfp
The origin for moment calculation is the CENTER OF MASS  = ( 0.000000,  0.000000  1.081983)

-------------
DIPOLE MOMENT
-------------
                                X             Y             Z
Electronic contribution:     -0.00000       0.00000      -3.23014
Nuclear contribution   :      0.00000       0.00000       1.43702
                        -----------------------------------------
Total Dipole Moment    :     -0.00000       0.00000      -1.79311
                        -----------------------------------------
Magnitude (a.u.)       :      1.79311
Magnitude (Debye)      :      4.55773



--------------------
Rotational spectrum 
--------------------
 
Rotational constants in cm-1:     0.000000     0.528468     0.528468 
Rotational constants in MHz :     0.000000 15843.074100 15843.074100 

 Dipole components along the rotational axes: 
x,y,z [a.u.] :    -1.793112     0.000000    -0.000000 
x,y,z [Debye]:    -4.557729     0.000000    -0.000000 

 

Timings for individual modules:

Sum of individual times         ...      331.960 sec (=   5.533 min)
GTO integral calculation        ...        2.959 sec (=   0.049 min)   0.9 %
SCF iterations                  ...      329.001 sec (=   5.483 min)  99.1 %
                             ****ORCA TERMINATED NORMALLY****
TOTAL RUN TIME: 0 days 0 hours 5 minutes 32 seconds 570 msec
