
                                 *****************
                                 * O   R   C   A *
                                 *****************

           --- An Ab Initio, DFT and Semiempirical electronic structure package ---

                  #######################################################
                  #                        -***-                        #
                  #          Department of theory and spectroscopy      #
                  #               Directorship: Frank Neese             #
                  #        Max Planck Institute fuer Kohlenforschung    #
                  #                Kaiser Wilhelm Platz 1               #
                  #                 D-45470 Muelheim/Ruhr               #
                  #                      Germany                        #
                  #                                                     #
                  #                  All rights reserved                #
                  #                        -***-                        #
                  #######################################################


                         Program Version 4.2.0 -  RELEASE  -


 With contributions from (in alphabetic order):
   Daniel Aravena         : Magnetic Suceptibility
   Michael Atanasov       : Ab Initio Ligand Field Theory (pilot matlab implementation)
   Alexander A. Auer      : GIAO ZORA, VPT2
   Ute Becker             : Parallelization
   Giovanni Bistoni       : ED, misc. LED, open-shell LED, HFLED
   Martin Brehm           : Molecular dynamics
   Dmytro Bykov           : SCF Hessian
   Vijay G. Chilkuri      : MRCI spin determinant printing, contributions to CSF-ICE
   Dipayan Datta          : RHF DLPNO-CCSD density
   Achintya Kumar Dutta   : EOM-CC, STEOM-CC
   Dmitry Ganyushin       : Spin-Orbit,Spin-Spin,Magnetic field MRCI
   Miquel Garcia          : C-PCM Hessian, Gaussian charge scheme
   Yang Guo               : DLPNO-NEVPT2, CIM, IAO-localization
   Andreas Hansen         : Spin unrestricted coupled pair/coupled cluster methods
   Benjamin Helmich-Paris : CASSCF linear response (MC-RPA)
   Lee Huntington         : MR-EOM, pCC
   Robert Izsak           : Overlap fitted RIJCOSX, COSX-SCS-MP3, EOM
   Christian Kollmar      : KDIIS, OOCD, Brueckner-CCSD(T), CCSD density
   Simone Kossmann        : Meta GGA functionals, TD-DFT gradient, OOMP2, MP2 Hessian
   Martin Krupicka        : AUTO-CI
   Lucas Lang             : DCDCAS
   Dagmar Lenk            : GEPOL surface, SMD
   Dimitrios Liakos       : Extrapolation schemes; Compound Job, initial MDCI parallelization
   Dimitrios Manganas     : Further ROCIS development; embedding schemes
   Dimitrios Pantazis     : SARC Basis sets
   Taras Petrenko         : DFT Hessian,TD-DFT gradient, ASA, ECA, R-Raman, ABS, FL, XAS/XES, NRVS
   Peter Pinski           : DLPNO-MP2, DLPNO-MP2 Gradient
   Christoph Reimann      : Effective Core Potentials
   Marius Retegan         : Local ZFS, SOC
   Christoph Riplinger    : Optimizer, TS searches, QM/MM, DLPNO-CCSD(T), (RO)-DLPNO pert. Triples
   Tobias Risthaus        : Range-separated hybrids, TD-DFT gradient, RPA, STAB
   Michael Roemelt        : Original ROCIS implementation
   Masaaki Saitow         : Open-shell DLPNO-CCSD energy and density
   Barbara Sandhoefer     : DKH picture change effects
   Avijit Sen             : IP-ROCIS
   Kantharuban Sivalingam : CASSCF convergence, NEVPT2, FIC-MRCI
   Bernardo de Souza      : ESD, SOC TD-DFT
   Georgi Stoychev        : AutoAux, RI-MP2 NMR
   Willem Van den Heuvel  : Paramagnetic NMR
   Boris Wezisla          : Elementary symmetry handling
   Frank Wennmohs         : Technical directorship


 We gratefully acknowledge several colleagues who have allowed us to
 interface, adapt or use parts of their codes:
   Stefan Grimme, W. Hujo, H. Kruse,             : VdW corrections, initial TS optimization,
                  C. Bannwarth                     DFT functionals, gCP, sTDA/sTD-DF
   Ed Valeev, F. Pavosevic, A. Kumar             : LibInt (2-el integral package), F12 methods
   Garnet Chan, S. Sharma, J. Yang, R. Olivares  : DMRG
   Ulf Ekstrom                                   : XCFun DFT Library
   Mihaly Kallay                                 : mrcc  (arbitrary order and MRCC methods)
   Andreas Klamt, Michael Diedenhofen            : otool_cosmo (COSMO solvation model)
   Jiri Pittner, Ondrej Demel                    : Mk-CCSD
   Frank Weinhold                                : gennbo (NPA and NBO analysis)
   Christopher J. Cramer and Donald G. Truhlar   : smd solvation model
   Lars Goerigk                                  : TD-DFT with DH, B97 family of functionals
   V. Asgeirsson, H. Jonsson                     : NEB implementation
   FAccTs GmbH                                   : IRC, NEB, NEB-TS, Multilevel, MM, QM/MM, CI optimization
   S Lehtola, MJT Oliveira, MAL Marques          : LibXC Library


 Your calculation uses the libint2 library for the computation of 2-el integrals
 For citations please refer to: http://libint.valeyev.net

 Your ORCA version has been built with support for libXC version: 4.2.3
 For citations please refer to: https://tddft.org/programs/libxc/

 This ORCA versions uses:
   CBLAS   interface :  Fast vector & matrix operations
   LAPACKE interface :  Fast linear algebra routines
   SCALAPACK package :  Parallel linear algebra routines


Your calculation utilizes the DFT-NL dispersion correction.
Cite in your paper:
Vydrov, O. A.; Van Voorhis, T. J. Chem. Phys. 2010, 133, 244103
Hujo, W.; Grimme, S. J. Chem. Theory Comput. 2011, 7, 3866 
   

----- Orbital basis set information -----
Your calculation utilizes the basis: aug-cc-pVTZ 
    H, B-Ne : Obtained from the ccRepo (grant-hill.group.shef.ac.uk/ccrepo) Feb. 2017
              R. A. Kendall, T. H. Dunning, Jr., R. J. Harrison, J. Chem. Phys. 96, 6796 (1992)
         He : Obtained from the ccRepo (grant-hill.group.shef.ac.uk/ccrepo) Feb. 2017
              D. E. Woon, T. H. Dunning, Jr., J. Chem. Phys. 100, 2975 (1994)
  Li-Be, Na : Obtained from the ccRepo (grant-hill.group.shef.ac.uk/ccrepo) Feb. 2017
              B. P. Prascher, D. E. Woon, K. A. Peterson, T. H. Dunning, Jr., A. K. Wilson, Theor. Chem. Acc. 128, 69 (2011)
         Mg : Obtained from the Peterson Research Group Website (tyr0.chem.wsu.edu/~kipeters) Feb. 2017
              B. P. Prascher, D. E. Woon, K. A. Peterson, T. H. Dunning, Jr., A. K. Wilson, Theor. Chem. Acc. 128, 69 (2011)
      Al-Ar : Obtained from the ccRepo (grant-hill.group.shef.ac.uk/ccrepo) Feb. 2017
              D. E. Woon, T. H. Dunning, Jr., J. Chem. Phys. 98, 1358 (1993)
      Sc-Zn : Obtained from the ccRepo (grant-hill.group.shef.ac.uk/ccrepo) Feb. 2017
              N. B. Balabanov, K. A. Peterson, J. Chem. Phys. 123, 064107 (2005)
              N. B. Balabanov, K. A. Peterson, J. Chem. Phys. 125, 074110 (2006)
      Ga-Kr : Obtained from the ccRepo (grant-hill.group.shef.ac.uk/ccrepo) Feb. 2017
              A. K. Wilson, D. E. Woon, K. A. Peterson, T. H. Dunning, Jr., J. Chem. Phys. 110, 7667 (1999)
     Ag, Au : Obtained from the Peterson Research Group Website (tyr0.chem.wsu.edu/~kipeters) Feb. 2017
              K. A. Peterson, C. Puzzarini, Theor. Chem. Acc. 114, 283 (2005)

----- AuxJK basis set information -----
Your calculation utilizes the auxiliary basis: def2/JK
   H-Ba, Hf-Rn: F. Weigend, J. Comput. Chem. 29, 167 (2008).

================================================================================
                                        WARNINGS
                       Please study these warnings very carefully!
================================================================================


WARNING: your system is open-shell and RHF/RKS was chosen
  ===> : WILL SWITCH to UHF/UKS


INFO   : the flag for use of LIBINT has been found!

================================================================================
                                       INPUT FILE
================================================================================
NAME = 27_MnCl.in
|  1> #
|  2> # 27_MnCl wb97x-v/aug-cc-pvtz
|  3> #
|  4> ! wb97x-v aug-cc-pvtz def2/jk grid4 nofinalgrid
|  5> 
|  6> *xyz 0 7
|  7>   Mn  0.00000000000000      0.00000000000000     -0.11585879372688
|  8>   Cl  0.00000000000000      0.00000000000000      2.11585879372688
|  9> *
| 10> 
| 11> %pal
| 12> nprocs 24
| 13> end
| 14> 
| 15> 
| 16>                          ****END OF INPUT****
================================================================================

                       ****************************
                       * Single Point Calculation *
                       ****************************

---------------------------------
CARTESIAN COORDINATES (ANGSTROEM)
---------------------------------
  Mn     0.000000    0.000000   -0.115859
  Cl     0.000000    0.000000    2.115859

----------------------------
CARTESIAN COORDINATES (A.U.)
----------------------------
  NO LB      ZA    FRAG     MASS         X           Y           Z
   0 Mn   25.0000    0    54.940    0.000000    0.000000   -0.218941
   1 Cl   17.0000    0    35.453    0.000000    0.000000    3.998394

--------------------------------
INTERNAL COORDINATES (ANGSTROEM)
--------------------------------
 Mn     0   0   0     0.000000000000     0.00000000     0.00000000
 Cl     1   0   0     2.231717587454     0.00000000     0.00000000

---------------------------
INTERNAL COORDINATES (A.U.)
---------------------------
 Mn     0   0   0     0.000000000000     0.00000000     0.00000000
 Cl     1   0   0     4.217335048543     0.00000000     0.00000000

---------------------
BASIS SET INFORMATION
---------------------
There are 2 groups of distinct atoms

 Group   1 Type Mn  : 116s77p23d3f2g contracted to 8s7p5d3f2g pattern {19191919191911/151515151511/77711/111/11}
 Group   2 Type Cl  : 42s17p3d2f contracted to 6s5p3d2f pattern {131313111/77111/111/11}

Atom   0Mn   basis set group =>   1
Atom   1Cl   basis set group =>   2
----------------------------------
AUXILIARY/JK BASIS SET INFORMATION
----------------------------------
There are 2 groups of distinct atoms

 Group   1 Type Mn  : 19s14p12d10f7g3h1i contracted to 16s13p11d9f5g3h1i pattern {4111111111111111/2111111111111/21111111111/211111111/31111/111/1}
 Group   2 Type Cl  : 16s12p10d4f1g contracted to 13s11p9d4f1g pattern {4111111111111/21111111111/211111111/1111/1}

Atom   0Mn   basis set group =>   1
Atom   1Cl   basis set group =>   2


           ************************************************************
           *        Program running with 24 parallel MPI-processes    *
           *              working on a common directory               *
           ************************************************************
------------------------------------------------------------------------------
                           ORCA GTO INTEGRAL CALCULATION
------------------------------------------------------------------------------

                         BASIS SET STATISTICS AND STARTUP INFO

 # of primitive gaussian shells          ...  285
 # of primitive gaussian functions       ...  623
 # of contracted shells                  ...   41
 # of contracted basis functions         ...  143
 Highest angular momentum                ...    4
 Maximum contraction depth               ...   19
 Integral package used                   ... LIBINT
 Integral threshhold            Thresh   ...  1.000e-10
 Primitive cut-off              TCut     ...  1.000e-11


------------------------------ INTEGRAL EVALUATION ----------------------------


 * One electron integrals 
 Pre-screening matrix                    ... done
 Shell pair data                         ... done (   0.001 sec)



           ************************************************************
           *        Program running with 24 parallel MPI-processes    *
           *              working on a common directory               *
           ************************************************************
-------------------------------------------------------------------------------
                                 ORCA SCF
-------------------------------------------------------------------------------

------------
SCF SETTINGS
------------
Hamiltonian:
 Density Functional     Method          .... DFT(GTOs)
 Exchange Functional    Exchange        .... WB97X-V
 Correlation Functional Correlation     .... WB97X-V
 Gradients option       PostSCFGGA      .... off
 Hybrid DFT is turned on
   Fraction HF Exchange ScalHFX         ....  0.167000
   Scaling of DF-GGA-X  ScalDFX         ....  0.000000
   Scaling of DF-GGA-C  ScalDFC         ....  1.000000
   Scaling of DF-LDA-C  ScalLDAC        ....  1.000000
   Perturbative correction              ....  0.000000
   Density functional embedding theory  .... OFF
 Long-range corrected/Screened/Range-Separated Hybrid DFT is turned on
   Amount of maximum screened exact exchange              ....  0.833000
   Range separation parameter mu (erf(mu*r12)/r12)        ....  0.300000
   NL short-range parameter             ....  6.000000
   NL long-range parameter              ....  0.010000


General Settings:
 Integral files         IntName         .... 27_MnCl
 Hartree-Fock type      HFTyp           .... UHF
 Total Charge           Charge          ....    0
 Multiplicity           Mult            ....    7
 Number of Electrons    NEL             ....   42
 Basis Dimension        Dim             ....  143
 Nuclear Repulsion      ENuc            ....    100.7745401084 Eh

Convergence Acceleration:
 DIIS                   CNVDIIS         .... on
   Start iteration      DIISMaxIt       ....    12
   Startup error        DIISStart       ....  0.200000
   # of expansion vecs  DIISMaxEq       ....     5
   Bias factor          DIISBfac        ....   1.050
   Max. coefficient     DIISMaxC        ....  10.000
 Newton-Raphson         CNVNR           .... off
 SOSCF                  CNVSOSCF        .... off
 Level Shifting         CNVShift        .... on
   Level shift para.    LevelShift      ....    0.2500
   Turn off err/grad.   ShiftErr        ....    0.0010
 Zerner damping         CNVZerner       .... off
 Static damping         CNVDamp         .... on
   Fraction old density DampFac         ....    0.7000
   Max. Damping (<1)    DampMax         ....    0.9800
   Min. Damping (>=0)   DampMin         ....    0.0000
   Turn off err/grad.   DampErr         ....    0.1000
 Fernandez-Rico         CNVRico         .... off

SCF Procedure:
 Maximum # iterations   MaxIter         ....   125
 SCF integral mode      SCFMode         .... Direct
   Integral package                     .... LIBINT
 Reset frequency        DirectResetFreq ....    20
 Integral Threshold     Thresh          ....  1.000e-10 Eh
 Primitive CutOff       TCut            ....  1.000e-11 Eh

Convergence Tolerance:
 Convergence Check Mode ConvCheckMode   .... Total+1el-Energy
 Convergence forced     ConvForced      .... 0
 Energy Change          TolE            ....  1.000e-06 Eh
 1-El. energy change                    ....  1.000e-03 Eh
 DIIS Error             TolErr          ....  1.000e-06


Diagonalization of the overlap matrix:
Smallest eigenvalue                        ... 8.475e-05
Time for diagonalization                   ...    0.005 sec
Threshold for overlap eigenvalues          ... 1.000e-08
Number of eigenvalues below threshold      ... 0
Time for construction of square roots      ...    0.003 sec
Total time needed                          ...    0.008 sec

-------------------
DFT GRID GENERATION
-------------------

General Integration Accuracy     IntAcc      ...  4.670
Radial Grid Type                 RadialGrid  ... Gauss-Chebyshev
Angular Grid (max. acc.)         AngularGrid ... Lebedev-302
Angular grid pruning method      GridPruning ... 3 (G Style)
Weight generation scheme         WeightScheme... Becke
Basis function cutoff            BFCut       ...    1.0000e-10
Integration weight cutoff        WCut        ...    1.0000e-14
Grids for H and He will be reduced by one unit

# of grid points (after initial pruning)     ...  16402 (   0.0 sec)
# of grid points (after weights+screening)   ...  16375 (   0.0 sec)
nearest neighbour list constructed           ...    0.0 sec
Grid point re-assignment to atoms done       ...    0.0 sec
Grid point division into batches done        ...    0.1 sec
Reduced shell lists constructed in    0.1 sec

Total number of grid points                  ...    16375
Total number of batches                      ...      257
Average number of points per batch           ...       63
Average number of grid points per atom       ...     8188
Average number of shells per batch           ...    14.75 (35.98%)
Average number of basis functions per batch  ...    35.42 (24.77%)
Average number of large shells per batch     ...     8.08 (54.80%)
Average number of large basis fcns per batch ...    20.08 (56.71%)
Maximum spatial batch extension              ...  24.49, 24.19, 18.13 au
Average spatial batch extension              ...   0.85,  0.83,  0.66 au

Time for grid setup =    0.154 sec

------------------------------
INITIAL GUESS: MODEL POTENTIAL
------------------------------
Loading Hartree-Fock densities                     ... done
Calculating cut-offs                               ... done
Setting up the integral package                    ... done
Initializing the effective Hamiltonian             ... done
Starting the Coulomb interaction                   ... done (   0.0 sec)
Reading the grid                                   ... done
Mapping shells                                     ... done
Starting the XC term evaluation                    ... done (   0.0 sec)
  promolecular density results
     # of electrons  =     41.999983765
     EX              =    -59.076450689
     EC              =     -2.344462530
     EX+EC           =    -61.420913220
Transforming the Hamiltonian                       ... done (   0.0 sec)
Diagonalizing the Hamiltonian                      ... done (   0.0 sec)
Back transforming the eigenvectors                 ... done (   0.0 sec)
Now organizing SCF variables                       ... done
                      ------------------
                      INITIAL GUESS DONE (   0.3 sec)
                      ------------------
--------------
SCF ITERATIONS
--------------
ITER       Energy         Delta-E        Max-DP      RMS-DP      [F,P]     Damp
               ***  Starting incremental Fock matrix formation  ***
  0  -1604.4962405203   0.000000000000 3.31020345  0.04931225  1.2834348 0.7000
  1  -1607.8003338846  -3.304093364233 2.35453944  0.02272108  0.3448118 0.7000
  2  -1608.6303131874  -0.829979302880 1.67593593  0.01681208  0.4434670 0.7000
  3  -1609.4377817940  -0.807468606543 1.17642141  0.01195637  0.2634162 0.7000
                               ***Turning on DIIS***
  4  -1609.9607177994  -0.522936005429 0.82299092  0.00829590  0.1402906 0.7000
  5  -1610.3237348787  -0.363017079249 1.91927760  0.01926516  0.0797163 0.0000
  6  -1611.2201439091  -0.896409030454 0.15238325  0.00166426  0.0589220 0.0000
  7  -1611.2383594611  -0.018215551936 0.10935351  0.00115961  0.0185027 0.0000
  8  -1611.2427523867  -0.004392925614 0.07095098  0.00077962  0.0129561 0.0000
  9  -1611.2453442301  -0.002591843401 0.04271390  0.00042557  0.0062381 0.0000
 10  -1611.2462217228  -0.000877492764 0.01637543  0.00016028  0.0032310 0.0000
 11  -1611.2464319457  -0.000210222862 0.00949534  0.00008077  0.0017438 0.0000
 12  -1611.2464921979  -0.000060252210 0.00700802  0.00005199  0.0009015 0.0000
 13  -1611.2465090416  -0.000016843726 0.00089297  0.00001019  0.0001765 0.0000
 14  -1611.2465096287  -0.000000587072 0.00033312  0.00000360  0.0000684 0.0000
                 **** Energy Check signals convergence ****

               *****************************************************
               *                     SUCCESS                       *
               *           SCF CONVERGED AFTER  15 CYCLES          *
               *****************************************************


Setting up the DFT-NL grid :

General Integration Accuracy     IntAcc      ...  4.340
Radial Grid Type                 RadialGrid  ... Gauss-Chebyshev
Angular Grid (max. acc.)         AngularGrid ... Lebedev-110
Angular grid pruning method      GridPruning ... 3 (G Style)
Weight generation scheme         WeightScheme... Becke
Basis function cutoff            BFCut       ...    1.0000e-10
Integration weight cutoff        WCut        ...    1.0000e-14
Grids for H and He will be reduced by one unit

# of grid points (after initial pruning)     ...   4756 (   0.0 sec)
# of grid points (after weights+screening)   ...   4731 (   0.0 sec)
nearest neighbour list constructed           ...    0.0 sec
Grid point re-assignment to atoms done       ...    0.0 sec
Grid point division into batches done        ...    0.0 sec
Reduced shell lists constructed in    0.0 sec

Total number of grid points                  ...     4731
Total number of batches                      ...       75
Average number of points per batch           ...       63
Average number of grid points per atom       ...     2366
Average number of shells per batch           ...    22.40 (54.63%)
Average number of basis functions per batch  ...    68.80 (48.11%)
Average number of large shells per batch     ...    17.20 (76.79%)
Average number of large basis fcns per batch ...    49.20 (71.51%)
Maximum spatial batch extension              ...  18.98, 28.73, 16.15 au
Average spatial batch extension              ...   0.95,  1.29,  0.86 au

Final grid set up in    0.0 sec

-------------------------------------------------------------------------------
                         DFT-NL dispersion correction                          
-------------------------------------------------------------------------------

SC Energy -1611.246509723 
NL    Energy 0.176035367 
SC+NL Energy -1611.070474356 
NL done in    0.0 sec
-------------------------------------------------------------------------------

----------------
TOTAL SCF ENERGY
----------------

Total Energy       :        -1611.07047436 Eh          -43839.45636 eV

Components:
Nuclear Repulsion  :          100.77454011 Eh            2742.21465 eV
Electronic Energy  :        -1711.84501446 Eh          -46581.67101 eV
One Electron Energy:        -2422.27659426 Eh          -65913.49711 eV
Two Electron Energy:          710.43157980 Eh           19331.82610 eV

Virial components:
Potential Energy   :        -3219.60692784 Eh          -87609.95851 eV
Kinetic Energy     :         1608.53645348 Eh           43770.50215 eV
Virial Ratio       :            2.00157536


DFT components:
N(Alpha)           :       24.000001228915 electrons
N(Beta)            :       18.000000609906 electrons
N(Total)           :       42.000001838822 electrons
E(X)               :      -59.308182903330 Eh       
E(C)               :       -2.284090563485 Eh       
NL Energy, E(C,NL) :        0.176035367462 Eh       
E(XC)              :      -61.416238099353 Eh       
DFET-embed. en.    :        0.000000000000 Eh       

---------------
SCF CONVERGENCE
---------------

  Last Energy change         ...   -9.4652e-08  Tolerance :   1.0000e-06
  Last MAX-Density change    ...    5.0946e-05  Tolerance :   1.0000e-05
  Last RMS-Density change    ...    1.0756e-06  Tolerance :   1.0000e-06
  Last DIIS Error            ...    2.2164e-05  Tolerance :   1.0000e-06

             **** THE GBW FILE WAS UPDATED (27_MnCl.gbw) ****
             **** DENSITY FILE WAS UPDATED (27_MnCl.scfp) ****
             **** ENERGY FILE WAS UPDATED (27_MnCl.en.tmp) ****
----------------------
UHF SPIN CONTAMINATION
----------------------

Warning: in a DFT calculation there is little theoretical justification to 
         calculate <S**2> as in Hartree-Fock theory. We will do it anyways
         but you should keep in mind that the values have only limited relevance

Expectation value of <S**2>     :    12.002024
Ideal value S*(S+1) for S=3.0   :    12.000000
Deviation                       :     0.002024

             **** THE GBW FILE WAS UPDATED (27_MnCl.gbw) ****
             **** DENSITY FILE WAS UPDATED (27_MnCl.scfp) ****
----------------
ORBITAL ENERGIES
----------------
                 SPIN UP ORBITALS
  NO   OCC          E(Eh)            E(eV) 
   0   1.0000    -235.446640     -6406.8288 
   1   1.0000    -101.507709     -2762.1652 
   2   1.0000     -27.472737      -747.5712 
   3   1.0000     -23.536310      -640.4556 
   4   1.0000     -23.536310      -640.4556 
   5   1.0000     -23.533688      -640.3842 
   6   1.0000      -9.524196      -259.1666 
   7   1.0000      -7.275602      -197.9792 
   8   1.0000      -7.273668      -197.9266 
   9   1.0000      -7.273668      -197.9266 
  10   1.0000      -3.456612       -94.0592 
  11   1.0000      -2.324370       -63.2493 
  12   1.0000      -2.324370       -63.2493 
  13   1.0000      -2.317364       -63.0587 
  14   1.0000      -0.905913       -24.6511 
  15   1.0000      -0.528613       -14.3843 
  16   1.0000      -0.515799       -14.0356 
  17   1.0000      -0.515799       -14.0356 
  18   1.0000      -0.512875       -13.9560 
  19   1.0000      -0.512873       -13.9560 
  20   1.0000      -0.429190       -11.6789 
  21   1.0000      -0.401267       -10.9190 
  22   1.0000      -0.401267       -10.9190 
  23   1.0000      -0.285518        -7.7693 
  24   0.0000       0.007912         0.2153 
  25   0.0000       0.007912         0.2153 
  26   0.0000       0.022119         0.6019 
  27   0.0000       0.029126         0.7925 
  28   0.0000       0.048783         1.3275 
  29   0.0000       0.048783         1.3275 
  30   0.0000       0.080845         2.1999 
  31   0.0000       0.080845         2.1999 
  32   0.0000       0.082169         2.2359 
  33   0.0000       0.090674         2.4674 
  34   0.0000       0.090674         2.4674 
  35   0.0000       0.097598         2.6558 
  36   0.0000       0.131865         3.5882 
  37   0.0000       0.163523         4.4497 
  38   0.0000       0.169578         4.6145 
  39   0.0000       0.169578         4.6145 
  40   0.0000       0.205229         5.5846 
  41   0.0000       0.205229         5.5846 
  42   0.0000       0.239079         6.5057 
  43   0.0000       0.271482         7.3874 
  44   0.0000       0.271483         7.3874 
  45   0.0000       0.290353         7.9009 
  46   0.0000       0.290353         7.9009 
  47   0.0000       0.297496         8.0953 
  48   0.0000       0.353031         9.6065 
  49   0.0000       0.353032         9.6065 
  50   0.0000       0.380122        10.3436 
  51   0.0000       0.436266        11.8714 
  52   0.0000       0.436266        11.8714 
  53   0.0000       0.453073        12.3288 
  54   0.0000       0.529125        14.3982 
  55   0.0000       0.668428        18.1889 
  56   0.0000       0.668428        18.1889 
  57   0.0000       0.722958        19.6727 
  58   0.0000       0.722958        19.6727 
  59   0.0000       0.732886        19.9429 
  60   0.0000       0.732886        19.9429 
  61   0.0000       0.743308        20.2264 
  62   0.0000       0.768450        20.9106 
  63   0.0000       0.768450        20.9106 
  64   0.0000       0.854955        23.2645 
  65   0.0000       0.854956        23.2645 
  66   0.0000       0.856744        23.3132 
  67   0.0000       0.856744        23.3132 
  68   0.0000       0.862453        23.4685 
  69   0.0000       0.914750        24.8916 
  70   0.0000       0.914750        24.8916 
  71   0.0000       0.920330        25.0435 
  72   0.0000       0.973671        26.4949 
  73   0.0000       0.980253        26.6740 
  74   0.0000       0.980256        26.6741 
  75   0.0000       1.059354        28.8265 
  76   0.0000       1.059354        28.8265 
  77   0.0000       1.118393        30.4330 
  78   0.0000       1.126448        30.6522 
  79   0.0000       1.126448        30.6522 
  80   0.0000       1.260101        34.2891 
  81   0.0000       1.260104        34.2892 
  82   0.0000       1.403103        38.1804 
  83   0.0000       1.583137        43.0794 
  84   0.0000       1.583137        43.0794 
  85   0.0000       1.903999        51.8104 
  86   0.0000       2.199568        59.8533 
  87   0.0000       2.199568        59.8533 
  88   0.0000       2.232814        60.7579 
  89   0.0000       2.232817        60.7580 
  90   0.0000       2.238794        60.9207 
  91   0.0000       2.238794        60.9207 
  92   0.0000       2.280475        62.0549 
  93   0.0000       2.338046        63.6215 
  94   0.0000       2.338113        63.6233 
  95   0.0000       2.460261        66.9471 
  96   0.0000       2.460261        66.9471 
  97   0.0000       2.490024        67.7570 
  98   0.0000       2.516339        68.4731 
  99   0.0000       2.516339        68.4731 
 100   0.0000       2.610703        71.0408 
 101   0.0000       2.682319        72.9896 
 102   0.0000       2.682319        72.9896 
 103   0.0000       2.694010        73.3077 
 104   0.0000       2.694133        73.3111 
 105   0.0000       2.698794        73.4379 
 106   0.0000       2.698794        73.4379 
 107   0.0000       2.747151        74.7538 
 108   0.0000       2.787408        75.8492 
 109   0.0000       2.787415        75.8494 
 110   0.0000       2.863051        77.9076 
 111   0.0000       2.877628        78.3042 
 112   0.0000       2.877628        78.3042 
 113   0.0000       2.906709        79.0956 
 114   0.0000       2.906709        79.0956 
 115   0.0000       2.944620        80.1272 
 116   0.0000       2.944624        80.1273 
 117   0.0000       3.112490        84.6952 
 118   0.0000       3.184887        86.6652 
 119   0.0000       3.184887        86.6652 
 120   0.0000       3.603936        98.0681 
 121   0.0000       3.863869       105.1412 
 122   0.0000       3.863883       105.1416 
 123   0.0000       4.091949       111.3476 
 124   0.0000       4.091949       111.3476 
 125   0.0000       4.922353       133.9440 
 126   0.0000       6.091329       165.7535 
 127   0.0000       7.406335       201.5366 
 128   0.0000       7.406335       201.5366 
 129   0.0000       7.426283       202.0794 
 130   0.0000       7.426372       202.0818 
 131   0.0000       7.470479       203.2821 
 132   0.0000       7.470479       203.2821 
 133   0.0000       7.603320       206.8969 
 134   0.0000       7.925903       215.6748 
 135   0.0000       7.926073       215.6794 
 136   0.0000       7.934686       215.9138 
 137   0.0000       7.934686       215.9138 
 138   0.0000       7.976084       217.0403 
 139   0.0000       7.976131       217.0416 
 140   0.0000       8.094457       220.2614 
 141   0.0000       8.094457       220.2614 
 142   0.0000       8.216315       223.5773 

                 SPIN DOWN ORBITALS
  NO   OCC          E(Eh)            E(eV) 
   0   1.0000    -235.444471     -6406.7698 
   1   1.0000    -101.506783     -2762.1400 
   2   1.0000     -27.390371      -745.3299 
   3   1.0000     -23.469110      -638.6269 
   4   1.0000     -23.469110      -638.6269 
   5   1.0000     -23.466955      -638.5683 
   6   1.0000      -9.523307      -259.1424 
   7   1.0000      -7.273949      -197.9342 
   8   1.0000      -7.272460      -197.8937 
   9   1.0000      -7.272460      -197.8937 
  10   1.0000      -3.247747       -88.3757 
  11   1.0000      -2.097340       -57.0715 
  12   1.0000      -2.097340       -57.0715 
  13   1.0000      -2.090790       -56.8933 
  14   1.0000      -0.897983       -24.4354 
  15   1.0000      -0.449538       -12.2325 
  16   1.0000      -0.409766       -11.1503 
  17   1.0000      -0.409766       -11.1503 
  18   0.0000      -0.020357        -0.5539 
  19   0.0000       0.014961         0.4071 
  20   0.0000       0.014967         0.4073 
  21   0.0000       0.025890         0.7045 
  22   0.0000       0.025890         0.7045 
  23   0.0000       0.029188         0.7942 
  24   0.0000       0.030964         0.8426 
  25   0.0000       0.030964         0.8426 
  26   0.0000       0.036475         0.9925 
  27   0.0000       0.058991         1.6052 
  28   0.0000       0.086084         2.3425 
  29   0.0000       0.086084         2.3425 
  30   0.0000       0.096551         2.6273 
  31   0.0000       0.096551         2.6273 
  32   0.0000       0.101966         2.7746 
  33   0.0000       0.104395         2.8407 
  34   0.0000       0.104395         2.8407 
  35   0.0000       0.120097         3.2680 
  36   0.0000       0.169989         4.6256 
  37   0.0000       0.175214         4.7678 
  38   0.0000       0.175214         4.7678 
  39   0.0000       0.176302         4.7974 
  40   0.0000       0.241592         6.5741 
  41   0.0000       0.241592         6.5741 
  42   0.0000       0.299064         8.1380 
  43   0.0000       0.303358         8.2548 
  44   0.0000       0.303360         8.2548 
  45   0.0000       0.311583         8.4786 
  46   0.0000       0.351310         9.5596 
  47   0.0000       0.351310         9.5596 
  48   0.0000       0.370578        10.0840 
  49   0.0000       0.370579        10.0840 
  50   0.0000       0.418993        11.4014 
  51   0.0000       0.448355        12.2004 
  52   0.0000       0.448355        12.2004 
  53   0.0000       0.468816        12.7571 
  54   0.0000       0.583256        15.8712 
  55   0.0000       0.676478        18.4079 
  56   0.0000       0.676478        18.4079 
  57   0.0000       0.761164        20.7123 
  58   0.0000       0.761164        20.7123 
  59   0.0000       0.778231        21.1767 
  60   0.0000       0.778231        21.1767 
  61   0.0000       0.781810        21.2741 
  62   0.0000       0.813551        22.1379 
  63   0.0000       0.813557        22.1380 
  64   0.0000       0.860022        23.4024 
  65   0.0000       0.860024        23.4024 
  66   0.0000       0.874882        23.8068 
  67   0.0000       0.874882        23.8068 
  68   0.0000       0.882025        24.0011 
  69   0.0000       0.972830        26.4720 
  70   0.0000       1.009745        27.4765 
  71   0.0000       1.009745        27.4765 
  72   0.0000       1.036847        28.2140 
  73   0.0000       1.070466        29.1289 
  74   0.0000       1.070472        29.1290 
  75   0.0000       1.097006        29.8511 
  76   0.0000       1.097006        29.8511 
  77   0.0000       1.128978        30.7210 
  78   0.0000       1.128978        30.7210 
  79   0.0000       1.133528        30.8449 
  80   0.0000       1.272347        34.6223 
  81   0.0000       1.272348        34.6224 
  82   0.0000       1.437451        39.1150 
  83   0.0000       1.614105        43.9220 
  84   0.0000       1.614105        43.9220 
  85   0.0000       1.934918        52.6518 
  86   0.0000       2.299761        62.5797 
  87   0.0000       2.299761        62.5797 
  88   0.0000       2.302620        62.6575 
  89   0.0000       2.302620        62.6575 
  90   0.0000       2.313607        62.9565 
  91   0.0000       2.313649        62.9576 
  92   0.0000       2.362013        64.2736 
  93   0.0000       2.364221        64.3337 
  94   0.0000       2.364262        64.3348 
  95   0.0000       2.489248        67.7359 
  96   0.0000       2.489248        67.7359 
  97   0.0000       2.502781        68.1041 
  98   0.0000       2.543478        69.2116 
  99   0.0000       2.543478        69.2116 
 100   0.0000       2.737301        74.4858 
 101   0.0000       2.754959        74.9662 
 102   0.0000       2.754998        74.9673 
 103   0.0000       2.757240        75.0283 
 104   0.0000       2.757240        75.0283 
 105   0.0000       2.786243        75.8175 
 106   0.0000       2.786243        75.8175 
 107   0.0000       2.802650        76.2640 
 108   0.0000       2.837350        77.2082 
 109   0.0000       2.837355        77.2084 
 110   0.0000       2.885520        78.5190 
 111   0.0000       2.885520        78.5190 
 112   0.0000       2.933653        79.8288 
 113   0.0000       2.940192        80.0067 
 114   0.0000       2.940192        80.0067 
 115   0.0000       2.957907        80.4887 
 116   0.0000       2.957912        80.4889 
 117   0.0000       3.138371        85.3994 
 118   0.0000       3.224546        87.7444 
 119   0.0000       3.224546        87.7444 
 120   0.0000       3.685924       100.2991 
 121   0.0000       4.013861       109.2227 
 122   0.0000       4.013865       109.2228 
 123   0.0000       4.233620       115.2027 
 124   0.0000       4.233620       115.2027 
 125   0.0000       5.022816       136.6778 
 126   0.0000       6.108382       166.2175 
 127   0.0000       7.588467       206.4927 
 128   0.0000       7.588467       206.4927 
 129   0.0000       7.610386       207.0891 
 130   0.0000       7.610462       207.0912 
 131   0.0000       7.653271       208.2561 
 132   0.0000       7.653271       208.2561 
 133   0.0000       7.779553       211.6924 
 134   0.0000       8.061546       219.3658 
 135   0.0000       8.061684       219.3696 
 136   0.0000       8.070340       219.6051 
 137   0.0000       8.070340       219.6051 
 138   0.0000       8.109759       220.6778 
 139   0.0000       8.109804       220.6790 
 140   0.0000       8.225903       223.8382 
 141   0.0000       8.225903       223.8382 
 142   0.0000       8.347221       227.1394 

                    ********************************
                    * MULLIKEN POPULATION ANALYSIS *
                    ********************************

--------------------------------------------
MULLIKEN ATOMIC CHARGES AND SPIN POPULATIONS
--------------------------------------------
   0 Mn:    0.487154    5.871145
   1 Cl:   -0.487154    0.128855
Sum of atomic charges         :   -0.0000000
Sum of atomic spin populations:    6.0000000

-----------------------------------------------------
MULLIKEN REDUCED ORBITAL CHARGES AND SPIN POPULATIONS
-----------------------------------------------------
CHARGE
  0 Mns       :     6.945195  s :     6.945195
      pz      :     4.327266  p :    12.406023
      px      :     4.039378
      py      :     4.039378
      dz2     :     1.059020  d :     5.140094
      dxz     :     1.040832
      dyz     :     1.040832
      dx2y2   :     0.999704
      dxy     :     0.999704
      f0      :     0.006684  f :     0.020639
      f+1     :     0.006972
      f-1     :     0.006972
      f+2     :     0.000005
      f-2     :     0.000005
      f+3     :     0.000000
      f-3     :     0.000000
      g0      :     0.000344  g :     0.000896
      g+1     :     0.000275
      g-1     :     0.000275
      g+2     :     0.000001
      g-2     :     0.000001
      g+3     :     0.000000
      g-3     :     0.000000
      g+4     :     0.000000
      g-4     :     0.000000
  1 Cls       :     5.954704  s :     5.954704
      pz      :     3.700644  p :    11.510298
      px      :     3.904827
      py      :     3.904827
      dz2     :     0.006151  d :     0.020579
      dxz     :     0.007034
      dyz     :     0.007034
      dx2y2   :     0.000179
      dxy     :     0.000179
      f0      :    -0.000009  f :     0.001573
      f+1     :     0.000681
      f-1     :     0.000681
      f+2     :     0.000110
      f-2     :     0.000110
      f+3     :     0.000000
      f-3     :     0.000000

SPIN
  0 Mns       :     0.784005  s :     0.784005
      pz      :     0.221722  p :     0.236664
      px      :     0.007471
      py      :     0.007471
      dz2     :     0.927544  d :     4.852294
      dxz     :     0.962671
      dyz     :     0.962671
      dx2y2   :     0.999704
      dxy     :     0.999704
      f0      :    -0.000010  f :    -0.001781
      f+1     :    -0.000891
      f-1     :    -0.000891
      f+2     :     0.000005
      f-2     :     0.000005
      f+3     :     0.000000
      f-3     :     0.000000
      g0      :    -0.000024  g :    -0.000037
      g+1     :    -0.000007
      g-1     :    -0.000007
      g+2     :     0.000001
      g-2     :     0.000001
      g+3     :    -0.000000
      g-3     :    -0.000000
      g+4     :     0.000000
      g-4     :     0.000000
  1 Cls       :     0.010963  s :     0.010963
      pz      :     0.054314  p :     0.116631
      px      :     0.031159
      py      :     0.031159
      dz2     :     0.001349  d :     0.000997
      dxz     :    -0.000356
      dyz     :    -0.000356
      dx2y2   :     0.000179
      dxy     :     0.000179
      f0      :     0.000137  f :     0.000264
      f+1     :    -0.000046
      f-1     :    -0.000046
      f+2     :     0.000110
      f-2     :     0.000110
      f+3     :     0.000000
      f-3     :     0.000000


                     *******************************
                     * LOEWDIN POPULATION ANALYSIS *
                     *******************************

-------------------------------------------
LOEWDIN ATOMIC CHARGES AND SPIN POPULATIONS
-------------------------------------------
   0 Mn:    0.117837    5.763599
   1 Cl:   -0.117837    0.236401

----------------------------------------------------
LOEWDIN REDUCED ORBITAL CHARGES AND SPIN POPULATIONS
----------------------------------------------------
CHARGE
  0 Mns       :     6.742340  s :     6.742340
      pz      :     4.493539  p :    12.619395
      px      :     4.062928
      py      :     4.062928
      dz2     :     1.177972  d :     5.351614
      dxz     :     1.089125
      dyz     :     1.089125
      dx2y2   :     0.997696
      dxy     :     0.997696
      f0      :     0.063336  f :     0.160953
      f+1     :     0.048759
      f-1     :     0.048759
      f+2     :     0.000050
      f-2     :     0.000050
      f+3     :     0.000000
      f-3     :     0.000000
      g0      :     0.003826  g :     0.007861
      g+1     :     0.002012
      g-1     :     0.002012
      g+2     :     0.000006
      g-2     :     0.000006
      g+3     :     0.000000
      g-3     :     0.000000
      g+4     :     0.000000
      g-4     :     0.000000
  1 Cls       :     5.633980  s :     5.633980
      pz      :     3.743612  p :    11.257775
      px      :     3.757081
      py      :     3.757081
      dz2     :     0.103263  d :     0.153731
      dxz     :     0.024248
      dyz     :     0.024248
      dx2y2   :     0.000986
      dxy     :     0.000986
      f0      :     0.038131  f :     0.072351
      f+1     :     0.015848
      f-1     :     0.015848
      f+2     :     0.001262
      f-2     :     0.001262
      f+3     :     0.000000
      f-3     :     0.000000

SPIN
  0 Mns       :     0.666381  s :     0.666381
      pz      :     0.288059  p :     0.314796
      px      :     0.013368
      py      :     0.013368
      dz2     :     0.908090  d :     4.774636
      dxz     :     0.935577
      dyz     :     0.935577
      dx2y2   :     0.997696
      dxy     :     0.997696
      f0      :     0.003045  f :     0.007085
      f+1     :     0.001971
      f-1     :     0.001971
      f+2     :     0.000050
      f-2     :     0.000050
      f+3     :     0.000000
      f-3     :     0.000000
      g0      :     0.000313  g :     0.000701
      g+1     :     0.000188
      g-1     :     0.000188
      g+2     :     0.000006
      g-2     :     0.000006
      g+3     :    -0.000000
      g-3     :    -0.000000
      g+4     :     0.000000
      g-4     :     0.000000
  1 Cls       :     0.024737  s :     0.024737
      pz      :     0.087234  p :     0.140773
      px      :     0.026769
      py      :     0.026769
      dz2     :     0.017477  d :     0.042693
      dxz     :     0.011622
      dyz     :     0.011622
      dx2y2   :     0.000986
      dxy     :     0.000986
      f0      :     0.004664  f :     0.028198
      f+1     :     0.010505
      f-1     :     0.010505
      f+2     :     0.001262
      f-2     :     0.001262
      f+3     :     0.000000
      f-3     :     0.000000


                      *****************************
                      * MAYER POPULATION ANALYSIS *
                      *****************************

  NA   - Mulliken gross atomic population
  ZA   - Total nuclear charge
  QA   - Mulliken gross atomic charge
  VA   - Mayer's total valence
  BVA  - Mayer's bonded valence
  FA   - Mayer's free valence

  ATOM       NA         ZA         QA         VA         BVA        FA
  0 Mn    24.5128    25.0000     0.4872     6.6479     0.8859     5.7620
  1 Cl    17.4872    17.0000    -0.4872     0.8912     0.8859     0.0053

  Mayer bond orders larger than 0.100000
B(  0-Mn,  1-Cl) :   0.8859 

-------
TIMINGS
-------

Total SCF time: 0 days 0 hours 4 min 26 sec 

Total time                  ....     266.502 sec
Sum of individual times     ....     266.160 sec  ( 99.9%)

Fock matrix formation       ....     265.759 sec  ( 99.7%)
  XC integration            ....       0.405 sec  (  0.2% of F)
    Basis function eval.    ....       0.089 sec  ( 22.0% of XC)
    Density eval.           ....       0.045 sec  ( 11.1% of XC)
    XC-Functional eval.     ....       0.018 sec  (  4.5% of XC)
    XC-Potential eval.      ....       0.110 sec  ( 27.1% of XC)
Diagonalization             ....       0.085 sec  (  0.0%)
Density matrix formation    ....       0.011 sec  (  0.0%)
Population analysis         ....       0.007 sec  (  0.0%)
Initial guess               ....       0.101 sec  (  0.0%)
Orbital Transformation      ....       0.000 sec  (  0.0%)
Orbital Orthonormalization  ....       0.000 sec  (  0.0%)
DIIS solution               ....       0.027 sec  (  0.0%)
Grid generation             ....       0.170 sec  (  0.1%)

-------------------------   --------------------
FINAL SINGLE POINT ENERGY     -1611.070474355890
-------------------------   --------------------


                            ***************************************
                            *     ORCA property calculations      *
                            ***************************************

                                    ---------------------
                                    Active property flags
                                    ---------------------
   (+) Dipole Moment


------------------------------------------------------------------------------
                       ORCA ELECTRIC PROPERTIES CALCULATION
------------------------------------------------------------------------------

Dipole Moment Calculation                       ... on
Quadrupole Moment Calculation                   ... off
Polarizability Calculation                      ... off
GBWName                                         ... 27_MnCl.gbw
Electron density file                           ... 27_MnCl.scfp
The origin for moment calculation is the CENTER OF MASS  = ( 0.000000,  0.000000  1.435138)

-------------
DIPOLE MOMENT
-------------
                                X             Y             Z
Electronic contribution:     -0.00000      -0.00000      -3.31538
Nuclear contribution   :      0.00000       0.00000       2.22337
                        -----------------------------------------
Total Dipole Moment    :     -0.00000      -0.00000      -1.09201
                        -----------------------------------------
Magnitude (a.u.)       :      1.09201
Magnitude (Debye)      :      2.77566



--------------------
Rotational spectrum 
--------------------
 
Rotational constants in cm-1:     0.000000     0.157077     0.157077 
Rotational constants in MHz :     0.000000  4709.038991  4709.038991 

 Dipole components along the rotational axes: 
x,y,z [a.u.] :    -1.092008    -0.000000    -0.000000 
x,y,z [Debye]:    -2.775663    -0.000000    -0.000000 

 

Timings for individual modules:

Sum of individual times         ...      270.464 sec (=   4.508 min)
GTO integral calculation        ...        3.409 sec (=   0.057 min)   1.3 %
SCF iterations                  ...      267.056 sec (=   4.451 min)  98.7 %
                             ****ORCA TERMINATED NORMALLY****
TOTAL RUN TIME: 0 days 0 hours 4 minutes 31 seconds 73 msec
