
                                 *****************
                                 * O   R   C   A *
                                 *****************

           --- An Ab Initio, DFT and Semiempirical electronic structure package ---

                  #######################################################
                  #                        -***-                        #
                  #          Department of theory and spectroscopy      #
                  #               Directorship: Frank Neese             #
                  #        Max Planck Institute fuer Kohlenforschung    #
                  #                Kaiser Wilhelm Platz 1               #
                  #                 D-45470 Muelheim/Ruhr               #
                  #                      Germany                        #
                  #                                                     #
                  #                  All rights reserved                #
                  #                        -***-                        #
                  #######################################################


                         Program Version 4.2.0 -  RELEASE  -


 With contributions from (in alphabetic order):
   Daniel Aravena         : Magnetic Suceptibility
   Michael Atanasov       : Ab Initio Ligand Field Theory (pilot matlab implementation)
   Alexander A. Auer      : GIAO ZORA, VPT2
   Ute Becker             : Parallelization
   Giovanni Bistoni       : ED, misc. LED, open-shell LED, HFLED
   Martin Brehm           : Molecular dynamics
   Dmytro Bykov           : SCF Hessian
   Vijay G. Chilkuri      : MRCI spin determinant printing, contributions to CSF-ICE
   Dipayan Datta          : RHF DLPNO-CCSD density
   Achintya Kumar Dutta   : EOM-CC, STEOM-CC
   Dmitry Ganyushin       : Spin-Orbit,Spin-Spin,Magnetic field MRCI
   Miquel Garcia          : C-PCM Hessian, Gaussian charge scheme
   Yang Guo               : DLPNO-NEVPT2, CIM, IAO-localization
   Andreas Hansen         : Spin unrestricted coupled pair/coupled cluster methods
   Benjamin Helmich-Paris : CASSCF linear response (MC-RPA)
   Lee Huntington         : MR-EOM, pCC
   Robert Izsak           : Overlap fitted RIJCOSX, COSX-SCS-MP3, EOM
   Christian Kollmar      : KDIIS, OOCD, Brueckner-CCSD(T), CCSD density
   Simone Kossmann        : Meta GGA functionals, TD-DFT gradient, OOMP2, MP2 Hessian
   Martin Krupicka        : AUTO-CI
   Lucas Lang             : DCDCAS
   Dagmar Lenk            : GEPOL surface, SMD
   Dimitrios Liakos       : Extrapolation schemes; Compound Job, initial MDCI parallelization
   Dimitrios Manganas     : Further ROCIS development; embedding schemes
   Dimitrios Pantazis     : SARC Basis sets
   Taras Petrenko         : DFT Hessian,TD-DFT gradient, ASA, ECA, R-Raman, ABS, FL, XAS/XES, NRVS
   Peter Pinski           : DLPNO-MP2, DLPNO-MP2 Gradient
   Christoph Reimann      : Effective Core Potentials
   Marius Retegan         : Local ZFS, SOC
   Christoph Riplinger    : Optimizer, TS searches, QM/MM, DLPNO-CCSD(T), (RO)-DLPNO pert. Triples
   Tobias Risthaus        : Range-separated hybrids, TD-DFT gradient, RPA, STAB
   Michael Roemelt        : Original ROCIS implementation
   Masaaki Saitow         : Open-shell DLPNO-CCSD energy and density
   Barbara Sandhoefer     : DKH picture change effects
   Avijit Sen             : IP-ROCIS
   Kantharuban Sivalingam : CASSCF convergence, NEVPT2, FIC-MRCI
   Bernardo de Souza      : ESD, SOC TD-DFT
   Georgi Stoychev        : AutoAux, RI-MP2 NMR
   Willem Van den Heuvel  : Paramagnetic NMR
   Boris Wezisla          : Elementary symmetry handling
   Frank Wennmohs         : Technical directorship


 We gratefully acknowledge several colleagues who have allowed us to
 interface, adapt or use parts of their codes:
   Stefan Grimme, W. Hujo, H. Kruse,             : VdW corrections, initial TS optimization,
                  C. Bannwarth                     DFT functionals, gCP, sTDA/sTD-DF
   Ed Valeev, F. Pavosevic, A. Kumar             : LibInt (2-el integral package), F12 methods
   Garnet Chan, S. Sharma, J. Yang, R. Olivares  : DMRG
   Ulf Ekstrom                                   : XCFun DFT Library
   Mihaly Kallay                                 : mrcc  (arbitrary order and MRCC methods)
   Andreas Klamt, Michael Diedenhofen            : otool_cosmo (COSMO solvation model)
   Jiri Pittner, Ondrej Demel                    : Mk-CCSD
   Frank Weinhold                                : gennbo (NPA and NBO analysis)
   Christopher J. Cramer and Donald G. Truhlar   : smd solvation model
   Lars Goerigk                                  : TD-DFT with DH, B97 family of functionals
   V. Asgeirsson, H. Jonsson                     : NEB implementation
   FAccTs GmbH                                   : IRC, NEB, NEB-TS, Multilevel, MM, QM/MM, CI optimization
   S Lehtola, MJT Oliveira, MAL Marques          : LibXC Library


 Your calculation uses the libint2 library for the computation of 2-el integrals
 For citations please refer to: http://libint.valeyev.net

 Your ORCA version has been built with support for libXC version: 4.2.3
 For citations please refer to: https://tddft.org/programs/libxc/

 This ORCA versions uses:
   CBLAS   interface :  Fast vector & matrix operations
   LAPACKE interface :  Fast linear algebra routines
   SCALAPACK package :  Parallel linear algebra routines


Your calculation utilizes the DFT-NL dispersion correction.
Cite in your paper:
Vydrov, O. A.; Van Voorhis, T. J. Chem. Phys. 2010, 133, 244103
Hujo, W.; Grimme, S. J. Chem. Theory Comput. 2011, 7, 3866 
   

----- Orbital basis set information -----
Your calculation utilizes the basis: aug-cc-pVTZ 
    H, B-Ne : Obtained from the ccRepo (grant-hill.group.shef.ac.uk/ccrepo) Feb. 2017
              R. A. Kendall, T. H. Dunning, Jr., R. J. Harrison, J. Chem. Phys. 96, 6796 (1992)
         He : Obtained from the ccRepo (grant-hill.group.shef.ac.uk/ccrepo) Feb. 2017
              D. E. Woon, T. H. Dunning, Jr., J. Chem. Phys. 100, 2975 (1994)
  Li-Be, Na : Obtained from the ccRepo (grant-hill.group.shef.ac.uk/ccrepo) Feb. 2017
              B. P. Prascher, D. E. Woon, K. A. Peterson, T. H. Dunning, Jr., A. K. Wilson, Theor. Chem. Acc. 128, 69 (2011)
         Mg : Obtained from the Peterson Research Group Website (tyr0.chem.wsu.edu/~kipeters) Feb. 2017
              B. P. Prascher, D. E. Woon, K. A. Peterson, T. H. Dunning, Jr., A. K. Wilson, Theor. Chem. Acc. 128, 69 (2011)
      Al-Ar : Obtained from the ccRepo (grant-hill.group.shef.ac.uk/ccrepo) Feb. 2017
              D. E. Woon, T. H. Dunning, Jr., J. Chem. Phys. 98, 1358 (1993)
      Sc-Zn : Obtained from the ccRepo (grant-hill.group.shef.ac.uk/ccrepo) Feb. 2017
              N. B. Balabanov, K. A. Peterson, J. Chem. Phys. 123, 064107 (2005)
              N. B. Balabanov, K. A. Peterson, J. Chem. Phys. 125, 074110 (2006)
      Ga-Kr : Obtained from the ccRepo (grant-hill.group.shef.ac.uk/ccrepo) Feb. 2017
              A. K. Wilson, D. E. Woon, K. A. Peterson, T. H. Dunning, Jr., J. Chem. Phys. 110, 7667 (1999)
     Ag, Au : Obtained from the Peterson Research Group Website (tyr0.chem.wsu.edu/~kipeters) Feb. 2017
              K. A. Peterson, C. Puzzarini, Theor. Chem. Acc. 114, 283 (2005)

----- AuxJK basis set information -----
Your calculation utilizes the auxiliary basis: def2/JK
   H-Ba, Hf-Rn: F. Weigend, J. Comput. Chem. 29, 167 (2008).

================================================================================
                                        WARNINGS
                       Please study these warnings very carefully!
================================================================================


WARNING: your system is open-shell and RHF/RKS was chosen
  ===> : WILL SWITCH to UHF/UKS


INFO   : the flag for use of LIBINT has been found!

================================================================================
                                       INPUT FILE
================================================================================
NAME = 28_MnBr.in
|  1> #
|  2> # 28_MnBr wb97x-v/aug-cc-pvtz
|  3> #
|  4> ! wb97x-v aug-cc-pvtz def2/jk grid4 nofinalgrid
|  5> 
|  6> *xyz 0 7
|  7>   Mn  0.00000000000000      0.00000000000000     -0.18897622296313
|  8>   Br  0.00000000000000      0.00000000000000      2.18897622296313
|  9> *
| 10> 
| 11> %pal
| 12> nprocs 24
| 13> end
| 14> 
| 15> 
| 16>                          ****END OF INPUT****
================================================================================

                       ****************************
                       * Single Point Calculation *
                       ****************************

---------------------------------
CARTESIAN COORDINATES (ANGSTROEM)
---------------------------------
  Mn     0.000000    0.000000   -0.188976
  Br     0.000000    0.000000    2.188976

----------------------------
CARTESIAN COORDINATES (A.U.)
----------------------------
  NO LB      ZA    FRAG     MASS         X           Y           Z
   0 Mn   25.0000    0    54.940    0.000000    0.000000   -0.357113
   1 Br   35.0000    0    79.900    0.000000    0.000000    4.136566

--------------------------------
INTERNAL COORDINATES (ANGSTROEM)
--------------------------------
 Mn     0   0   0     0.000000000000     0.00000000     0.00000000
 Br     1   0   0     2.377952445926     0.00000000     0.00000000

---------------------------
INTERNAL COORDINATES (A.U.)
---------------------------
 Mn     0   0   0     0.000000000000     0.00000000     0.00000000
 Br     1   0   0     4.493678882289     0.00000000     0.00000000

---------------------
BASIS SET INFORMATION
---------------------
There are 2 groups of distinct atoms

 Group   1 Type Mn  : 116s77p23d3f2g contracted to 8s7p5d3f2g pattern {19191919191911/151515151511/77711/111/11}
 Group   2 Type Br  : 75s36p10d2f contracted to 7s6p4d2f pattern {18181818111/111111111/7111/11}

Atom   0Mn   basis set group =>   1
Atom   1Br   basis set group =>   2
----------------------------------
AUXILIARY/JK BASIS SET INFORMATION
----------------------------------
There are 2 groups of distinct atoms

 Group   1 Type Mn  : 19s14p12d10f7g3h1i contracted to 16s13p11d9f5g3h1i pattern {4111111111111111/2111111111111/21111111111/211111111/31111/111/1}
 Group   2 Type Br  : 20s14p13d10f7g3h contracted to 17s13p12d9f6g3h pattern {41111111111111111/2111111111111/211111111111/211111111/211111/111}

Atom   0Mn   basis set group =>   1
Atom   1Br   basis set group =>   2


           ************************************************************
           *        Program running with 24 parallel MPI-processes    *
           *              working on a common directory               *
           ************************************************************
------------------------------------------------------------------------------
                           ORCA GTO INTEGRAL CALCULATION
------------------------------------------------------------------------------

                         BASIS SET STATISTICS AND STARTUP INFO

 # of primitive gaussian shells          ...  344
 # of primitive gaussian functions       ...  748
 # of contracted shells                  ...   44
 # of contracted basis functions         ...  152
 Highest angular momentum                ...    4
 Maximum contraction depth               ...   19
 Integral package used                   ... LIBINT
 Integral threshhold            Thresh   ...  1.000e-10
 Primitive cut-off              TCut     ...  1.000e-11


------------------------------ INTEGRAL EVALUATION ----------------------------


 * One electron integrals 
 Pre-screening matrix                    ... done
 Shell pair data                         ... done (   0.002 sec)



           ************************************************************
           *        Program running with 24 parallel MPI-processes    *
           *              working on a common directory               *
           ************************************************************
-------------------------------------------------------------------------------
                                 ORCA SCF
-------------------------------------------------------------------------------

------------
SCF SETTINGS
------------
Hamiltonian:
 Density Functional     Method          .... DFT(GTOs)
 Exchange Functional    Exchange        .... WB97X-V
 Correlation Functional Correlation     .... WB97X-V
 Gradients option       PostSCFGGA      .... off
 Hybrid DFT is turned on
   Fraction HF Exchange ScalHFX         ....  0.167000
   Scaling of DF-GGA-X  ScalDFX         ....  0.000000
   Scaling of DF-GGA-C  ScalDFC         ....  1.000000
   Scaling of DF-LDA-C  ScalLDAC        ....  1.000000
   Perturbative correction              ....  0.000000
   Density functional embedding theory  .... OFF
 Long-range corrected/Screened/Range-Separated Hybrid DFT is turned on
   Amount of maximum screened exact exchange              ....  0.833000
   Range separation parameter mu (erf(mu*r12)/r12)        ....  0.300000
   NL short-range parameter             ....  6.000000
   NL long-range parameter              ....  0.010000


General Settings:
 Integral files         IntName         .... 28_MnBr
 Hartree-Fock type      HFTyp           .... UHF
 Total Charge           Charge          ....    0
 Multiplicity           Mult            ....    7
 Number of Electrons    NEL             ....   60
 Basis Dimension        Dim             ....  152
 Nuclear Repulsion      ENuc            ....    194.7179633704 Eh

Convergence Acceleration:
 DIIS                   CNVDIIS         .... on
   Start iteration      DIISMaxIt       ....    12
   Startup error        DIISStart       ....  0.200000
   # of expansion vecs  DIISMaxEq       ....     5
   Bias factor          DIISBfac        ....   1.050
   Max. coefficient     DIISMaxC        ....  10.000
 Newton-Raphson         CNVNR           .... off
 SOSCF                  CNVSOSCF        .... off
 Level Shifting         CNVShift        .... on
   Level shift para.    LevelShift      ....    0.2500
   Turn off err/grad.   ShiftErr        ....    0.0010
 Zerner damping         CNVZerner       .... off
 Static damping         CNVDamp         .... on
   Fraction old density DampFac         ....    0.7000
   Max. Damping (<1)    DampMax         ....    0.9800
   Min. Damping (>=0)   DampMin         ....    0.0000
   Turn off err/grad.   DampErr         ....    0.1000
 Fernandez-Rico         CNVRico         .... off

SCF Procedure:
 Maximum # iterations   MaxIter         ....   125
 SCF integral mode      SCFMode         .... Direct
   Integral package                     .... LIBINT
 Reset frequency        DirectResetFreq ....    20
 Integral Threshold     Thresh          ....  1.000e-10 Eh
 Primitive CutOff       TCut            ....  1.000e-11 Eh

Convergence Tolerance:
 Convergence Check Mode ConvCheckMode   .... Total+1el-Energy
 Convergence forced     ConvForced      .... 0
 Energy Change          TolE            ....  1.000e-06 Eh
 1-El. energy change                    ....  1.000e-03 Eh
 DIIS Error             TolErr          ....  1.000e-06


Diagonalization of the overlap matrix:
Smallest eigenvalue                        ... 7.389e-05
Time for diagonalization                   ...    0.006 sec
Threshold for overlap eigenvalues          ... 1.000e-08
Number of eigenvalues below threshold      ... 0
Time for construction of square roots      ...    0.003 sec
Total time needed                          ...    0.009 sec

-------------------
DFT GRID GENERATION
-------------------

General Integration Accuracy     IntAcc      ...  4.670
Radial Grid Type                 RadialGrid  ... Gauss-Chebyshev
Angular Grid (max. acc.)         AngularGrid ... Lebedev-302
Angular grid pruning method      GridPruning ... 3 (G Style)
Weight generation scheme         WeightScheme... Becke
Basis function cutoff            BFCut       ...    1.0000e-10
Integration weight cutoff        WCut        ...    1.0000e-14
Grids for H and He will be reduced by one unit

# of grid points (after initial pruning)     ...  19280 (   0.0 sec)
# of grid points (after weights+screening)   ...  19254 (   0.0 sec)
nearest neighbour list constructed           ...    0.0 sec
Grid point re-assignment to atoms done       ...    0.0 sec
Grid point division into batches done        ...    0.1 sec
Reduced shell lists constructed in    0.1 sec

Total number of grid points                  ...    19254
Total number of batches                      ...      301
Average number of points per batch           ...       63
Average number of grid points per atom       ...     9627
Average number of shells per batch           ...    16.43 (37.34%)
Average number of basis functions per batch  ...    40.71 (26.79%)
Average number of large shells per batch     ...     9.79 (59.57%)
Average number of large basis fcns per batch ...    24.64 (60.53%)
Maximum spatial batch extension              ...  24.49, 24.19, 17.83 au
Average spatial batch extension              ...   0.84,  0.83,  0.67 au

Time for grid setup =    0.220 sec

------------------------------
INITIAL GUESS: MODEL POTENTIAL
------------------------------
Loading Hartree-Fock densities                     ... done
Calculating cut-offs                               ... done
Setting up the integral package                    ... done
Initializing the effective Hamiltonian             ... done
Starting the Coulomb interaction                   ... done (   0.0 sec)
Reading the grid                                   ... done
Mapping shells                                     ... done
Starting the XC term evaluation                    ... done (   0.0 sec)
  promolecular density results
     # of electrons  =     59.999970598
     EX              =   -107.895395355
     EC              =     -3.720303378
     EX+EC           =   -111.615698732
Transforming the Hamiltonian                       ... done (   0.0 sec)
Diagonalizing the Hamiltonian                      ... done (   0.0 sec)
Back transforming the eigenvectors                 ... done (   0.0 sec)
Now organizing SCF variables                       ... done
                      ------------------
                      INITIAL GUESS DONE (   0.3 sec)
                      ------------------
--------------
SCF ITERATIONS
--------------
ITER       Energy         Delta-E        Max-DP      RMS-DP      [F,P]     Damp
               ***  Starting incremental Fock matrix formation  ***
  0  -3718.2739127385   0.000000000000 3.64691633  0.04724312  1.2837611 0.7000
  1  -3721.6471441455  -3.373231406988 2.60772197  0.02195682  0.3467425 0.7000
  2  -3722.4369859457  -0.789841800247 1.86814759  0.01638240  0.4646656 0.7000
  3  -3723.2731471982  -0.836161252525 1.31166793  0.01169751  0.2602064 0.7000
                               ***Turning on DIIS***
  4  -3723.8082469791  -0.535099780839 0.91721352  0.00810074  0.1307415 0.7000
  5  -3724.1815905478  -0.373343568749 2.13987503  0.01879074  0.0720467 0.0000
  6  -3725.1094423561  -0.927851808262 0.14552992  0.00153900  0.0546697 0.0000
  7  -3725.1274108920  -0.017968535967 0.12498214  0.00123888  0.0182858 0.0000
  8  -3725.1329398579  -0.005528965855 0.07557232  0.00077433  0.0112668 0.0000
  9  -3725.1356614156  -0.002721557696 0.04129669  0.00039438  0.0063995 0.0000
 10  -3725.1366038000  -0.000942384454 0.01808659  0.00018559  0.0034251 0.0000
 11  -3725.1368930135  -0.000289213416 0.00730944  0.00006289  0.0016969 0.0000
 12  -3725.1369611276  -0.000068114108 0.00623524  0.00005538  0.0009018 0.0000
 13  -3725.1369865987  -0.000025471154 0.00207143  0.00001741  0.0001743 0.0000
 14  -3725.1369875049  -0.000000906153 0.00026238  0.00000275  0.0000460 0.0000
 15  -3725.1369875714  -0.000000066508 0.00006414  0.00000103  0.0000178 0.0000
                 **** Energy Check signals convergence ****

               *****************************************************
               *                     SUCCESS                       *
               *           SCF CONVERGED AFTER  16 CYCLES          *
               *****************************************************


Setting up the DFT-NL grid :

General Integration Accuracy     IntAcc      ...  4.340
Radial Grid Type                 RadialGrid  ... Gauss-Chebyshev
Angular Grid (max. acc.)         AngularGrid ... Lebedev-110
Angular grid pruning method      GridPruning ... 3 (G Style)
Weight generation scheme         WeightScheme... Becke
Basis function cutoff            BFCut       ...    1.0000e-10
Integration weight cutoff        WCut        ...    1.0000e-14
Grids for H and He will be reduced by one unit

# of grid points (after initial pruning)     ...   5802 (   0.0 sec)
# of grid points (after weights+screening)   ...   5778 (   0.0 sec)
nearest neighbour list constructed           ...    0.0 sec
Grid point re-assignment to atoms done       ...    0.0 sec
Grid point division into batches done        ...    0.0 sec
Reduced shell lists constructed in    0.0 sec

Total number of grid points                  ...     5778
Total number of batches                      ...       92
Average number of points per batch           ...       62
Average number of grid points per atom       ...     2889
Average number of shells per batch           ...    24.00 (54.55%)
Average number of basis functions per batch  ...    72.00 (47.37%)
Average number of large shells per batch     ...    17.20 (71.67%)
Average number of large basis fcns per batch ...    49.20 (68.33%)
Maximum spatial batch extension              ...  18.98, 28.73, 16.39 au
Average spatial batch extension              ...   0.76,  1.05,  0.71 au

Final grid set up in    0.0 sec

-------------------------------------------------------------------------------
                         DFT-NL dispersion correction                          
-------------------------------------------------------------------------------

SC Energy -3725.136987579 
NL    Energy 0.251236902 
SC+NL Energy -3724.885750677 
NL done in    0.0 sec
-------------------------------------------------------------------------------

----------------
TOTAL SCF ENERGY
----------------

Total Energy       :        -3724.88575068 Eh         -101359.29428 eV

Components:
Nuclear Repulsion  :          194.71796337 Eh            5298.54516 eV
Electronic Energy  :        -3919.60371405 Eh         -106657.83944 eV
One Electron Energy:        -5557.31738939 Eh         -151222.29416 eV
Two Electron Energy:         1637.71367534 Eh           44564.45472 eV

Virial components:
Potential Energy   :        -7445.04514882 Eh         -202589.97797 eV
Kinetic Energy     :         3720.15939815 Eh          101230.68369 eV
Virial Ratio       :            2.00127047


DFT components:
N(Alpha)           :       33.000004333606 electrons
N(Beta)            :       27.000002672048 electrons
N(Total)           :       60.000007005655 electrons
E(X)               :     -108.066548040785 Eh       
E(C)               :       -3.658628861236 Eh       
NL Energy, E(C,NL) :        0.251236901562 Eh       
E(XC)              :     -111.473940000459 Eh       
DFET-embed. en.    :        0.000000000000 Eh       

---------------
SCF CONVERGENCE
---------------

  Last Energy change         ...   -7.3101e-09  Tolerance :   1.0000e-06
  Last MAX-Density change    ...    2.9019e-05  Tolerance :   1.0000e-05
  Last RMS-Density change    ...    4.7017e-07  Tolerance :   1.0000e-06
  Last DIIS Error            ...    1.0287e-05  Tolerance :   1.0000e-06

             **** THE GBW FILE WAS UPDATED (28_MnBr.gbw) ****
             **** DENSITY FILE WAS UPDATED (28_MnBr.scfp) ****
             **** ENERGY FILE WAS UPDATED (28_MnBr.en.tmp) ****
----------------------
UHF SPIN CONTAMINATION
----------------------

Warning: in a DFT calculation there is little theoretical justification to 
         calculate <S**2> as in Hartree-Fock theory. We will do it anyways
         but you should keep in mind that the values have only limited relevance

Expectation value of <S**2>     :    12.002170
Ideal value S*(S+1) for S=3.0   :    12.000000
Deviation                       :     0.002170

             **** THE GBW FILE WAS UPDATED (28_MnBr.gbw) ****
             **** DENSITY FILE WAS UPDATED (28_MnBr.scfp) ****
----------------
ORBITAL ENERGIES
----------------
                 SPIN UP ORBITALS
  NO   OCC          E(Eh)            E(eV) 
   0   1.0000    -482.628774    -13132.9966 
   1   1.0000    -235.450937     -6406.9457 
   2   1.0000     -62.502891     -1700.7901 
   3   1.0000     -56.306990     -1532.1911 
   4   1.0000     -56.306237     -1532.1706 
   5   1.0000     -56.306237     -1532.1706 
   6   1.0000     -27.476999      -747.6872 
   7   1.0000     -23.540477      -640.5689 
   8   1.0000     -23.540477      -640.5689 
   9   1.0000     -23.538129      -640.5051 
  10   1.0000      -8.767017      -238.5627 
  11   1.0000      -6.590428      -179.3347 
  12   1.0000      -6.587915      -179.2663 
  13   1.0000      -6.587915      -179.2663 
  14   1.0000      -3.460693       -94.1702 
  15   1.0000      -2.714090       -73.8541 
  16   1.0000      -2.713252       -73.8313 
  17   1.0000      -2.713252       -73.8313 
  18   1.0000      -2.711279       -73.7776 
  19   1.0000      -2.711247       -73.7768 
  20   1.0000      -2.328196       -63.3534 
  21   1.0000      -2.328196       -63.3534 
  22   1.0000      -2.321728       -63.1774 
  23   1.0000      -0.865481       -23.5509 
  24   1.0000      -0.523974       -14.2581 
  25   1.0000      -0.516769       -14.0620 
  26   1.0000      -0.516769       -14.0620 
  27   1.0000      -0.516384       -14.0515 
  28   1.0000      -0.516383       -14.0515 
  29   1.0000      -0.420328       -11.4377 
  30   1.0000      -0.379976       -10.3397 
  31   1.0000      -0.379976       -10.3397 
  32   1.0000      -0.284242        -7.7346 
  33   0.0000       0.006783         0.1846 
  34   0.0000       0.006783         0.1846 
  35   0.0000       0.021786         0.5928 
  36   0.0000       0.029204         0.7947 
  37   0.0000       0.046746         1.2720 
  38   0.0000       0.046746         1.2720 
  39   0.0000       0.078039         2.1235 
  40   0.0000       0.080025         2.1776 
  41   0.0000       0.080025         2.1776 
  42   0.0000       0.091239         2.4827 
  43   0.0000       0.094661         2.5759 
  44   0.0000       0.094661         2.5759 
  45   0.0000       0.129021         3.5108 
  46   0.0000       0.135921         3.6986 
  47   0.0000       0.135921         3.6986 
  48   0.0000       0.141475         3.8497 
  49   0.0000       0.202347         5.5061 
  50   0.0000       0.202347         5.5061 
  51   0.0000       0.228012         6.2045 
  52   0.0000       0.240967         6.5571 
  53   0.0000       0.254295         6.9197 
  54   0.0000       0.254295         6.9197 
  55   0.0000       0.283820         7.7231 
  56   0.0000       0.283820         7.7231 
  57   0.0000       0.300772         8.1844 
  58   0.0000       0.300773         8.1844 
  59   0.0000       0.348001         9.4696 
  60   0.0000       0.378164        10.2904 
  61   0.0000       0.378164        10.2904 
  62   0.0000       0.416709        11.3392 
  63   0.0000       0.503821        13.7097 
  64   0.0000       0.531656        14.4671 
  65   0.0000       0.531656        14.4671 
  66   0.0000       0.663687        18.0599 
  67   0.0000       0.679328        18.4855 
  68   0.0000       0.693940        18.8831 
  69   0.0000       0.693940        18.8831 
  70   0.0000       0.704357        19.1665 
  71   0.0000       0.704357        19.1665 
  72   0.0000       0.715460        19.4687 
  73   0.0000       0.715460        19.4687 
  74   0.0000       0.746502        20.3134 
  75   0.0000       0.746502        20.3134 
  76   0.0000       0.756788        20.5932 
  77   0.0000       0.756788        20.5932 
  78   0.0000       0.854563        23.2538 
  79   0.0000       0.907877        24.7046 
  80   0.0000       0.907877        24.7046 
  81   0.0000       0.931401        25.3447 
  82   0.0000       0.935386        25.4531 
  83   0.0000       0.935386        25.4531 
  84   0.0000       0.946832        25.7646 
  85   0.0000       0.946832        25.7646 
  86   0.0000       0.970916        26.4200 
  87   0.0000       0.970916        26.4200 
  88   0.0000       0.997121        27.1330 
  89   0.0000       1.057498        28.7760 
  90   0.0000       1.057498        28.7760 
  91   0.0000       1.223546        33.2944 
  92   0.0000       1.362864        37.0854 
  93   0.0000       1.362864        37.0854 
  94   0.0000       1.665026        45.3077 
  95   0.0000       1.981011        53.9060 
  96   0.0000       1.981011        53.9060 
  97   0.0000       2.101922        57.1962 
  98   0.0000       2.109043        57.3900 
  99   0.0000       2.109062        57.3905 
 100   0.0000       2.138388        58.1885 
 101   0.0000       2.138388        58.1885 
 102   0.0000       2.151534        58.5462 
 103   0.0000       2.151534        58.5462 
 104   0.0000       2.171893        59.1002 
 105   0.0000       2.171894        59.1002 
 106   0.0000       2.193665        59.6926 
 107   0.0000       2.204091        59.9764 
 108   0.0000       2.204091        59.9764 
 109   0.0000       2.244233        61.0687 
 110   0.0000       2.244233        61.0687 
 111   0.0000       2.257068        61.4180 
 112   0.0000       2.257073        61.4181 
 113   0.0000       2.291915        62.3662 
 114   0.0000       2.353818        64.0506 
 115   0.0000       2.353818        64.0506 
 116   0.0000       2.550089        69.3915 
 117   0.0000       2.665290        72.5262 
 118   0.0000       2.686214        73.0956 
 119   0.0000       2.686214        73.0956 
 120   0.0000       2.691830        73.2484 
 121   0.0000       2.691838        73.2486 
 122   0.0000       2.703615        73.5691 
 123   0.0000       2.703615        73.5691 
 124   0.0000       2.764824        75.2347 
 125   0.0000       2.764825        75.2347 
 126   0.0000       2.888559        78.6017 
 127   0.0000       2.963110        80.6303 
 128   0.0000       2.963110        80.6303 
 129   0.0000       3.259881        88.7059 
 130   0.0000       3.857377       104.9646 
 131   0.0000       3.857379       104.9646 
 132   0.0000       4.029176       109.6395 
 133   0.0000       4.029176       109.6395 
 134   0.0000       4.291253       116.7709 
 135   0.0000       4.810681       130.9053 
 136   0.0000       7.402764       201.4394 
 137   0.0000       7.402764       201.4394 
 138   0.0000       7.423693       202.0090 
 139   0.0000       7.423811       202.0122 
 140   0.0000       7.463057       203.0801 
 141   0.0000       7.463057       203.0801 
 142   0.0000       7.535427       205.0494 
 143   0.0000       7.922624       215.5855 
 144   0.0000       7.922928       215.5938 
 145   0.0000       7.929986       215.7859 
 146   0.0000       7.929986       215.7859 
 147   0.0000       7.958379       216.5585 
 148   0.0000       7.958382       216.5586 
 149   0.0000       8.046693       218.9616 
 150   0.0000       8.046693       218.9616 
 151   0.0000       8.127259       221.1539 

                 SPIN DOWN ORBITALS
  NO   OCC          E(Eh)            E(eV) 
   0   1.0000    -482.628402    -13132.9865 
   1   1.0000    -235.448787     -6406.8872 
   2   1.0000     -62.502676     -1700.7843 
   3   1.0000     -56.306480     -1532.1772 
   4   1.0000     -56.305916     -1532.1619 
   5   1.0000     -56.305916     -1532.1619 
   6   1.0000     -27.394582      -745.4445 
   7   1.0000     -23.473250      -638.7396 
   8   1.0000     -23.473250      -638.7396 
   9   1.0000     -23.471352      -638.6879 
  10   1.0000      -8.766470      -238.5478 
  11   1.0000      -6.589603      -179.3122 
  12   1.0000      -6.587366      -179.2513 
  13   1.0000      -6.587366      -179.2513 
  14   1.0000      -3.251612       -88.4809 
  15   1.0000      -2.713359       -73.8342 
  16   1.0000      -2.712575       -73.8129 
  17   1.0000      -2.712575       -73.8129 
  18   1.0000      -2.710750       -73.7632 
  19   1.0000      -2.710718       -73.7624 
  20   1.0000      -2.100922       -57.1690 
  21   1.0000      -2.100922       -57.1690 
  22   1.0000      -2.094771       -57.0016 
  23   1.0000      -0.858313       -23.3559 
  24   1.0000      -0.427489       -11.6326 
  25   1.0000      -0.385448       -10.4886 
  26   1.0000      -0.385448       -10.4886 
  27   0.0000      -0.024615        -0.6698 
  28   0.0000       0.010782         0.2934 
  29   0.0000       0.010782         0.2934 
  30   0.0000       0.019590         0.5331 
  31   0.0000       0.019590         0.5331 
  32   0.0000       0.027220         0.7407 
  33   0.0000       0.029119         0.7924 
  34   0.0000       0.029119         0.7924 
  35   0.0000       0.036986         1.0064 
  36   0.0000       0.050748         1.3809 
  37   0.0000       0.079350         2.1592 
  38   0.0000       0.079350         2.1592 
  39   0.0000       0.088879         2.4185 
  40   0.0000       0.094730         2.5777 
  41   0.0000       0.094730         2.5777 
  42   0.0000       0.107429         2.9233 
  43   0.0000       0.107430         2.9233 
  44   0.0000       0.121610         3.3092 
  45   0.0000       0.142269         3.8713 
  46   0.0000       0.142269         3.8713 
  47   0.0000       0.149714         4.0739 
  48   0.0000       0.166759         4.5377 
  49   0.0000       0.234352         6.3771 
  50   0.0000       0.234352         6.3771 
  51   0.0000       0.242477         6.5981 
  52   0.0000       0.265306         7.2193 
  53   0.0000       0.265306         7.2193 
  54   0.0000       0.291313         7.9270 
  55   0.0000       0.333003         9.0615 
  56   0.0000       0.333003         9.0615 
  57   0.0000       0.335281         9.1235 
  58   0.0000       0.335281         9.1235 
  59   0.0000       0.379278        10.3207 
  60   0.0000       0.396893        10.8000 
  61   0.0000       0.396893        10.8000 
  62   0.0000       0.442459        12.0399 
  63   0.0000       0.537997        14.6396 
  64   0.0000       0.537997        14.6396 
  65   0.0000       0.546064        14.8591 
  66   0.0000       0.674343        18.3498 
  67   0.0000       0.708061        19.2673 
  68   0.0000       0.708061        19.2673 
  69   0.0000       0.711252        19.3542 
  70   0.0000       0.715945        19.4818 
  71   0.0000       0.715945        19.4819 
  72   0.0000       0.744346        20.2547 
  73   0.0000       0.744346        20.2547 
  74   0.0000       0.771731        20.9999 
  75   0.0000       0.771733        20.9999 
  76   0.0000       0.802587        21.8395 
  77   0.0000       0.802587        21.8395 
  78   0.0000       0.898071        24.4378 
  79   0.0000       0.912206        24.8224 
  80   0.0000       0.912206        24.8224 
  81   0.0000       0.970319        26.4037 
  82   0.0000       0.970319        26.4037 
  83   0.0000       0.983652        26.7665 
  84   0.0000       1.027924        27.9712 
  85   0.0000       1.027924        27.9712 
  86   0.0000       1.040614        28.3166 
  87   0.0000       1.046946        28.4888 
  88   0.0000       1.046948        28.4889 
  89   0.0000       1.089211        29.6389 
  90   0.0000       1.089214        29.6390 
  91   0.0000       1.257580        34.2205 
  92   0.0000       1.400930        38.1212 
  93   0.0000       1.400930        38.1212 
  94   0.0000       1.696328        46.1594 
  95   0.0000       1.985669        54.0328 
  96   0.0000       1.985669        54.0328 
  97   0.0000       2.111319        57.4519 
  98   0.0000       2.112405        57.4815 
  99   0.0000       2.112424        57.4820 
 100   0.0000       2.145472        58.3813 
 101   0.0000       2.145472        58.3813 
 102   0.0000       2.170609        59.0653 
 103   0.0000       2.170609        59.0653 
 104   0.0000       2.184083        59.4319 
 105   0.0000       2.184083        59.4319 
 106   0.0000       2.224053        60.5196 
 107   0.0000       2.250357        61.2353 
 108   0.0000       2.250357        61.2353 
 109   0.0000       2.301981        62.6401 
 110   0.0000       2.301981        62.6401 
 111   0.0000       2.345755        63.8312 
 112   0.0000       2.350126        63.9502 
 113   0.0000       2.350136        63.9504 
 114   0.0000       2.439977        66.3951 
 115   0.0000       2.439977        66.3951 
 116   0.0000       2.637841        71.7793 
 117   0.0000       2.751182        74.8635 
 118   0.0000       2.751247        74.8652 
 119   0.0000       2.765522        75.2537 
 120   0.0000       2.765522        75.2537 
 121   0.0000       2.777134        75.5697 
 122   0.0000       2.795675        76.0742 
 123   0.0000       2.795675        76.0742 
 124   0.0000       2.823754        76.8382 
 125   0.0000       2.823762        76.8385 
 126   0.0000       2.943552        80.0981 
 127   0.0000       3.024752        82.3077 
 128   0.0000       3.024752        82.3077 
 129   0.0000       3.352666        91.2307 
 130   0.0000       4.006769       109.0297 
 131   0.0000       4.006787       109.0302 
 132   0.0000       4.174351       113.5899 
 133   0.0000       4.174351       113.5899 
 134   0.0000       4.302267       117.0706 
 135   0.0000       4.930044       134.1533 
 136   0.0000       7.585015       206.3987 
 137   0.0000       7.585015       206.3987 
 138   0.0000       7.607684       207.0156 
 139   0.0000       7.607780       207.0182 
 140   0.0000       7.645948       208.0568 
 141   0.0000       7.645948       208.0568 
 142   0.0000       7.715878       209.9597 
 143   0.0000       8.058065       219.2711 
 144   0.0000       8.058297       219.2774 
 145   0.0000       8.065513       219.4738 
 146   0.0000       8.065513       219.4738 
 147   0.0000       8.092082       220.1968 
 148   0.0000       8.092107       220.1974 
 149   0.0000       8.178605       222.5512 
 150   0.0000       8.178605       222.5512 
 151   0.0000       8.258184       224.7166 

                    ********************************
                    * MULLIKEN POPULATION ANALYSIS *
                    ********************************

--------------------------------------------
MULLIKEN ATOMIC CHARGES AND SPIN POPULATIONS
--------------------------------------------
   0 Mn:    0.453169    5.858623
   1 Br:   -0.453169    0.141377
Sum of atomic charges         :   -0.0000000
Sum of atomic spin populations:    6.0000000

-----------------------------------------------------
MULLIKEN REDUCED ORBITAL CHARGES AND SPIN POPULATIONS
-----------------------------------------------------
CHARGE
  0 Mns       :     6.963142  s :     6.963142
      pz      :     4.338811  p :    12.423951
      px      :     4.042570
      py      :     4.042570
      dz2     :     1.057010  d :     5.140661
      dxz     :     1.042101
      dyz     :     1.042101
      dx2y2   :     0.999725
      dxy     :     0.999725
      f0      :     0.005479  f :     0.018425
      f+1     :     0.006467
      f-1     :     0.006467
      f+2     :     0.000006
      f-2     :     0.000006
      f+3     :     0.000000
      f-3     :     0.000000
      g0      :     0.000282  g :     0.000651
      g+1     :     0.000184
      g-1     :     0.000184
      g+2     :     0.000001
      g-2     :     0.000001
      g+3     :     0.000000
      g-3     :     0.000000
      g+4     :     0.000000
      g-4     :     0.000000
  1 Brs       :     7.978132  s :     7.978132
      pz      :     5.650621  p :    17.452239
      px      :     5.900809
      py      :     5.900809
      dz2     :     2.006673  d :    10.020829
      dxz     :     2.006935
      dyz     :     2.006935
      dx2y2   :     2.000143
      dxy     :     2.000143
      f0      :    -0.000150  f :     0.001969
      f+1     :     0.000934
      f-1     :     0.000934
      f+2     :     0.000126
      f-2     :     0.000126
      f+3     :     0.000000
      f-3     :     0.000000

SPIN
  0 Mns       :     0.760777  s :     0.760777
      pz      :     0.224189  p :     0.238483
      px      :     0.007147
      py      :     0.007147
      dz2     :     0.934530  d :     4.860985
      dxz     :     0.963503
      dyz     :     0.963503
      dx2y2   :     0.999725
      dxy     :     0.999725
      f0      :    -0.000002  f :    -0.001595
      f+1     :    -0.000799
      f-1     :    -0.000799
      f+2     :     0.000003
      f-2     :     0.000003
      f+3     :     0.000000
      f-3     :     0.000000
      g0      :    -0.000014  g :    -0.000027
      g+1     :    -0.000007
      g-1     :    -0.000007
      g+2     :     0.000001
      g-2     :     0.000001
      g+3     :    -0.000000
      g-3     :    -0.000000
      g+4     :    -0.000000
      g-4     :     0.000000
  1 Brs       :     0.015498  s :     0.015498
      pz      :     0.063615  p :     0.125107
      px      :     0.030746
      py      :     0.030746
      dz2     :     0.001331  d :     0.000525
      dxz     :    -0.000549
      dyz     :    -0.000549
      dx2y2   :     0.000146
      dxy     :     0.000146
      f0      :     0.000076  f :     0.000247
      f+1     :    -0.000040
      f-1     :    -0.000040
      f+2     :     0.000126
      f-2     :     0.000126
      f+3     :     0.000000
      f-3     :     0.000000


                     *******************************
                     * LOEWDIN POPULATION ANALYSIS *
                     *******************************

-------------------------------------------
LOEWDIN ATOMIC CHARGES AND SPIN POPULATIONS
-------------------------------------------
   0 Mn:    0.042091    5.758871
   1 Br:   -0.042091    0.241129

----------------------------------------------------
LOEWDIN REDUCED ORBITAL CHARGES AND SPIN POPULATIONS
----------------------------------------------------
CHARGE
  0 Mns       :     6.756811  s :     6.756811
      pz      :     4.527722  p :    12.671238
      px      :     4.071758
      py      :     4.071758
      dz2     :     1.186107  d :     5.387862
      dxz     :     1.102787
      dyz     :     1.102787
      dx2y2   :     0.998090
      dxy     :     0.998090
      f0      :     0.054980  f :     0.137095
      f+1     :     0.041020
      f-1     :     0.041020
      f+2     :     0.000037
      f-2     :     0.000037
      f+3     :     0.000000
      f-3     :     0.000000
      g0      :     0.002363  g :     0.004903
      g+1     :     0.001267
      g-1     :     0.001267
      g+2     :     0.000003
      g-2     :     0.000003
      g+3     :     0.000000
      g-3     :     0.000000
      g+4     :     0.000000
      g-4     :     0.000000
  1 Brs       :     7.641498  s :     7.641498
      pz      :     5.686286  p :    17.183237
      px      :     5.748475
      py      :     5.748475
      dz2     :     2.105777  d :    10.146143
      dxz     :     2.019445
      dyz     :     2.019445
      dx2y2   :     2.000738
      dxy     :     2.000738
      f0      :     0.038455  f :     0.071213
      f+1     :     0.015247
      f-1     :     0.015247
      f+2     :     0.001131
      f-2     :     0.001131
      f+3     :     0.000000
      f-3     :     0.000000

SPIN
  0 Mns       :     0.639879  s :     0.639879
      pz      :     0.292739  p :     0.317281
      px      :     0.012271
      py      :     0.012271
      dz2     :     0.917632  d :     4.795714
      dxz     :     0.940954
      dyz     :     0.940954
      dx2y2   :     0.998087
      dxy     :     0.998087
      f0      :     0.002857  f :     0.005589
      f+1     :     0.001336
      f-1     :     0.001336
      f+2     :     0.000030
      f-2     :     0.000030
      f+3     :     0.000000
      f-3     :     0.000000
      g0      :     0.000203  g :     0.000408
      g+1     :     0.000099
      g-1     :     0.000099
      g+2     :     0.000003
      g-2     :     0.000003
      g+3     :    -0.000000
      g-3     :    -0.000000
      g+4     :    -0.000000
      g-4     :     0.000000
  1 Brs       :     0.027200  s :     0.027200
      pz      :     0.090887  p :     0.144400
      px      :     0.026757
      py      :     0.026757
      dz2     :     0.024035  d :     0.043019
      dxz     :     0.008744
      dyz     :     0.008744
      dx2y2   :     0.000748
      dxy     :     0.000748
      f0      :     0.004568  f :     0.026510
      f+1     :     0.009840
      f-1     :     0.009840
      f+2     :     0.001131
      f-2     :     0.001131
      f+3     :     0.000000
      f-3     :     0.000000


                      *****************************
                      * MAYER POPULATION ANALYSIS *
                      *****************************

  NA   - Mulliken gross atomic population
  ZA   - Total nuclear charge
  QA   - Mulliken gross atomic charge
  VA   - Mayer's total valence
  BVA  - Mayer's bonded valence
  FA   - Mayer's free valence

  ATOM       NA         ZA         QA         VA         BVA        FA
  0 Mn    24.5468    25.0000     0.4532     6.6896     0.9470     5.7426
  1 Br    35.4532    35.0000    -0.4532     0.9533     0.9470     0.0064

  Mayer bond orders larger than 0.100000
B(  0-Mn,  1-Br) :   0.9470 

-------
TIMINGS
-------

Total SCF time: 0 days 0 hours 6 min 59 sec 

Total time                  ....     419.156 sec
Sum of individual times     ....     418.757 sec  ( 99.9%)

Fock matrix formation       ....     418.258 sec  ( 99.8%)
  XC integration            ....       0.536 sec  (  0.1% of F)
    Basis function eval.    ....       0.119 sec  ( 22.2% of XC)
    Density eval.           ....       0.058 sec  ( 10.8% of XC)
    XC-Functional eval.     ....       0.023 sec  (  4.2% of XC)
    XC-Potential eval.      ....       0.133 sec  ( 24.8% of XC)
Diagonalization             ....       0.091 sec  (  0.0%)
Density matrix formation    ....       0.013 sec  (  0.0%)
Population analysis         ....       0.007 sec  (  0.0%)
Initial guess               ....       0.116 sec  (  0.0%)
Orbital Transformation      ....       0.000 sec  (  0.0%)
Orbital Orthonormalization  ....       0.000 sec  (  0.0%)
DIIS solution               ....       0.032 sec  (  0.0%)
Grid generation             ....       0.240 sec  (  0.1%)

-------------------------   --------------------
FINAL SINGLE POINT ENERGY     -3724.885750677137
-------------------------   --------------------


                            ***************************************
                            *     ORCA property calculations      *
                            ***************************************

                                    ---------------------
                                    Active property flags
                                    ---------------------
   (+) Dipole Moment


------------------------------------------------------------------------------
                       ORCA ELECTRIC PROPERTIES CALCULATION
------------------------------------------------------------------------------

Dipole Moment Calculation                       ... on
Quadrupole Moment Calculation                   ... off
Polarizability Calculation                      ... off
GBWName                                         ... 28_MnBr.gbw
Electron density file                           ... 28_MnBr.scfp
The origin for moment calculation is the CENTER OF MASS  = ( 0.000000,  0.000000  2.305635)

-------------
DIPOLE MOMENT
-------------
                                X             Y             Z
Electronic contribution:      0.00000       0.00000       1.36624
Nuclear contribution   :      0.00000       0.00000      -2.48612
                        -----------------------------------------
Total Dipole Moment    :      0.00000       0.00000      -1.11988
                        -----------------------------------------
Magnitude (a.u.)       :      1.11988
Magnitude (Debye)      :      2.84651



--------------------
Rotational spectrum 
--------------------
 
Rotational constants in cm-1:     0.000000     0.091574     0.091574 
Rotational constants in MHz :     0.000000  2745.330169  2745.330169 

 Dipole components along the rotational axes: 
x,y,z [a.u.] :    -1.119880     0.000000     0.000000 
x,y,z [Debye]:    -2.846509     0.000000     0.000000 

 

Timings for individual modules:

Sum of individual times         ...      424.784 sec (=   7.080 min)
GTO integral calculation        ...        5.034 sec (=   0.084 min)   1.2 %
SCF iterations                  ...      419.750 sec (=   6.996 min)  98.8 %
                             ****ORCA TERMINATED NORMALLY****
TOTAL RUN TIME: 0 days 0 hours 7 minutes 5 seconds 394 msec
