
                                 *****************
                                 * O   R   C   A *
                                 *****************

           --- An Ab Initio, DFT and Semiempirical electronic structure package ---

                  #######################################################
                  #                        -***-                        #
                  #          Department of theory and spectroscopy      #
                  #               Directorship: Frank Neese             #
                  #        Max Planck Institute fuer Kohlenforschung    #
                  #                Kaiser Wilhelm Platz 1               #
                  #                 D-45470 Muelheim/Ruhr               #
                  #                      Germany                        #
                  #                                                     #
                  #                  All rights reserved                #
                  #                        -***-                        #
                  #######################################################


                         Program Version 4.2.0 -  RELEASE  -


 With contributions from (in alphabetic order):
   Daniel Aravena         : Magnetic Suceptibility
   Michael Atanasov       : Ab Initio Ligand Field Theory (pilot matlab implementation)
   Alexander A. Auer      : GIAO ZORA, VPT2
   Ute Becker             : Parallelization
   Giovanni Bistoni       : ED, misc. LED, open-shell LED, HFLED
   Martin Brehm           : Molecular dynamics
   Dmytro Bykov           : SCF Hessian
   Vijay G. Chilkuri      : MRCI spin determinant printing, contributions to CSF-ICE
   Dipayan Datta          : RHF DLPNO-CCSD density
   Achintya Kumar Dutta   : EOM-CC, STEOM-CC
   Dmitry Ganyushin       : Spin-Orbit,Spin-Spin,Magnetic field MRCI
   Miquel Garcia          : C-PCM Hessian, Gaussian charge scheme
   Yang Guo               : DLPNO-NEVPT2, CIM, IAO-localization
   Andreas Hansen         : Spin unrestricted coupled pair/coupled cluster methods
   Benjamin Helmich-Paris : CASSCF linear response (MC-RPA)
   Lee Huntington         : MR-EOM, pCC
   Robert Izsak           : Overlap fitted RIJCOSX, COSX-SCS-MP3, EOM
   Christian Kollmar      : KDIIS, OOCD, Brueckner-CCSD(T), CCSD density
   Simone Kossmann        : Meta GGA functionals, TD-DFT gradient, OOMP2, MP2 Hessian
   Martin Krupicka        : AUTO-CI
   Lucas Lang             : DCDCAS
   Dagmar Lenk            : GEPOL surface, SMD
   Dimitrios Liakos       : Extrapolation schemes; Compound Job, initial MDCI parallelization
   Dimitrios Manganas     : Further ROCIS development; embedding schemes
   Dimitrios Pantazis     : SARC Basis sets
   Taras Petrenko         : DFT Hessian,TD-DFT gradient, ASA, ECA, R-Raman, ABS, FL, XAS/XES, NRVS
   Peter Pinski           : DLPNO-MP2, DLPNO-MP2 Gradient
   Christoph Reimann      : Effective Core Potentials
   Marius Retegan         : Local ZFS, SOC
   Christoph Riplinger    : Optimizer, TS searches, QM/MM, DLPNO-CCSD(T), (RO)-DLPNO pert. Triples
   Tobias Risthaus        : Range-separated hybrids, TD-DFT gradient, RPA, STAB
   Michael Roemelt        : Original ROCIS implementation
   Masaaki Saitow         : Open-shell DLPNO-CCSD energy and density
   Barbara Sandhoefer     : DKH picture change effects
   Avijit Sen             : IP-ROCIS
   Kantharuban Sivalingam : CASSCF convergence, NEVPT2, FIC-MRCI
   Bernardo de Souza      : ESD, SOC TD-DFT
   Georgi Stoychev        : AutoAux, RI-MP2 NMR
   Willem Van den Heuvel  : Paramagnetic NMR
   Boris Wezisla          : Elementary symmetry handling
   Frank Wennmohs         : Technical directorship


 We gratefully acknowledge several colleagues who have allowed us to
 interface, adapt or use parts of their codes:
   Stefan Grimme, W. Hujo, H. Kruse,             : VdW corrections, initial TS optimization,
                  C. Bannwarth                     DFT functionals, gCP, sTDA/sTD-DF
   Ed Valeev, F. Pavosevic, A. Kumar             : LibInt (2-el integral package), F12 methods
   Garnet Chan, S. Sharma, J. Yang, R. Olivares  : DMRG
   Ulf Ekstrom                                   : XCFun DFT Library
   Mihaly Kallay                                 : mrcc  (arbitrary order and MRCC methods)
   Andreas Klamt, Michael Diedenhofen            : otool_cosmo (COSMO solvation model)
   Jiri Pittner, Ondrej Demel                    : Mk-CCSD
   Frank Weinhold                                : gennbo (NPA and NBO analysis)
   Christopher J. Cramer and Donald G. Truhlar   : smd solvation model
   Lars Goerigk                                  : TD-DFT with DH, B97 family of functionals
   V. Asgeirsson, H. Jonsson                     : NEB implementation
   FAccTs GmbH                                   : IRC, NEB, NEB-TS, Multilevel, MM, QM/MM, CI optimization
   S Lehtola, MJT Oliveira, MAL Marques          : LibXC Library


 Your calculation uses the libint2 library for the computation of 2-el integrals
 For citations please refer to: http://libint.valeyev.net

 Your ORCA version has been built with support for libXC version: 4.2.3
 For citations please refer to: https://tddft.org/programs/libxc/

 This ORCA versions uses:
   CBLAS   interface :  Fast vector & matrix operations
   LAPACKE interface :  Fast linear algebra routines
   SCALAPACK package :  Parallel linear algebra routines


Your calculation utilizes the DFT-NL dispersion correction.
Cite in your paper:
Vydrov, O. A.; Van Voorhis, T. J. Chem. Phys. 2010, 133, 244103
Hujo, W.; Grimme, S. J. Chem. Theory Comput. 2011, 7, 3866 
   

----- Orbital basis set information -----
Your calculation utilizes the basis: aug-cc-pVTZ 
    H, B-Ne : Obtained from the ccRepo (grant-hill.group.shef.ac.uk/ccrepo) Feb. 2017
              R. A. Kendall, T. H. Dunning, Jr., R. J. Harrison, J. Chem. Phys. 96, 6796 (1992)
         He : Obtained from the ccRepo (grant-hill.group.shef.ac.uk/ccrepo) Feb. 2017
              D. E. Woon, T. H. Dunning, Jr., J. Chem. Phys. 100, 2975 (1994)
  Li-Be, Na : Obtained from the ccRepo (grant-hill.group.shef.ac.uk/ccrepo) Feb. 2017
              B. P. Prascher, D. E. Woon, K. A. Peterson, T. H. Dunning, Jr., A. K. Wilson, Theor. Chem. Acc. 128, 69 (2011)
         Mg : Obtained from the Peterson Research Group Website (tyr0.chem.wsu.edu/~kipeters) Feb. 2017
              B. P. Prascher, D. E. Woon, K. A. Peterson, T. H. Dunning, Jr., A. K. Wilson, Theor. Chem. Acc. 128, 69 (2011)
      Al-Ar : Obtained from the ccRepo (grant-hill.group.shef.ac.uk/ccrepo) Feb. 2017
              D. E. Woon, T. H. Dunning, Jr., J. Chem. Phys. 98, 1358 (1993)
      Sc-Zn : Obtained from the ccRepo (grant-hill.group.shef.ac.uk/ccrepo) Feb. 2017
              N. B. Balabanov, K. A. Peterson, J. Chem. Phys. 123, 064107 (2005)
              N. B. Balabanov, K. A. Peterson, J. Chem. Phys. 125, 074110 (2006)
      Ga-Kr : Obtained from the ccRepo (grant-hill.group.shef.ac.uk/ccrepo) Feb. 2017
              A. K. Wilson, D. E. Woon, K. A. Peterson, T. H. Dunning, Jr., J. Chem. Phys. 110, 7667 (1999)
     Ag, Au : Obtained from the Peterson Research Group Website (tyr0.chem.wsu.edu/~kipeters) Feb. 2017
              K. A. Peterson, C. Puzzarini, Theor. Chem. Acc. 114, 283 (2005)

----- AuxJK basis set information -----
Your calculation utilizes the auxiliary basis: def2/JK
   H-Ba, Hf-Rn: F. Weigend, J. Comput. Chem. 29, 167 (2008).

================================================================================
                                        WARNINGS
                       Please study these warnings very carefully!
================================================================================


WARNING: your system is open-shell and RHF/RKS was chosen
  ===> : WILL SWITCH to UHF/UKS


INFO   : the flag for use of LIBINT has been found!

================================================================================
                                       INPUT FILE
================================================================================
NAME = 32_FeF.in
|  1> #
|  2> # 32_FeF wb97x-v/aug-cc-pvtz
|  3> #
|  4> ! wb97x-v aug-cc-pvtz def2/jk grid4 nofinalgrid
|  5> 
|  6> *xyz 0 6
|  7>   Fe  0.00000000000000      0.00000000000000      0.10964273788681
|  8>   F   0.00000000000000      0.00000000000000      1.89035726211319
|  9> *
| 10> 
| 11> %pal
| 12> nprocs 24
| 13> end
| 14> 
| 15> 
| 16>                          ****END OF INPUT****
================================================================================

                       ****************************
                       * Single Point Calculation *
                       ****************************

---------------------------------
CARTESIAN COORDINATES (ANGSTROEM)
---------------------------------
  Fe     0.000000    0.000000    0.109643
  F      0.000000    0.000000    1.890357

----------------------------
CARTESIAN COORDINATES (A.U.)
----------------------------
  NO LB      ZA    FRAG     MASS         X           Y           Z
   0 Fe   26.0000    0    55.850    0.000000    0.000000    0.207195
   1 F     9.0000    0    18.998    0.000000    0.000000    3.572258

--------------------------------
INTERNAL COORDINATES (ANGSTROEM)
--------------------------------
 Fe     0   0   0     0.000000000000     0.00000000     0.00000000
 F      1   0   0     1.780714524226     0.00000000     0.00000000

---------------------------
INTERNAL COORDINATES (A.U.)
---------------------------
 Fe     0   0   0     0.000000000000     0.00000000     0.00000000
 F      1   0   0     3.365062773484     0.00000000     0.00000000

---------------------
BASIS SET INFORMATION
---------------------
There are 2 groups of distinct atoms

 Group   1 Type Fe  : 116s77p23d3f2g contracted to 8s7p5d3f2g pattern {19191919191911/151515151511/77711/111/11}
 Group   2 Type F   : 19s6p3d2f contracted to 5s4p3d2f pattern {88111/3111/111/11}

Atom   0Fe   basis set group =>   1
Atom   1F    basis set group =>   2
----------------------------------
AUXILIARY/JK BASIS SET INFORMATION
----------------------------------
There are 2 groups of distinct atoms

 Group   1 Type Fe  : 19s14p12d10f7g3h1i contracted to 16s13p11d9f5g3h1i pattern {4111111111111111/2111111111111/21111111111/211111111/31111/111/1}
 Group   2 Type F   : 14s10p6d2f1g contracted to 10s8p4d2f1g pattern {5111111111/31111111/3111/11/1}

Atom   0Fe   basis set group =>   1
Atom   1F    basis set group =>   2


           ************************************************************
           *        Program running with 24 parallel MPI-processes    *
           *              working on a common directory               *
           ************************************************************
------------------------------------------------------------------------------
                           ORCA GTO INTEGRAL CALCULATION
------------------------------------------------------------------------------

                         BASIS SET STATISTICS AND STARTUP INFO

 # of primitive gaussian shells          ...  251
 # of primitive gaussian functions       ...  567
 # of contracted shells                  ...   39
 # of contracted basis functions         ...  139
 Highest angular momentum                ...    4
 Maximum contraction depth               ...   19
 Integral package used                   ... LIBINT
 Integral threshhold            Thresh   ...  1.000e-10
 Primitive cut-off              TCut     ...  1.000e-11


------------------------------ INTEGRAL EVALUATION ----------------------------


 * One electron integrals 
 Pre-screening matrix                    ... done
 Shell pair data                         ... done (   0.001 sec)



           ************************************************************
           *        Program running with 24 parallel MPI-processes    *
           *              working on a common directory               *
           ************************************************************
-------------------------------------------------------------------------------
                                 ORCA SCF
-------------------------------------------------------------------------------

------------
SCF SETTINGS
------------
Hamiltonian:
 Density Functional     Method          .... DFT(GTOs)
 Exchange Functional    Exchange        .... WB97X-V
 Correlation Functional Correlation     .... WB97X-V
 Gradients option       PostSCFGGA      .... off
 Hybrid DFT is turned on
   Fraction HF Exchange ScalHFX         ....  0.167000
   Scaling of DF-GGA-X  ScalDFX         ....  0.000000
   Scaling of DF-GGA-C  ScalDFC         ....  1.000000
   Scaling of DF-LDA-C  ScalLDAC        ....  1.000000
   Perturbative correction              ....  0.000000
   Density functional embedding theory  .... OFF
 Long-range corrected/Screened/Range-Separated Hybrid DFT is turned on
   Amount of maximum screened exact exchange              ....  0.833000
   Range separation parameter mu (erf(mu*r12)/r12)        ....  0.300000
   NL short-range parameter             ....  6.000000
   NL long-range parameter              ....  0.010000


General Settings:
 Integral files         IntName         .... 32_FeF
 Hartree-Fock type      HFTyp           .... UHF
 Total Charge           Charge          ....    0
 Multiplicity           Mult            ....    6
 Number of Electrons    NEL             ....   35
 Basis Dimension        Dim             ....  139
 Nuclear Repulsion      ENuc            ....     69.5380787080 Eh

Convergence Acceleration:
 DIIS                   CNVDIIS         .... on
   Start iteration      DIISMaxIt       ....    12
   Startup error        DIISStart       ....  0.200000
   # of expansion vecs  DIISMaxEq       ....     5
   Bias factor          DIISBfac        ....   1.050
   Max. coefficient     DIISMaxC        ....  10.000
 Newton-Raphson         CNVNR           .... off
 SOSCF                  CNVSOSCF        .... off
 Level Shifting         CNVShift        .... on
   Level shift para.    LevelShift      ....    0.2500
   Turn off err/grad.   ShiftErr        ....    0.0010
 Zerner damping         CNVZerner       .... off
 Static damping         CNVDamp         .... on
   Fraction old density DampFac         ....    0.7000
   Max. Damping (<1)    DampMax         ....    0.9800
   Min. Damping (>=0)   DampMin         ....    0.0000
   Turn off err/grad.   DampErr         ....    0.1000
 Fernandez-Rico         CNVRico         .... off

SCF Procedure:
 Maximum # iterations   MaxIter         ....   125
 SCF integral mode      SCFMode         .... Direct
   Integral package                     .... LIBINT
 Reset frequency        DirectResetFreq ....    20
 Integral Threshold     Thresh          ....  1.000e-10 Eh
 Primitive CutOff       TCut            ....  1.000e-11 Eh

Convergence Tolerance:
 Convergence Check Mode ConvCheckMode   .... Total+1el-Energy
 Convergence forced     ConvForced      .... 0
 Energy Change          TolE            ....  1.000e-06 Eh
 1-El. energy change                    ....  1.000e-03 Eh
 DIIS Error             TolErr          ....  1.000e-06


Diagonalization of the overlap matrix:
Smallest eigenvalue                        ... 9.071e-05
Time for diagonalization                   ...    0.004 sec
Threshold for overlap eigenvalues          ... 1.000e-08
Number of eigenvalues below threshold      ... 0
Time for construction of square roots      ...    0.002 sec
Total time needed                          ...    0.007 sec

-------------------
DFT GRID GENERATION
-------------------

General Integration Accuracy     IntAcc      ...  4.670
Radial Grid Type                 RadialGrid  ... Gauss-Chebyshev
Angular Grid (max. acc.)         AngularGrid ... Lebedev-302
Angular grid pruning method      GridPruning ... 3 (G Style)
Weight generation scheme         WeightScheme... Becke
Basis function cutoff            BFCut       ...    1.0000e-10
Integration weight cutoff        WCut        ...    1.0000e-14
Grids for H and He will be reduced by one unit

# of grid points (after initial pruning)     ...  15912 (   0.0 sec)
# of grid points (after weights+screening)   ...  15863 (   0.0 sec)
nearest neighbour list constructed           ...    0.0 sec
Grid point re-assignment to atoms done       ...    0.0 sec
Grid point division into batches done        ...    0.1 sec
Reduced shell lists constructed in    0.1 sec

Total number of grid points                  ...    15863
Total number of batches                      ...      249
Average number of points per batch           ...       63
Average number of grid points per atom       ...     7932
Average number of shells per batch           ...    14.33 (36.75%)
Average number of basis functions per batch  ...    34.17 (24.58%)
Average number of large shells per batch     ...     7.42 (51.74%)
Average number of large basis fcns per batch ...    18.75 (54.88%)
Maximum spatial batch extension              ...  28.57, 31.41, 18.49 au
Average spatial batch extension              ...   0.89,  0.95,  0.67 au

Time for grid setup =    0.151 sec

------------------------------
INITIAL GUESS: MODEL POTENTIAL
------------------------------
Loading Hartree-Fock densities                     ... done
Calculating cut-offs                               ... done
Setting up the integral package                    ... done
Initializing the effective Hamiltonian             ... done
Starting the Coulomb interaction                   ... done (   0.0 sec)
Reading the grid                                   ... done
Mapping shells                                     ... done
Starting the XC term evaluation                    ... done (   0.0 sec)
  promolecular density results
     # of electrons  =     34.999991727
     EX              =    -48.437346294
     EC              =     -1.946794430
     EX+EC           =    -50.384140724
Transforming the Hamiltonian                       ... done (   0.0 sec)
Diagonalizing the Hamiltonian                      ... done (   0.0 sec)
Back transforming the eigenvectors                 ... done (   0.0 sec)
Now organizing SCF variables                       ... done
                      ------------------
                      INITIAL GUESS DONE (   0.2 sec)
                      ------------------
--------------
SCF ITERATIONS
--------------
ITER       Energy         Delta-E        Max-DP      RMS-DP      [F,P]     Damp
               ***  Starting incremental Fock matrix formation  ***
  0  -1354.7032915544   0.000000000000 1.66237140  0.02738355  1.5428575 0.7000
  1  -1359.1026109621  -4.399319407674 1.18128891  0.01328892  0.5694165 0.7000
  2  -1360.5902019439  -1.487590981783 0.84785807  0.00971456  0.4697768 0.7000
  3  -1361.5190753158  -0.928873371910 0.59933801  0.00682011  0.3600212 0.7000
  4  -1362.1272032277  -0.608127911925 0.42091177  0.00478069  0.2449494 0.7000
                               ***Turning on DIIS***
  5  -1362.5496930130  -0.422489785284 0.29473077  0.00337470  0.1688543 0.7000
  6  -1362.8492424416  -0.299549428578 0.20591638  0.00244279  0.1229933 0.7000
  7  -1363.0629248864  -0.213682444823 0.47479108  0.00589072  0.0879378 0.0000
  8  -1363.5833517783  -0.520426891858 0.07129941  0.00060074  0.0135118 0.0000
  9  -1363.5856950283  -0.002343249998 0.04540357  0.00045484  0.0090408 0.0000
 10  -1363.5867848589  -0.001089830654 0.02343542  0.00020675  0.0104656 0.0000
 11  -1363.5871562925  -0.000371433609 0.01431912  0.00010754  0.0032651 0.0000
 12  -1363.5872758761  -0.000119583544 0.00755574  0.00005201  0.0018420 0.0000
 13  -1363.5873097247  -0.000033848605 0.00583549  0.00004161  0.0009522 0.0000
 14  -1363.5873204125  -0.000010687829 0.00089161  0.00000948  0.0002863 0.0000
                 **** Energy Check signals convergence ****

               *****************************************************
               *                     SUCCESS                       *
               *           SCF CONVERGED AFTER  15 CYCLES          *
               *****************************************************


Setting up the DFT-NL grid :

General Integration Accuracy     IntAcc      ...  4.340
Radial Grid Type                 RadialGrid  ... Gauss-Chebyshev
Angular Grid (max. acc.)         AngularGrid ... Lebedev-110
Angular grid pruning method      GridPruning ... 3 (G Style)
Weight generation scheme         WeightScheme... Becke
Basis function cutoff            BFCut       ...    1.0000e-10
Integration weight cutoff        WCut        ...    1.0000e-14
Grids for H and He will be reduced by one unit

# of grid points (after initial pruning)     ...   4652 (   0.0 sec)
# of grid points (after weights+screening)   ...   4627 (   0.0 sec)
nearest neighbour list constructed           ...    0.0 sec
Grid point re-assignment to atoms done       ...    0.0 sec
Grid point division into batches done        ...    0.0 sec
Reduced shell lists constructed in    0.0 sec

Total number of grid points                  ...     4627
Total number of batches                      ...       73
Average number of points per batch           ...       63
Average number of grid points per atom       ...     2314
Average number of shells per batch           ...    20.80 (53.33%)
Average number of basis functions per batch  ...    59.20 (42.59%)
Average number of large shells per batch     ...    14.80 (71.15%)
Average number of large basis fcns per batch ...    41.60 (70.27%)
Maximum spatial batch extension              ...  19.55, 28.73, 15.95 au
Average spatial batch extension              ...   1.01,  1.33,  0.87 au

Final grid set up in    0.0 sec

-------------------------------------------------------------------------------
                         DFT-NL dispersion correction                          
-------------------------------------------------------------------------------

SC Energy -1363.587321152 
NL    Energy 0.147863864 
SC+NL Energy -1363.439457288 
NL done in    0.0 sec
-------------------------------------------------------------------------------

----------------
TOTAL SCF ENERGY
----------------

Total Energy       :        -1363.43945729 Eh          -37101.07381 eV

Components:
Nuclear Repulsion  :           69.53807871 Eh            1892.22732 eV
Electronic Energy  :        -1432.97753600 Eh          -38993.30114 eV
One Electron Energy:        -2023.52020599 Eh          -55062.78414 eV
Two Electron Energy:          590.54267000 Eh           16069.48301 eV

Virial components:
Potential Energy   :        -2724.95089790 Eh          -74149.68363 eV
Kinetic Energy     :         1361.51144061 Eh           37048.60981 eV
Virial Ratio       :            2.00141609


DFT components:
N(Alpha)           :       20.000014838413 electrons
N(Beta)            :       15.000014112020 electrons
N(Total)           :       35.000028950432 electrons
E(X)               :      -48.698038173246 Eh       
E(C)               :       -1.904875273368 Eh       
NL Energy, E(C,NL) :        0.147863863596 Eh       
E(XC)              :      -50.455049583018 Eh       
DFET-embed. en.    :        0.000000000000 Eh       

---------------
SCF CONVERGENCE
---------------

  Last Energy change         ...   -7.3937e-07  Tolerance :   1.0000e-06
  Last MAX-Density change    ...    4.3000e-04  Tolerance :   1.0000e-05
  Last RMS-Density change    ...    4.6055e-06  Tolerance :   1.0000e-06
  Last DIIS Error            ...    1.7065e-04  Tolerance :   1.0000e-06

             **** THE GBW FILE WAS UPDATED (32_FeF.gbw) ****
             **** DENSITY FILE WAS UPDATED (32_FeF.scfp) ****
             **** ENERGY FILE WAS UPDATED (32_FeF.en.tmp) ****
----------------------
UHF SPIN CONTAMINATION
----------------------

Warning: in a DFT calculation there is little theoretical justification to 
         calculate <S**2> as in Hartree-Fock theory. We will do it anyways
         but you should keep in mind that the values have only limited relevance

Expectation value of <S**2>     :     8.753236
Ideal value S*(S+1) for S=2.5   :     8.750000
Deviation                       :     0.003236

             **** THE GBW FILE WAS UPDATED (32_FeF.gbw) ****
             **** DENSITY FILE WAS UPDATED (32_FeF.scfp) ****
----------------
ORBITAL ENERGIES
----------------
                 SPIN UP ORBITALS
  NO   OCC          E(Eh)            E(eV) 
   0   1.0000    -256.034808     -6967.0613 
   1   1.0000     -30.178589      -821.2012 
   2   1.0000     -26.043343      -708.6754 
   3   1.0000     -26.016670      -707.9496 
   4   1.0000     -26.016670      -707.9496 
   5   1.0000     -24.706349      -672.2939 
   6   1.0000      -3.722772      -101.3018 
   7   1.0000      -2.533113       -68.9295 
   8   1.0000      -2.480947       -67.5100 
   9   1.0000      -2.480947       -67.5100 
  10   1.0000      -1.242364       -33.8064 
  11   1.0000      -0.588848       -16.0234 
  12   1.0000      -0.555795       -15.1240 
  13   1.0000      -0.555795       -15.1240 
  14   1.0000      -0.512442       -13.9442 
  15   1.0000      -0.478921       -13.0321 
  16   1.0000      -0.465054       -12.6548 
  17   1.0000      -0.465054       -12.6548 
  18   1.0000      -0.461998       -12.5716 
  19   1.0000      -0.289643        -7.8816 
  20   0.0000       0.014088         0.3833 
  21   0.0000       0.014088         0.3833 
  22   0.0000       0.025120         0.6835 
  23   0.0000       0.030971         0.8428 
  24   0.0000       0.058525         1.5925 
  25   0.0000       0.058525         1.5925 
  26   0.0000       0.087519         2.3815 
  27   0.0000       0.093767         2.5515 
  28   0.0000       0.094163         2.5623 
  29   0.0000       0.099977         2.7205 
  30   0.0000       0.099977         2.7205 
  31   0.0000       0.117050         3.1851 
  32   0.0000       0.149353         4.0641 
  33   0.0000       0.224592         6.1115 
  34   0.0000       0.224592         6.1115 
  35   0.0000       0.257744         7.0136 
  36   0.0000       0.294705         8.0193 
  37   0.0000       0.299486         8.1494 
  38   0.0000       0.299486         8.1494 
  39   0.0000       0.325196         8.8490 
  40   0.0000       0.327819         8.9204 
  41   0.0000       0.352904         9.6030 
  42   0.0000       0.352904         9.6030 
  43   0.0000       0.402758        10.9596 
  44   0.0000       0.523619        14.2484 
  45   0.0000       0.629457        17.1284 
  46   0.0000       0.788720        21.4622 
  47   0.0000       0.789033        21.4707 
  48   0.0000       0.794821        21.6282 
  49   0.0000       0.794821        21.6282 
  50   0.0000       0.903862        24.5953 
  51   0.0000       0.903862        24.5953 
  52   0.0000       0.905476        24.6392 
  53   0.0000       0.965316        26.2676 
  54   0.0000       0.965316        26.2676 
  55   0.0000       1.025910        27.9164 
  56   0.0000       1.037146        28.2222 
  57   0.0000       1.037146        28.2222 
  58   0.0000       1.073782        29.2191 
  59   0.0000       1.075493        29.2657 
  60   0.0000       1.138440        30.9785 
  61   0.0000       1.138440        30.9785 
  62   0.0000       1.159525        31.5523 
  63   0.0000       1.165619        31.7181 
  64   0.0000       1.169282        31.8178 
  65   0.0000       1.447031        39.3757 
  66   0.0000       1.484292        40.3896 
  67   0.0000       1.592787        43.3419 
  68   0.0000       1.592787        43.3419 
  69   0.0000       2.377591        64.6975 
  70   0.0000       2.474239        67.3275 
  71   0.0000       2.474239        67.3275 
  72   0.0000       2.610109        71.0247 
  73   0.0000       2.613133        71.1070 
  74   0.0000       2.641196        71.8706 
  75   0.0000       2.686516        73.1038 
  76   0.0000       2.686516        73.1038 
  77   0.0000       2.748532        74.7914 
  78   0.0000       2.756899        75.0190 
  79   0.0000       2.778275        75.6007 
  80   0.0000       2.778275        75.6007 
  81   0.0000       2.825738        76.8922 
  82   0.0000       2.826556        76.9145 
  83   0.0000       2.875068        78.2346 
  84   0.0000       2.875068        78.2346 
  85   0.0000       2.876467        78.2727 
  86   0.0000       3.009290        81.8869 
  87   0.0000       3.033844        82.5551 
  88   0.0000       3.033844        82.5551 
  89   0.0000       3.298051        89.7445 
  90   0.0000       3.298051        89.7445 
  91   0.0000       3.360382        91.4406 
  92   0.0000       3.360873        91.4540 
  93   0.0000       3.385800        92.1323 
  94   0.0000       3.385800        92.1323 
  95   0.0000       3.391079        92.2760 
  96   0.0000       3.638632        99.0122 
  97   0.0000       3.677491       100.0696 
  98   0.0000       3.681506       100.1789 
  99   0.0000       4.143591       112.7529 
 100   0.0000       4.143591       112.7529 
 101   0.0000       4.304890       117.1420 
 102   0.0000       4.521979       123.0493 
 103   0.0000       4.546876       123.7268 
 104   0.0000       4.839547       131.6908 
 105   0.0000       4.839547       131.6908 
 106   0.0000       4.996759       135.9687 
 107   0.0000       4.996759       135.9687 
 108   0.0000       5.157737       140.3492 
 109   0.0000       5.970784       162.4733 
 110   0.0000       8.433421       229.4851 
 111   0.0000       8.433421       229.4851 
 112   0.0000       8.520918       231.8660 
 113   0.0000       8.521641       231.8856 
 114   0.0000       8.704927       236.8731 
 115   0.0000       8.704927       236.8731 
 116   0.0000       8.741030       237.8555 
 117   0.0000       8.840267       240.5559 
 118   0.0000       8.846140       240.7157 
 119   0.0000       8.860878       241.1168 
 120   0.0000       8.916883       242.6407 
 121   0.0000       8.928209       242.9489 
 122   0.0000       8.928209       242.9489 
 123   0.0000       8.932217       243.0580 
 124   0.0000       8.932217       243.0580 
 125   0.0000       8.937433       243.1999 
 126   0.0000       9.137468       248.6431 
 127   0.0000       9.137468       248.6431 
 128   0.0000       9.421318       256.3671 
 129   0.0000       9.650073       262.5918 
 130   0.0000       9.650073       262.5918 
 131   0.0000       9.664141       262.9747 
 132   0.0000       9.664173       262.9755 
 133   0.0000       9.725716       264.6502 
 134   0.0000       9.744261       265.1548 
 135   0.0000       9.998746       272.0797 
 136   0.0000       9.998746       272.0797 
 137   0.0000      10.226037       278.2646 
 138   0.0000      14.159963       385.3122 

                 SPIN DOWN ORBITALS
  NO   OCC          E(Eh)            E(eV) 
   0   1.0000    -256.032582     -6967.0008 
   1   1.0000     -30.104317      -819.1801 
   2   1.0000     -25.973069      -706.7631 
   3   1.0000     -25.961654      -706.4525 
   4   1.0000     -25.961654      -706.4525 
   5   1.0000     -24.701143      -672.1523 
   6   1.0000      -3.546384       -96.5020 
   7   1.0000      -2.308744       -62.8241 
   8   1.0000      -2.307933       -62.8020 
   9   1.0000      -2.307933       -62.8020 
  10   1.0000      -1.227369       -33.3984 
  11   1.0000      -0.521333       -14.1862 
  12   1.0000      -0.486874       -13.2485 
  13   1.0000      -0.486874       -13.2485 
  14   1.0000      -0.392318       -10.6755 
  15   0.0000      -0.034778        -0.9464 
  16   0.0000       0.012418         0.3379 
  17   0.0000       0.012418         0.3379 
  18   0.0000       0.020720         0.5638 
  19   0.0000       0.026230         0.7138 
  20   0.0000       0.032320         0.8795 
  21   0.0000       0.032321         0.8795 
  22   0.0000       0.038514         1.0480 
  23   0.0000       0.054232         1.4757 
  24   0.0000       0.090837         2.4718 
  25   0.0000       0.090837         2.4718 
  26   0.0000       0.106794         2.9060 
  27   0.0000       0.111996         3.0476 
  28   0.0000       0.114794         3.1237 
  29   0.0000       0.114795         3.1237 
  30   0.0000       0.118324         3.2198 
  31   0.0000       0.129696         3.5292 
  32   0.0000       0.190702         5.1893 
  33   0.0000       0.257315         7.0019 
  34   0.0000       0.257315         7.0019 
  35   0.0000       0.280157         7.6235 
  36   0.0000       0.303887         8.2692 
  37   0.0000       0.303887         8.2692 
  38   0.0000       0.337141         9.1741 
  39   0.0000       0.344451         9.3730 
  40   0.0000       0.368289        10.0216 
  41   0.0000       0.400209        10.8902 
  42   0.0000       0.400209        10.8902 
  43   0.0000       0.426471        11.6049 
  44   0.0000       0.556340        15.1388 
  45   0.0000       0.676636        18.4122 
  46   0.0000       0.798974        21.7412 
  47   0.0000       0.806047        21.9337 
  48   0.0000       0.831504        22.6264 
  49   0.0000       0.831504        22.6264 
  50   0.0000       0.927411        25.2361 
  51   0.0000       0.927411        25.2361 
  52   0.0000       0.949471        25.8364 
  53   0.0000       0.992667        27.0119 
  54   0.0000       0.992667        27.0119 
  55   0.0000       1.058891        28.8139 
  56   0.0000       1.086937        29.5771 
  57   0.0000       1.086937        29.5771 
  58   0.0000       1.098881        29.9021 
  59   0.0000       1.110978        30.2313 
  60   0.0000       1.178743        32.0752 
  61   0.0000       1.178743        32.0752 
  62   0.0000       1.207277        32.8517 
  63   0.0000       1.221831        33.2477 
  64   0.0000       1.235072        33.6080 
  65   0.0000       1.461235        39.7622 
  66   0.0000       1.527984        41.5786 
  67   0.0000       1.629581        44.3432 
  68   0.0000       1.629581        44.3432 
  69   0.0000       2.398539        65.2676 
  70   0.0000       2.511044        68.3290 
  71   0.0000       2.511044        68.3290 
  72   0.0000       2.629339        71.5480 
  73   0.0000       2.633012        71.6479 
  74   0.0000       2.719288        73.9956 
  75   0.0000       2.740306        74.5675 
  76   0.0000       2.740306        74.5675 
  77   0.0000       2.801422        76.2306 
  78   0.0000       2.801422        76.2306 
  79   0.0000       2.820508        76.7499 
  80   0.0000       2.835774        77.1653 
  81   0.0000       2.837684        77.2173 
  82   0.0000       2.844884        77.4132 
  83   0.0000       2.929019        79.7027 
  84   0.0000       2.929019        79.7027 
  85   0.0000       2.941943        80.0543 
  86   0.0000       3.088613        84.0454 
  87   0.0000       3.121577        84.9424 
  88   0.0000       3.121577        84.9424 
  89   0.0000       3.333426        90.7071 
  90   0.0000       3.333426        90.7071 
  91   0.0000       3.405497        92.6683 
  92   0.0000       3.408354        92.7460 
  93   0.0000       3.438096        93.5553 
  94   0.0000       3.438096        93.5553 
  95   0.0000       3.457169        94.0743 
  96   0.0000       3.710762       100.9750 
  97   0.0000       3.722734       101.3008 
  98   0.0000       3.729666       101.4894 
  99   0.0000       4.211067       114.5890 
 100   0.0000       4.211067       114.5890 
 101   0.0000       4.341445       118.1367 
 102   0.0000       4.615227       125.5867 
 103   0.0000       4.667475       127.0084 
 104   0.0000       4.926528       134.0576 
 105   0.0000       4.926528       134.0576 
 106   0.0000       5.032915       136.9526 
 107   0.0000       5.032915       136.9526 
 108   0.0000       5.228233       142.2675 
 109   0.0000       6.040194       164.3620 
 110   0.0000       8.441525       229.7056 
 111   0.0000       8.441525       229.7056 
 112   0.0000       8.532188       232.1726 
 113   0.0000       8.532485       232.1807 
 114   0.0000       8.759711       238.3639 
 115   0.0000       8.765491       238.5211 
 116   0.0000       8.765491       238.5211 
 117   0.0000       8.868005       241.3107 
 118   0.0000       8.868299       241.3187 
 119   0.0000       8.948033       243.4884 
 120   0.0000       8.948033       243.4884 
 121   0.0000       8.949825       243.5371 
 122   0.0000       9.059575       246.5236 
 123   0.0000       9.059575       246.5236 
 124   0.0000       9.066162       246.7028 
 125   0.0000       9.093844       247.4561 
 126   0.0000       9.261300       252.0128 
 127   0.0000       9.261300       252.0128 
 128   0.0000       9.516472       258.9564 
 129   0.0000       9.754276       265.4273 
 130   0.0000       9.758891       265.5529 
 131   0.0000       9.762045       265.6388 
 132   0.0000       9.762045       265.6388 
 133   0.0000       9.843984       267.8684 
 134   0.0000       9.861085       268.3338 
 135   0.0000      10.114561       275.2312 
 136   0.0000      10.114561       275.2312 
 137   0.0000      10.336134       281.2605 
 138   0.0000      14.176924       385.7737 

                    ********************************
                    * MULLIKEN POPULATION ANALYSIS *
                    ********************************

--------------------------------------------
MULLIKEN ATOMIC CHARGES AND SPIN POPULATIONS
--------------------------------------------
   0 Fe:    0.599121    4.850562
   1 F :   -0.599121    0.149438
Sum of atomic charges         :   -0.0000000
Sum of atomic spin populations:    5.0000000

-----------------------------------------------------
MULLIKEN REDUCED ORBITAL CHARGES AND SPIN POPULATIONS
-----------------------------------------------------
CHARGE
  0 Fes       :     6.905567  s :     6.905567
      pz      :     4.247751  p :    12.304305
      px      :     4.028277
      py      :     4.028277
      dz2     :     1.071705  d :     6.168185
      dxz     :     1.048547
      dyz     :     1.048547
      dx2y2   :     0.999821
      dxy     :     1.999565
      f0      :     0.008850  f :     0.020637
      f+1     :     0.005841
      f-1     :     0.005841
      f+2     :     0.000014
      f-2     :     0.000017
      f+3     :     0.000037
      f-3     :     0.000037
      g0      :     0.001093  g :     0.002186
      g+1     :     0.000536
      g-1     :     0.000536
      g+2     :     0.000002
      g-2     :     0.000007
      g+3     :     0.000001
      g-3     :     0.000001
      g+4     :     0.000010
      g-4     :     0.000000
  1 F s       :     3.986118  s :     3.986118
      pz      :     1.775616  p :     5.600512
      px      :     1.912448
      py      :     1.912448
      dz2     :     0.002663  d :     0.010854
      dxz     :     0.003870
      dyz     :     0.003870
      dx2y2   :     0.000125
      dxy     :     0.000327
      f0      :     0.000627  f :     0.001636
      f+1     :     0.000444
      f-1     :     0.000444
      f+2     :     0.000038
      f-2     :     0.000084
      f+3     :     0.000000
      f-3     :     0.000000

SPIN
  0 Fes       :     0.835440  s :     0.835440
      pz      :     0.200530  p :     0.211358
      px      :     0.005414
      py      :     0.005414
      dz2     :     0.898614  d :     3.803999
      dxz     :     0.952769
      dyz     :     0.952769
      dx2y2   :     0.999821
      dxy     :     0.000025
      f0      :     0.000557  f :    -0.000227
      f+1     :    -0.000381
      f-1     :    -0.000381
      f+2     :     0.000014
      f-2     :     0.000011
      f+3     :    -0.000024
      f-3     :    -0.000024
      g0      :    -0.000013  g :    -0.000008
      g+1     :    -0.000003
      g-1     :    -0.000003
      g+2     :     0.000002
      g-2     :     0.000005
      g+3     :     0.000001
      g-3     :     0.000001
      g+4     :     0.000002
      g-4     :     0.000000
  1 F s       :    -0.000223  s :    -0.000223
      pz      :     0.064923  p :     0.150698
      px      :     0.042888
      py      :     0.042888
      dz2     :     0.000060  d :    -0.001305
      dxz     :    -0.000726
      dyz     :    -0.000726
      dx2y2   :     0.000125
      dxy     :    -0.000038
      f0      :     0.000110  f :     0.000268
      f+1     :     0.000061
      f-1     :     0.000061
      f+2     :     0.000038
      f-2     :    -0.000002
      f+3     :    -0.000000
      f-3     :    -0.000000


                     *******************************
                     * LOEWDIN POPULATION ANALYSIS *
                     *******************************

-------------------------------------------
LOEWDIN ATOMIC CHARGES AND SPIN POPULATIONS
-------------------------------------------
   0 Fe:    0.431248    4.740431
   1 F :   -0.431248    0.259569

----------------------------------------------------
LOEWDIN REDUCED ORBITAL CHARGES AND SPIN POPULATIONS
----------------------------------------------------
CHARGE
  0 Fes       :     6.696103  s :     6.696103
      pz      :     4.342674  p :    12.416091
      px      :     4.036709
      py      :     4.036709
      dz2     :     1.153870  d :     6.271983
      dxz     :     1.062763
      dyz     :     1.062763
      dx2y2   :     0.997855
      dxy     :     1.994732
      f0      :     0.075515  f :     0.170680
      f+1     :     0.047467
      f-1     :     0.047467
      f+2     :     0.000071
      f-2     :     0.000088
      f+3     :     0.000037
      f-3     :     0.000037
      g0      :     0.007244  g :     0.013894
      g+1     :     0.003305
      g-1     :     0.003305
      g+2     :     0.000006
      g-2     :     0.000022
      g+3     :     0.000001
      g-3     :     0.000001
      g+4     :     0.000010
      g-4     :     0.000000
  1 F s       :     3.726556  s :     3.726556
      pz      :     1.888021  p :     5.511510
      px      :     1.811744
      py      :     1.811744
      dz2     :     0.091369  d :     0.157020
      dxz     :     0.030252
      dyz     :     0.030252
      dx2y2   :     0.001443
      dxy     :     0.003703
      f0      :     0.018638  f :     0.036163
      f+1     :     0.007723
      f-1     :     0.007723
      f+2     :     0.000625
      f-2     :     0.001455
      f+3     :     0.000000
      f-3     :     0.000000

SPIN
  0 Fes       :     0.725280  s :     0.725280
      pz      :     0.255525  p :     0.278360
      px      :     0.011418
      py      :     0.011418
      dz2     :     0.878687  d :     3.723052
      dxz     :     0.922982
      dyz     :     0.922982
      dx2y2   :     0.997855
      dxy     :     0.000547
      f0      :     0.003951  f :     0.012113
      f+1     :     0.004040
      f-1     :     0.004040
      f+2     :     0.000071
      f-2     :     0.000059
      f+3     :    -0.000024
      f-3     :    -0.000024
      g0      :     0.000686  g :     0.001626
      g+1     :     0.000467
      g-1     :     0.000467
      g+2     :     0.000006
      g-2     :    -0.000004
      g+3     :     0.000001
      g-3     :     0.000001
      g+4     :     0.000002
      g-4     :     0.000000
  1 F s       :     0.028027  s :     0.028027
      pz      :     0.098276  p :     0.176650
      px      :     0.039187
      py      :     0.039187
      dz2     :     0.005558  d :     0.039133
      dxz     :     0.016310
      dyz     :     0.016310
      dx2y2   :     0.001443
      dxy     :    -0.000488
      f0      :     0.004008  f :     0.015758
      f+1     :     0.005620
      f-1     :     0.005620
      f+2     :     0.000625
      f-2     :    -0.000114
      f+3     :    -0.000000
      f-3     :    -0.000000


                      *****************************
                      * MAYER POPULATION ANALYSIS *
                      *****************************

  NA   - Mulliken gross atomic population
  ZA   - Total nuclear charge
  QA   - Mulliken gross atomic charge
  VA   - Mayer's total valence
  BVA  - Mayer's bonded valence
  FA   - Mayer's free valence

  ATOM       NA         ZA         QA         VA         BVA        FA
  0 Fe    25.4009    26.0000     0.5991     5.4437     0.7021     4.7416
  1 F      9.5991     9.0000    -0.5991     0.7115     0.7021     0.0093

  Mayer bond orders larger than 0.100000
B(  0-Fe,  1-F ) :   0.7021 

-------
TIMINGS
-------

Total SCF time: 0 days 0 hours 3 min 36 sec 

Total time                  ....     216.060 sec
Sum of individual times     ....     215.708 sec  ( 99.8%)

Fock matrix formation       ....     215.326 sec  ( 99.7%)
  XC integration            ....       0.361 sec  (  0.2% of F)
    Basis function eval.    ....       0.078 sec  ( 21.7% of XC)
    Density eval.           ....       0.042 sec  ( 11.6% of XC)
    XC-Functional eval.     ....       0.018 sec  (  5.0% of XC)
    XC-Potential eval.      ....       0.099 sec  ( 27.5% of XC)
Diagonalization             ....       0.077 sec  (  0.0%)
Density matrix formation    ....       0.010 sec  (  0.0%)
Population analysis         ....       0.007 sec  (  0.0%)
Initial guess               ....       0.100 sec  (  0.0%)
Orbital Transformation      ....       0.000 sec  (  0.0%)
Orbital Orthonormalization  ....       0.000 sec  (  0.0%)
DIIS solution               ....       0.023 sec  (  0.0%)
Grid generation             ....       0.166 sec  (  0.1%)

-------------------------   --------------------
FINAL SINGLE POINT ENERGY     -1363.439457288279
-------------------------   --------------------


                            ***************************************
                            *     ORCA property calculations      *
                            ***************************************

                                    ---------------------
                                    Active property flags
                                    ---------------------
   (+) Dipole Moment


------------------------------------------------------------------------------
                       ORCA ELECTRIC PROPERTIES CALCULATION
------------------------------------------------------------------------------

Dipole Moment Calculation                       ... on
Quadrupole Moment Calculation                   ... off
Polarizability Calculation                      ... off
GBWName                                         ... 32_FeF.gbw
Electron density file                           ... 32_FeF.scfp
The origin for moment calculation is the CENTER OF MASS  = ( 0.000000,  0.000000  1.061319)

-------------
DIPOLE MOMENT
-------------
                                X             Y             Z
Electronic contribution:      0.00000      -0.00000      -1.19295
Nuclear contribution   :      0.00000       0.00000       0.39123
                        -----------------------------------------
Total Dipole Moment    :      0.00000      -0.00000      -0.80172
                        -----------------------------------------
Magnitude (a.u.)       :      0.80172
Magnitude (Debye)      :      2.03781



--------------------
Rotational spectrum 
--------------------
 
Rotational constants in cm-1:     0.000000     0.375023     0.375023 
Rotational constants in MHz :     0.000000 11242.894653 11242.894653 

 Dipole components along the rotational axes: 
x,y,z [a.u.] :    -0.801721    -0.000000     0.000000 
x,y,z [Debye]:    -2.037813    -0.000000     0.000000 

 

Timings for individual modules:

Sum of individual times         ...      219.550 sec (=   3.659 min)
GTO integral calculation        ...        2.986 sec (=   0.050 min)   1.4 %
SCF iterations                  ...      216.565 sec (=   3.609 min)  98.6 %
                             ****ORCA TERMINATED NORMALLY****
TOTAL RUN TIME: 0 days 0 hours 3 minutes 40 seconds 169 msec
