
                                 *****************
                                 * O   R   C   A *
                                 *****************

           --- An Ab Initio, DFT and Semiempirical electronic structure package ---

                  #######################################################
                  #                        -***-                        #
                  #          Department of theory and spectroscopy      #
                  #               Directorship: Frank Neese             #
                  #        Max Planck Institute fuer Kohlenforschung    #
                  #                Kaiser Wilhelm Platz 1               #
                  #                 D-45470 Muelheim/Ruhr               #
                  #                      Germany                        #
                  #                                                     #
                  #                  All rights reserved                #
                  #                        -***-                        #
                  #######################################################


                         Program Version 4.2.0 -  RELEASE  -


 With contributions from (in alphabetic order):
   Daniel Aravena         : Magnetic Suceptibility
   Michael Atanasov       : Ab Initio Ligand Field Theory (pilot matlab implementation)
   Alexander A. Auer      : GIAO ZORA, VPT2
   Ute Becker             : Parallelization
   Giovanni Bistoni       : ED, misc. LED, open-shell LED, HFLED
   Martin Brehm           : Molecular dynamics
   Dmytro Bykov           : SCF Hessian
   Vijay G. Chilkuri      : MRCI spin determinant printing, contributions to CSF-ICE
   Dipayan Datta          : RHF DLPNO-CCSD density
   Achintya Kumar Dutta   : EOM-CC, STEOM-CC
   Dmitry Ganyushin       : Spin-Orbit,Spin-Spin,Magnetic field MRCI
   Miquel Garcia          : C-PCM Hessian, Gaussian charge scheme
   Yang Guo               : DLPNO-NEVPT2, CIM, IAO-localization
   Andreas Hansen         : Spin unrestricted coupled pair/coupled cluster methods
   Benjamin Helmich-Paris : CASSCF linear response (MC-RPA)
   Lee Huntington         : MR-EOM, pCC
   Robert Izsak           : Overlap fitted RIJCOSX, COSX-SCS-MP3, EOM
   Christian Kollmar      : KDIIS, OOCD, Brueckner-CCSD(T), CCSD density
   Simone Kossmann        : Meta GGA functionals, TD-DFT gradient, OOMP2, MP2 Hessian
   Martin Krupicka        : AUTO-CI
   Lucas Lang             : DCDCAS
   Dagmar Lenk            : GEPOL surface, SMD
   Dimitrios Liakos       : Extrapolation schemes; Compound Job, initial MDCI parallelization
   Dimitrios Manganas     : Further ROCIS development; embedding schemes
   Dimitrios Pantazis     : SARC Basis sets
   Taras Petrenko         : DFT Hessian,TD-DFT gradient, ASA, ECA, R-Raman, ABS, FL, XAS/XES, NRVS
   Peter Pinski           : DLPNO-MP2, DLPNO-MP2 Gradient
   Christoph Reimann      : Effective Core Potentials
   Marius Retegan         : Local ZFS, SOC
   Christoph Riplinger    : Optimizer, TS searches, QM/MM, DLPNO-CCSD(T), (RO)-DLPNO pert. Triples
   Tobias Risthaus        : Range-separated hybrids, TD-DFT gradient, RPA, STAB
   Michael Roemelt        : Original ROCIS implementation
   Masaaki Saitow         : Open-shell DLPNO-CCSD energy and density
   Barbara Sandhoefer     : DKH picture change effects
   Avijit Sen             : IP-ROCIS
   Kantharuban Sivalingam : CASSCF convergence, NEVPT2, FIC-MRCI
   Bernardo de Souza      : ESD, SOC TD-DFT
   Georgi Stoychev        : AutoAux, RI-MP2 NMR
   Willem Van den Heuvel  : Paramagnetic NMR
   Boris Wezisla          : Elementary symmetry handling
   Frank Wennmohs         : Technical directorship


 We gratefully acknowledge several colleagues who have allowed us to
 interface, adapt or use parts of their codes:
   Stefan Grimme, W. Hujo, H. Kruse,             : VdW corrections, initial TS optimization,
                  C. Bannwarth                     DFT functionals, gCP, sTDA/sTD-DF
   Ed Valeev, F. Pavosevic, A. Kumar             : LibInt (2-el integral package), F12 methods
   Garnet Chan, S. Sharma, J. Yang, R. Olivares  : DMRG
   Ulf Ekstrom                                   : XCFun DFT Library
   Mihaly Kallay                                 : mrcc  (arbitrary order and MRCC methods)
   Andreas Klamt, Michael Diedenhofen            : otool_cosmo (COSMO solvation model)
   Jiri Pittner, Ondrej Demel                    : Mk-CCSD
   Frank Weinhold                                : gennbo (NPA and NBO analysis)
   Christopher J. Cramer and Donald G. Truhlar   : smd solvation model
   Lars Goerigk                                  : TD-DFT with DH, B97 family of functionals
   V. Asgeirsson, H. Jonsson                     : NEB implementation
   FAccTs GmbH                                   : IRC, NEB, NEB-TS, Multilevel, MM, QM/MM, CI optimization
   S Lehtola, MJT Oliveira, MAL Marques          : LibXC Library


 Your calculation uses the libint2 library for the computation of 2-el integrals
 For citations please refer to: http://libint.valeyev.net

 Your ORCA version has been built with support for libXC version: 4.2.3
 For citations please refer to: https://tddft.org/programs/libxc/

 This ORCA versions uses:
   CBLAS   interface :  Fast vector & matrix operations
   LAPACKE interface :  Fast linear algebra routines
   SCALAPACK package :  Parallel linear algebra routines


Your calculation utilizes the DFT-NL dispersion correction.
Cite in your paper:
Vydrov, O. A.; Van Voorhis, T. J. Chem. Phys. 2010, 133, 244103
Hujo, W.; Grimme, S. J. Chem. Theory Comput. 2011, 7, 3866 
   

----- Orbital basis set information -----
Your calculation utilizes the basis: aug-cc-pVTZ 
    H, B-Ne : Obtained from the ccRepo (grant-hill.group.shef.ac.uk/ccrepo) Feb. 2017
              R. A. Kendall, T. H. Dunning, Jr., R. J. Harrison, J. Chem. Phys. 96, 6796 (1992)
         He : Obtained from the ccRepo (grant-hill.group.shef.ac.uk/ccrepo) Feb. 2017
              D. E. Woon, T. H. Dunning, Jr., J. Chem. Phys. 100, 2975 (1994)
  Li-Be, Na : Obtained from the ccRepo (grant-hill.group.shef.ac.uk/ccrepo) Feb. 2017
              B. P. Prascher, D. E. Woon, K. A. Peterson, T. H. Dunning, Jr., A. K. Wilson, Theor. Chem. Acc. 128, 69 (2011)
         Mg : Obtained from the Peterson Research Group Website (tyr0.chem.wsu.edu/~kipeters) Feb. 2017
              B. P. Prascher, D. E. Woon, K. A. Peterson, T. H. Dunning, Jr., A. K. Wilson, Theor. Chem. Acc. 128, 69 (2011)
      Al-Ar : Obtained from the ccRepo (grant-hill.group.shef.ac.uk/ccrepo) Feb. 2017
              D. E. Woon, T. H. Dunning, Jr., J. Chem. Phys. 98, 1358 (1993)
      Sc-Zn : Obtained from the ccRepo (grant-hill.group.shef.ac.uk/ccrepo) Feb. 2017
              N. B. Balabanov, K. A. Peterson, J. Chem. Phys. 123, 064107 (2005)
              N. B. Balabanov, K. A. Peterson, J. Chem. Phys. 125, 074110 (2006)
      Ga-Kr : Obtained from the ccRepo (grant-hill.group.shef.ac.uk/ccrepo) Feb. 2017
              A. K. Wilson, D. E. Woon, K. A. Peterson, T. H. Dunning, Jr., J. Chem. Phys. 110, 7667 (1999)
     Ag, Au : Obtained from the Peterson Research Group Website (tyr0.chem.wsu.edu/~kipeters) Feb. 2017
              K. A. Peterson, C. Puzzarini, Theor. Chem. Acc. 114, 283 (2005)

----- AuxJK basis set information -----
Your calculation utilizes the auxiliary basis: def2/JK
   H-Ba, Hf-Rn: F. Weigend, J. Comput. Chem. 29, 167 (2008).

================================================================================
                                        WARNINGS
                       Please study these warnings very carefully!
================================================================================


WARNING: your system is open-shell and RHF/RKS was chosen
  ===> : WILL SWITCH to UHF/UKS


INFO   : the flag for use of LIBINT has been found!

================================================================================
                                       INPUT FILE
================================================================================
NAME = 33_FeCl.in
|  1> #
|  2> # 33_FeCl wb97x-v/aug-cc-pvtz
|  3> #
|  4> ! wb97x-v aug-cc-pvtz def2/jk grid4 nofinalgrid
|  5> 
|  6> *xyz 0 6
|  7>   Fe  0.00000000000000      0.00000000000000     -0.08894892709089
|  8>   Cl  0.00000000000000      0.00000000000000      2.08894892709089
|  9> *
| 10> 
| 11> %pal
| 12> nprocs 24
| 13> end
| 14> 
| 15> 
| 16>                          ****END OF INPUT****
================================================================================

                       ****************************
                       * Single Point Calculation *
                       ****************************

---------------------------------
CARTESIAN COORDINATES (ANGSTROEM)
---------------------------------
  Fe     0.000000    0.000000   -0.088949
  Cl     0.000000    0.000000    2.088949

----------------------------
CARTESIAN COORDINATES (A.U.)
----------------------------
  NO LB      ZA    FRAG     MASS         X           Y           Z
   0 Fe   26.0000    0    55.850    0.000000    0.000000   -0.168089
   1 Cl   17.0000    0    35.453    0.000000    0.000000    3.947541

--------------------------------
INTERNAL COORDINATES (ANGSTROEM)
--------------------------------
 Fe     0   0   0     0.000000000000     0.00000000     0.00000000
 Cl     1   0   0     2.177897854182     0.00000000     0.00000000

---------------------------
INTERNAL COORDINATES (A.U.)
---------------------------
 Fe     0   0   0     0.000000000000     0.00000000     0.00000000
 Cl     1   0   0     4.115630492058     0.00000000     0.00000000

---------------------
BASIS SET INFORMATION
---------------------
There are 2 groups of distinct atoms

 Group   1 Type Fe  : 116s77p23d3f2g contracted to 8s7p5d3f2g pattern {19191919191911/151515151511/77711/111/11}
 Group   2 Type Cl  : 42s17p3d2f contracted to 6s5p3d2f pattern {131313111/77111/111/11}

Atom   0Fe   basis set group =>   1
Atom   1Cl   basis set group =>   2
----------------------------------
AUXILIARY/JK BASIS SET INFORMATION
----------------------------------
There are 2 groups of distinct atoms

 Group   1 Type Fe  : 19s14p12d10f7g3h1i contracted to 16s13p11d9f5g3h1i pattern {4111111111111111/2111111111111/21111111111/211111111/31111/111/1}
 Group   2 Type Cl  : 16s12p10d4f1g contracted to 13s11p9d4f1g pattern {4111111111111/21111111111/211111111/1111/1}

Atom   0Fe   basis set group =>   1
Atom   1Cl   basis set group =>   2


           ************************************************************
           *        Program running with 24 parallel MPI-processes    *
           *              working on a common directory               *
           ************************************************************
------------------------------------------------------------------------------
                           ORCA GTO INTEGRAL CALCULATION
------------------------------------------------------------------------------

                         BASIS SET STATISTICS AND STARTUP INFO

 # of primitive gaussian shells          ...  285
 # of primitive gaussian functions       ...  623
 # of contracted shells                  ...   41
 # of contracted basis functions         ...  143
 Highest angular momentum                ...    4
 Maximum contraction depth               ...   19
 Integral package used                   ... LIBINT
 Integral threshhold            Thresh   ...  1.000e-10
 Primitive cut-off              TCut     ...  1.000e-11


------------------------------ INTEGRAL EVALUATION ----------------------------


 * One electron integrals 
 Pre-screening matrix                    ... done
 Shell pair data                         ... done (   0.001 sec)



           ************************************************************
           *        Program running with 24 parallel MPI-processes    *
           *              working on a common directory               *
           ************************************************************
-------------------------------------------------------------------------------
                                 ORCA SCF
-------------------------------------------------------------------------------

------------
SCF SETTINGS
------------
Hamiltonian:
 Density Functional     Method          .... DFT(GTOs)
 Exchange Functional    Exchange        .... WB97X-V
 Correlation Functional Correlation     .... WB97X-V
 Gradients option       PostSCFGGA      .... off
 Hybrid DFT is turned on
   Fraction HF Exchange ScalHFX         ....  0.167000
   Scaling of DF-GGA-X  ScalDFX         ....  0.000000
   Scaling of DF-GGA-C  ScalDFC         ....  1.000000
   Scaling of DF-LDA-C  ScalLDAC        ....  1.000000
   Perturbative correction              ....  0.000000
   Density functional embedding theory  .... OFF
 Long-range corrected/Screened/Range-Separated Hybrid DFT is turned on
   Amount of maximum screened exact exchange              ....  0.833000
   Range separation parameter mu (erf(mu*r12)/r12)        ....  0.300000
   NL short-range parameter             ....  6.000000
   NL long-range parameter              ....  0.010000


General Settings:
 Integral files         IntName         .... 33_FeCl
 Hartree-Fock type      HFTyp           .... UHF
 Total Charge           Charge          ....    0
 Multiplicity           Mult            ....    6
 Number of Electrons    NEL             ....   43
 Basis Dimension        Dim             ....  143
 Nuclear Repulsion      ENuc            ....    107.3954527387 Eh

Convergence Acceleration:
 DIIS                   CNVDIIS         .... on
   Start iteration      DIISMaxIt       ....    12
   Startup error        DIISStart       ....  0.200000
   # of expansion vecs  DIISMaxEq       ....     5
   Bias factor          DIISBfac        ....   1.050
   Max. coefficient     DIISMaxC        ....  10.000
 Newton-Raphson         CNVNR           .... off
 SOSCF                  CNVSOSCF        .... off
 Level Shifting         CNVShift        .... on
   Level shift para.    LevelShift      ....    0.2500
   Turn off err/grad.   ShiftErr        ....    0.0010
 Zerner damping         CNVZerner       .... off
 Static damping         CNVDamp         .... on
   Fraction old density DampFac         ....    0.7000
   Max. Damping (<1)    DampMax         ....    0.9800
   Min. Damping (>=0)   DampMin         ....    0.0000
   Turn off err/grad.   DampErr         ....    0.1000
 Fernandez-Rico         CNVRico         .... off

SCF Procedure:
 Maximum # iterations   MaxIter         ....   125
 SCF integral mode      SCFMode         .... Direct
   Integral package                     .... LIBINT
 Reset frequency        DirectResetFreq ....    20
 Integral Threshold     Thresh          ....  1.000e-10 Eh
 Primitive CutOff       TCut            ....  1.000e-11 Eh

Convergence Tolerance:
 Convergence Check Mode ConvCheckMode   .... Total+1el-Energy
 Convergence forced     ConvForced      .... 0
 Energy Change          TolE            ....  1.000e-06 Eh
 1-El. energy change                    ....  1.000e-03 Eh
 DIIS Error             TolErr          ....  1.000e-06


Diagonalization of the overlap matrix:
Smallest eigenvalue                        ... 1.510e-04
Time for diagonalization                   ...    0.037 sec
Threshold for overlap eigenvalues          ... 1.000e-08
Number of eigenvalues below threshold      ... 0
Time for construction of square roots      ...    0.002 sec
Total time needed                          ...    0.039 sec

-------------------
DFT GRID GENERATION
-------------------

General Integration Accuracy     IntAcc      ...  4.670
Radial Grid Type                 RadialGrid  ... Gauss-Chebyshev
Angular Grid (max. acc.)         AngularGrid ... Lebedev-302
Angular grid pruning method      GridPruning ... 3 (G Style)
Weight generation scheme         WeightScheme... Becke
Basis function cutoff            BFCut       ...    1.0000e-10
Integration weight cutoff        WCut        ...    1.0000e-14
Grids for H and He will be reduced by one unit

# of grid points (after initial pruning)     ...  16378 (   0.0 sec)
# of grid points (after weights+screening)   ...  16351 (   0.0 sec)
nearest neighbour list constructed           ...    0.0 sec
Grid point re-assignment to atoms done       ...    0.0 sec
Grid point division into batches done        ...    0.1 sec
Reduced shell lists constructed in    0.1 sec

Total number of grid points                  ...    16351
Total number of batches                      ...      256
Average number of points per batch           ...       63
Average number of grid points per atom       ...     8176
Average number of shells per batch           ...    14.17 (34.55%)
Average number of basis functions per batch  ...    33.83 (23.66%)
Average number of large shells per batch     ...     7.08 (50.00%)
Average number of large basis fcns per batch ...    18.08 (53.45%)
Maximum spatial batch extension              ...  24.49, 24.19, 18.13 au
Average spatial batch extension              ...   0.85,  0.84,  0.66 au

Time for grid setup =    0.157 sec

------------------------------
INITIAL GUESS: MODEL POTENTIAL
------------------------------
Loading Hartree-Fock densities                     ... done
Calculating cut-offs                               ... done
Setting up the integral package                    ... done
Initializing the effective Hamiltonian             ... done
Starting the Coulomb interaction                   ... done (   0.0 sec)
Reading the grid                                   ... done
Mapping shells                                     ... done
Starting the XC term evaluation                    ... done (   0.0 sec)
  promolecular density results
     # of electrons  =     42.999994011
     EX              =    -61.830541318
     EC              =     -2.427874875
     EX+EC           =    -64.258416193
Transforming the Hamiltonian                       ... done (   0.0 sec)
Diagonalizing the Hamiltonian                      ... done (   0.0 sec)
Back transforming the eigenvectors                 ... done (   0.0 sec)
Now organizing SCF variables                       ... done
                      ------------------
                      INITIAL GUESS DONE (   0.3 sec)
                      ------------------
--------------
SCF ITERATIONS
--------------
ITER       Energy         Delta-E        Max-DP      RMS-DP      [F,P]     Damp
               ***  Starting incremental Fock matrix formation  ***
  0  -1715.6901175414   0.000000000000 2.93493497  0.03046471  1.4989008 0.7000
  1  -1719.8800427878  -4.189925246408 2.08537983  0.01762496  0.4201415 0.7000
  2  -1720.8152680821  -0.935225294319 1.48983060  0.01294694  0.5505152 0.7000
  3  -1721.7950826998  -0.979814617674 1.04452171  0.00905339  0.2953578 0.7000
                               ***Turning on DIIS***
  4  -1722.4095120014  -0.614429301613 0.72959269  0.00630004  0.1506555 0.7000
  5  -1722.8385851384  -0.429073136997 1.69912849  0.01476108  0.0877122 0.0000
  6  -1723.9038419500  -1.065256811573 0.17174237  0.00180663  0.0587141 0.0000
  7  -1723.9244168492  -0.020574899180 0.08380638  0.00092724  0.0457510 0.0000
  8  -1723.9289182914  -0.004501442228 0.07002951  0.00066411  0.0229516 0.0000
  9  -1723.9320294346  -0.003111143186 0.04215304  0.00041012  0.0082709 0.0000
 10  -1723.9331620581  -0.001132623501 0.01811941  0.00016470  0.0038426 0.0000
 11  -1723.9334455294  -0.000283471296 0.00980391  0.00007535  0.0019047 0.0000
 12  -1723.9335258483  -0.000080318926 0.00662266  0.00005470  0.0009252 0.0000
 13  -1723.9335487064  -0.000022858105 0.00099540  0.00001134  0.0006747 0.0000
 14  -1723.9335495319  -0.000000825431 0.00056096  0.00000558  0.0002606 0.0000
                 **** Energy Check signals convergence ****

               *****************************************************
               *                     SUCCESS                       *
               *           SCF CONVERGED AFTER  15 CYCLES          *
               *****************************************************


Setting up the DFT-NL grid :

General Integration Accuracy     IntAcc      ...  4.340
Radial Grid Type                 RadialGrid  ... Gauss-Chebyshev
Angular Grid (max. acc.)         AngularGrid ... Lebedev-110
Angular grid pruning method      GridPruning ... 3 (G Style)
Weight generation scheme         WeightScheme... Becke
Basis function cutoff            BFCut       ...    1.0000e-10
Integration weight cutoff        WCut        ...    1.0000e-14
Grids for H and He will be reduced by one unit

# of grid points (after initial pruning)     ...   4756 (   0.0 sec)
# of grid points (after weights+screening)   ...   4731 (   0.0 sec)
nearest neighbour list constructed           ...    0.0 sec
Grid point re-assignment to atoms done       ...    0.0 sec
Grid point division into batches done        ...    0.0 sec
Reduced shell lists constructed in    0.0 sec

Total number of grid points                  ...     4731
Total number of batches                      ...       75
Average number of points per batch           ...       63
Average number of grid points per atom       ...     2366
Average number of shells per batch           ...    22.40 (54.63%)
Average number of basis functions per batch  ...    68.80 (48.11%)
Average number of large shells per batch     ...    16.00 (71.43%)
Average number of large basis fcns per batch ...    44.00 (63.95%)
Maximum spatial batch extension              ...  18.98, 28.73, 16.15 au
Average spatial batch extension              ...   0.95,  1.29,  0.86 au

Final grid set up in    0.0 sec

-------------------------------------------------------------------------------
                         DFT-NL dispersion correction                          
-------------------------------------------------------------------------------

SC Energy -1723.933549714 
NL    Energy 0.180341788 
SC+NL Energy -1723.753207926 
NL done in    0.0 sec
-------------------------------------------------------------------------------

----------------
TOTAL SCF ENERGY
----------------

Total Energy       :        -1723.75320793 Eh          -46905.70943 eV

Components:
Nuclear Repulsion  :          107.39545274 Eh            2922.37884 eV
Electronic Energy  :        -1831.14866066 Eh          -49828.08827 eV
One Electron Energy:        -2594.60709412 Eh          -70602.84841 eV
Two Electron Energy:          763.45843345 Eh           20774.76014 eV

Virial components:
Potential Energy   :        -3444.85006101 Eh          -93739.13577 eV
Kinetic Energy     :         1721.09685309 Eh           46833.42634 eV
Virial Ratio       :            2.00154341


DFT components:
N(Alpha)           :       24.000004501348 electrons
N(Beta)            :       19.000005537111 electrons
N(Total)           :       43.000010038458 electrons
E(X)               :      -62.011647497239 Eh       
E(C)               :       -2.383533539206 Eh       
NL Energy, E(C,NL) :        0.180341788261 Eh       
E(XC)              :      -64.214839248184 Eh       
DFET-embed. en.    :        0.000000000000 Eh       

---------------
SCF CONVERGENCE
---------------

  Last Energy change         ...   -1.8264e-07  Tolerance :   1.0000e-06
  Last MAX-Density change    ...    1.5374e-04  Tolerance :   1.0000e-05
  Last RMS-Density change    ...    1.7460e-06  Tolerance :   1.0000e-06
  Last DIIS Error            ...    2.8338e-05  Tolerance :   1.0000e-06

             **** THE GBW FILE WAS UPDATED (33_FeCl.gbw) ****
             **** DENSITY FILE WAS UPDATED (33_FeCl.scfp) ****
             **** ENERGY FILE WAS UPDATED (33_FeCl.en.tmp) ****
----------------------
UHF SPIN CONTAMINATION
----------------------

Warning: in a DFT calculation there is little theoretical justification to 
         calculate <S**2> as in Hartree-Fock theory. We will do it anyways
         but you should keep in mind that the values have only limited relevance

Expectation value of <S**2>     :     8.753724
Ideal value S*(S+1) for S=2.5   :     8.750000
Deviation                       :     0.003724

             **** THE GBW FILE WAS UPDATED (33_FeCl.gbw) ****
             **** DENSITY FILE WAS UPDATED (33_FeCl.scfp) ****
----------------
ORBITAL ENERGIES
----------------
                 SPIN UP ORBITALS
  NO   OCC          E(Eh)            E(eV) 
   0   1.0000    -256.052909     -6967.5539 
   1   1.0000    -101.520783     -2762.5209 
   2   1.0000     -30.196902      -821.6995 
   3   1.0000     -26.062400      -709.1940 
   4   1.0000     -26.034572      -708.4367 
   5   1.0000     -26.034572      -708.4367 
   6   1.0000      -9.537240      -259.5215 
   7   1.0000      -7.288957      -198.3426 
   8   1.0000      -7.286692      -198.2810 
   9   1.0000      -7.286692      -198.2810 
  10   1.0000      -3.739917      -101.7683 
  11   1.0000      -2.551194       -69.4215 
  12   1.0000      -2.497075       -67.9489 
  13   1.0000      -2.497075       -67.9489 
  14   1.0000      -0.920650       -25.0522 
  15   1.0000      -0.569075       -15.4853 
  16   1.0000      -0.553639       -15.0653 
  17   1.0000      -0.553639       -15.0653 
  18   1.0000      -0.527368       -14.3504 
  19   1.0000      -0.493753       -13.4357 
  20   1.0000      -0.450428       -12.2568 
  21   1.0000      -0.414699       -11.2845 
  22   1.0000      -0.414699       -11.2845 
  23   1.0000      -0.289231        -7.8704 
  24   0.0000       0.012586         0.3425 
  25   0.0000       0.012586         0.3425 
  26   0.0000       0.024254         0.6600 
  27   0.0000       0.029701         0.8082 
  28   0.0000       0.053284         1.4499 
  29   0.0000       0.053284         1.4499 
  30   0.0000       0.090092         2.4515 
  31   0.0000       0.091694         2.4951 
  32   0.0000       0.092067         2.5053 
  33   0.0000       0.100464         2.7338 
  34   0.0000       0.105686         2.8758 
  35   0.0000       0.105686         2.8758 
  36   0.0000       0.142046         3.8653 
  37   0.0000       0.163248         4.4422 
  38   0.0000       0.163248         4.4422 
  39   0.0000       0.164282         4.4703 
  40   0.0000       0.218587         5.9481 
  41   0.0000       0.218587         5.9481 
  42   0.0000       0.253596         6.9007 
  43   0.0000       0.301402         8.2016 
  44   0.0000       0.302975         8.2444 
  45   0.0000       0.304032         8.2731 
  46   0.0000       0.324282         8.8242 
  47   0.0000       0.324282         8.8242 
  48   0.0000       0.361529         9.8377 
  49   0.0000       0.362538         9.8652 
  50   0.0000       0.399730        10.8772 
  51   0.0000       0.446670        12.1545 
  52   0.0000       0.446670        12.1545 
  53   0.0000       0.474794        12.9198 
  54   0.0000       0.570270        15.5178 
  55   0.0000       0.661686        18.0054 
  56   0.0000       0.661686        18.0054 
  57   0.0000       0.761061        20.7095 
  58   0.0000       0.785130        21.3645 
  59   0.0000       0.785130        21.3645 
  60   0.0000       0.844588        22.9824 
  61   0.0000       0.844697        22.9854 
  62   0.0000       0.868009        23.6197 
  63   0.0000       0.868009        23.6197 
  64   0.0000       0.880658        23.9639 
  65   0.0000       0.886109        24.1123 
  66   0.0000       0.886109        24.1123 
  67   0.0000       0.895335        24.3633 
  68   0.0000       0.896019        24.3819 
  69   0.0000       0.961886        26.1743 
  70   0.0000       1.080435        29.4001 
  71   0.0000       1.080435        29.4001 
  72   0.0000       1.105888        30.0927 
  73   0.0000       1.125352        30.6224 
  74   0.0000       1.125352        30.6224 
  75   0.0000       1.133275        30.8380 
  76   0.0000       1.137368        30.9494 
  77   0.0000       1.137368        30.9494 
  78   0.0000       1.143186        31.1077 
  79   0.0000       1.177311        32.0363 
  80   0.0000       1.298198        35.3258 
  81   0.0000       1.299560        35.3628 
  82   0.0000       1.464894        39.8618 
  83   0.0000       1.654792        45.0292 
  84   0.0000       1.654792        45.0292 
  85   0.0000       1.966299        53.5057 
  86   0.0000       2.327258        63.3279 
  87   0.0000       2.327400        63.3318 
  88   0.0000       2.420613        65.8682 
  89   0.0000       2.420613        65.8682 
  90   0.0000       2.496398        67.9305 
  91   0.0000       2.496398        67.9305 
  92   0.0000       2.498668        67.9922 
  93   0.0000       2.660106        72.3852 
  94   0.0000       2.686481        73.1029 
  95   0.0000       2.686481        73.1029 
  96   0.0000       2.708956        73.7144 
  97   0.0000       2.719360        73.9975 
  98   0.0000       2.785138        75.7874 
  99   0.0000       2.785138        75.7874 
 100   0.0000       2.856233        77.7220 
 101   0.0000       2.856233        77.7220 
 102   0.0000       2.908364        79.1406 
 103   0.0000       2.908822        79.1531 
 104   0.0000       2.909340        79.1672 
 105   0.0000       2.919285        79.4378 
 106   0.0000       2.965285        80.6895 
 107   0.0000       2.965285        80.6895 
 108   0.0000       3.037115        82.6441 
 109   0.0000       3.037115        82.6441 
 110   0.0000       3.106027        84.5193 
 111   0.0000       3.350729        91.1780 
 112   0.0000       3.351020        91.1859 
 113   0.0000       3.353626        91.2568 
 114   0.0000       3.353626        91.2568 
 115   0.0000       3.392020        92.3016 
 116   0.0000       3.411105        92.8209 
 117   0.0000       3.415999        92.9541 
 118   0.0000       3.632637        98.8491 
 119   0.0000       3.632637        98.8491 
 120   0.0000       3.931077       106.9701 
 121   0.0000       4.502032       122.5065 
 122   0.0000       4.526915       123.1836 
 123   0.0000       4.704419       128.0138 
 124   0.0000       4.704419       128.0138 
 125   0.0000       5.527753       150.4178 
 126   0.0000       6.169216       167.8729 
 127   0.0000       8.887276       241.8351 
 128   0.0000       8.909667       242.4444 
 129   0.0000       8.909667       242.4444 
 130   0.0000       8.913440       242.5470 
 131   0.0000       8.936902       243.1855 
 132   0.0000       8.936902       243.1855 
 133   0.0000       8.996901       244.8181 
 134   0.0000       9.629329       262.0274 
 135   0.0000       9.629329       262.0274 
 136   0.0000       9.635505       262.1954 
 137   0.0000       9.649856       262.5859 
 138   0.0000       9.650174       262.5946 
 139   0.0000       9.654536       262.7133 
 140   0.0000       9.735175       264.9076 
 141   0.0000       9.735175       264.9076 
 142   0.0000       9.849588       268.0209 

                 SPIN DOWN ORBITALS
  NO   OCC          E(Eh)            E(eV) 
   0   1.0000    -256.050757     -6967.4953 
   1   1.0000    -101.519523     -2762.4867 
   2   1.0000     -30.122750      -819.6817 
   3   1.0000     -25.992255      -707.2852 
   4   1.0000     -25.979670      -706.9428 
   5   1.0000     -25.979670      -706.9428 
   6   1.0000      -9.536042      -259.4889 
   7   1.0000      -7.286694      -198.2810 
   8   1.0000      -7.285034      -198.2358 
   9   1.0000      -7.285034      -198.2358 
  10   1.0000      -3.563363       -96.9640 
  11   1.0000      -2.326100       -63.2964 
  12   1.0000      -2.323776       -63.2332 
  13   1.0000      -2.323776       -63.2332 
  14   1.0000      -0.910442       -24.7744 
  15   1.0000      -0.466444       -12.6926 
  16   1.0000      -0.420493       -11.4422 
  17   1.0000      -0.420493       -11.4422 
  18   1.0000      -0.406982       -11.0746 
  19   0.0000      -0.045485        -1.2377 
  20   0.0000      -0.013796        -0.3754 
  21   0.0000      -0.013796        -0.3754 
  22   0.0000       0.005638         0.1534 
  23   0.0000       0.010617         0.2889 
  24   0.0000       0.030181         0.8213 
  25   0.0000       0.030181         0.8213 
  26   0.0000       0.036198         0.9850 
  27   0.0000       0.042690         1.1616 
  28   0.0000       0.081068         2.2060 
  29   0.0000       0.081068         2.2060 
  30   0.0000       0.102659         2.7935 
  31   0.0000       0.106234         2.8908 
  32   0.0000       0.107147         2.9156 
  33   0.0000       0.119266         3.2454 
  34   0.0000       0.119266         3.2454 
  35   0.0000       0.122610         3.3364 
  36   0.0000       0.169419         4.6101 
  37   0.0000       0.169419         4.6101 
  38   0.0000       0.171205         4.6587 
  39   0.0000       0.178593         4.8598 
  40   0.0000       0.243917         6.6373 
  41   0.0000       0.243917         6.6373 
  42   0.0000       0.303319         8.2537 
  43   0.0000       0.310474         8.4484 
  44   0.0000       0.315141         8.5754 
  45   0.0000       0.319009         8.6807 
  46   0.0000       0.371481        10.1085 
  47   0.0000       0.371481        10.1085 
  48   0.0000       0.372617        10.1394 
  49   0.0000       0.384184        10.4542 
  50   0.0000       0.426720        11.6117 
  51   0.0000       0.458189        12.4680 
  52   0.0000       0.458189        12.4680 
  53   0.0000       0.494476        13.4554 
  54   0.0000       0.614285        16.7155 
  55   0.0000       0.668155        18.1814 
  56   0.0000       0.668155        18.1814 
  57   0.0000       0.792521        21.5656 
  58   0.0000       0.811420        22.0799 
  59   0.0000       0.811420        22.0799 
  60   0.0000       0.848716        23.0947 
  61   0.0000       0.848993        23.1023 
  62   0.0000       0.885781        24.1033 
  63   0.0000       0.885781        24.1033 
  64   0.0000       0.886847        24.1323 
  65   0.0000       0.903476        24.5848 
  66   0.0000       0.903476        24.5848 
  67   0.0000       0.915240        24.9050 
  68   0.0000       0.924121        25.1466 
  69   0.0000       1.002864        27.2893 
  70   0.0000       1.128232        30.7008 
  71   0.0000       1.128232        30.7008 
  72   0.0000       1.146609        31.2008 
  73   0.0000       1.146609        31.2008 
  74   0.0000       1.171065        31.8663 
  75   0.0000       1.174067        31.9480 
  76   0.0000       1.174067        31.9480 
  77   0.0000       1.184442        32.2303 
  78   0.0000       1.189996        32.3815 
  79   0.0000       1.210462        32.9384 
  80   0.0000       1.310928        35.6722 
  81   0.0000       1.316077        35.8123 
  82   0.0000       1.495321        40.6898 
  83   0.0000       1.683991        45.8237 
  84   0.0000       1.683991        45.8237 
  85   0.0000       1.994215        54.2654 
  86   0.0000       2.331822        63.4521 
  87   0.0000       2.331833        63.4524 
  88   0.0000       2.431378        66.1611 
  89   0.0000       2.431378        66.1611 
  90   0.0000       2.502738        68.1030 
  91   0.0000       2.502738        68.1030 
  92   0.0000       2.509572        68.2889 
  93   0.0000       2.725597        74.1673 
  94   0.0000       2.757343        75.0311 
  95   0.0000       2.757343        75.0311 
  96   0.0000       2.789643        75.9100 
  97   0.0000       2.810073        76.4660 
  98   0.0000       2.856299        77.7238 
  99   0.0000       2.856299        77.7238 
 100   0.0000       2.863450        77.9184 
 101   0.0000       2.863450        77.9184 
 102   0.0000       2.919000        79.4300 
 103   0.0000       2.921974        79.5110 
 104   0.0000       2.928804        79.6968 
 105   0.0000       2.996473        81.5382 
 106   0.0000       2.996473        81.5382 
 107   0.0000       3.023192        82.2652 
 108   0.0000       3.120982        84.9262 
 109   0.0000       3.120982        84.9262 
 110   0.0000       3.184335        86.6502 
 111   0.0000       3.394723        92.3751 
 112   0.0000       3.398104        92.4671 
 113   0.0000       3.406995        92.7090 
 114   0.0000       3.406995        92.7090 
 115   0.0000       3.448867        93.8484 
 116   0.0000       3.464284        94.2680 
 117   0.0000       3.471816        94.4729 
 118   0.0000       3.689628       100.3999 
 119   0.0000       3.689628       100.3999 
 120   0.0000       4.007993       109.0630 
 121   0.0000       4.596044       125.0647 
 122   0.0000       4.647536       126.4659 
 123   0.0000       4.835047       131.5683 
 124   0.0000       4.835047       131.5683 
 125   0.0000       5.606633       152.5642 
 126   0.0000       6.206241       168.8804 
 127   0.0000       9.043654       246.0903 
 128   0.0000       9.043654       246.0903 
 129   0.0000       9.051099       246.2929 
 130   0.0000       9.079525       247.0664 
 131   0.0000       9.107302       247.8223 
 132   0.0000       9.107302       247.8223 
 133   0.0000       9.168696       249.4929 
 134   0.0000       9.740515       265.0529 
 135   0.0000       9.741551       265.0811 
 136   0.0000       9.741551       265.0811 
 137   0.0000       9.744779       265.1689 
 138   0.0000       9.755925       265.4722 
 139   0.0000       9.773459       265.9493 
 140   0.0000       9.856076       268.1975 
 141   0.0000       9.856076       268.1975 
 142   0.0000       9.970383       271.3079 

                    ********************************
                    * MULLIKEN POPULATION ANALYSIS *
                    ********************************

--------------------------------------------
MULLIKEN ATOMIC CHARGES AND SPIN POPULATIONS
--------------------------------------------
   0 Fe:    0.455506    4.827118
   1 Cl:   -0.455506    0.172882
Sum of atomic charges         :   -0.0000000
Sum of atomic spin populations:    5.0000000

-----------------------------------------------------
MULLIKEN REDUCED ORBITAL CHARGES AND SPIN POPULATIONS
-----------------------------------------------------
CHARGE
  0 Fes       :     6.946523  s :     6.946523
      pz      :     4.323966  p :    12.399349
      px      :     4.037692
      py      :     4.037692
      dz2     :     1.080028  d :     6.179446
      dxz     :     1.050422
      dyz     :     1.050422
      dx2y2   :     1.998907
      dxy     :     0.999667
      f0      :     0.006733  f :     0.018551
      f+1     :     0.005862
      f-1     :     0.005862
      f+2     :     0.000018
      f-2     :     0.000002
      f+3     :     0.000036
      f-3     :     0.000036
      g0      :     0.000253  g :     0.000625
      g+1     :     0.000174
      g-1     :     0.000174
      g+2     :     0.000008
      g-2     :     0.000003
      g+3     :     0.000001
      g-3     :     0.000001
      g+4     :     0.000010
      g-4     :     0.000000
  1 Cls       :     5.952932  s :     5.952932
      pz      :     3.680845  p :    11.475176
      px      :     3.897166
      py      :     3.897166
      dz2     :     0.008546  d :     0.024795
      dxz     :     0.007681
      dyz     :     0.007681
      dx2y2   :     0.000701
      dxy     :     0.000186
      f0      :     0.000166  f :     0.002604
      f+1     :     0.000966
      f-1     :     0.000966
      f+2     :     0.000365
      f-2     :     0.000142
      f+3     :     0.000000
      f-3     :     0.000000

SPIN
  0 Fes       :     0.781718  s :     0.781718
      pz      :     0.222552  p :     0.231407
      px      :     0.004428
      py      :     0.004428
      dz2     :     0.910227  d :     3.815193
      dxz     :     0.952508
      dyz     :     0.952508
      dx2y2   :     0.000282
      dxy     :     0.999667
      f0      :     0.000033  f :    -0.001174
      f+1     :    -0.000573
      f-1     :    -0.000573
      f+2     :    -0.000016
      f-2     :     0.000002
      f+3     :    -0.000024
      f-3     :    -0.000024
      g0      :    -0.000027  g :    -0.000026
      g+1     :    -0.000007
      g-1     :    -0.000007
      g+2     :     0.000008
      g-2     :     0.000003
      g+3     :     0.000001
      g-3     :     0.000001
      g+4     :     0.000002
      g-4     :     0.000000
  1 Cls       :     0.008352  s :     0.008352
      pz      :     0.076111  p :     0.164849
      px      :     0.044369
      py      :     0.044369
      dz2     :     0.000923  d :    -0.000519
      dxz     :    -0.000697
      dyz     :    -0.000697
      dx2y2   :    -0.000235
      dxy     :     0.000186
      f0      :     0.000109  f :     0.000200
      f+1     :    -0.000006
      f-1     :    -0.000006
      f+2     :    -0.000039
      f-2     :     0.000142
      f+3     :    -0.000000
      f-3     :    -0.000000


                     *******************************
                     * LOEWDIN POPULATION ANALYSIS *
                     *******************************

-------------------------------------------
LOEWDIN ATOMIC CHARGES AND SPIN POPULATIONS
-------------------------------------------
   0 Fe:    0.087822    4.730253
   1 Cl:   -0.087822    0.269747

----------------------------------------------------
LOEWDIN REDUCED ORBITAL CHARGES AND SPIN POPULATIONS
----------------------------------------------------
CHARGE
  0 Fes       :     6.745321  s :     6.745321
      pz      :     4.506154  p :    12.631386
      px      :     4.062616
      py      :     4.062616
      dz2     :     1.204119  d :     6.407555
      dxz     :     1.105783
      dyz     :     1.105783
      dx2y2   :     1.994074
      dxy     :     0.997795
      f0      :     0.051974  f :     0.123965
      f+1     :     0.035926
      f-1     :     0.035926
      f+2     :     0.000035
      f-2     :     0.000032
      f+3     :     0.000036
      f-3     :     0.000036
      g0      :     0.001999  g :     0.003951
      g+1     :     0.000964
      g-1     :     0.000964
      g+2     :     0.000010
      g-2     :     0.000002
      g+3     :     0.000001
      g-3     :     0.000001
      g+4     :     0.000010
      g-4     :     0.000000
  1 Cls       :     5.636464  s :     5.636464
      pz      :     3.712404  p :    11.225440
      px      :     3.756518
      py      :     3.756518
      dz2     :     0.102304  d :     0.150461
      dxz     :     0.022265
      dyz     :     0.022265
      dx2y2   :     0.002720
      dxy     :     0.000906
      f0      :     0.039250  f :     0.075456
      f+1     :     0.015890
      f-1     :     0.015890
      f+2     :     0.003161
      f-2     :     0.001264
      f+3     :     0.000000
      f-3     :     0.000000

SPIN
  0 Fes       :     0.654931  s :     0.654931
      pz      :     0.294055  p :     0.313734
      px      :     0.009840
      py      :     0.009840
      dz2     :     0.895975  d :     3.754229
      dxz     :     0.929767
      dyz     :     0.929767
      dx2y2   :     0.000925
      dxy     :     0.997795
      f0      :     0.003407  f :     0.007027
      f+1     :     0.001803
      f-1     :     0.001803
      f+2     :     0.000030
      f-2     :     0.000032
      f+3     :    -0.000024
      f-3     :    -0.000024
      g0      :     0.000169  g :     0.000332
      g+1     :     0.000076
      g-1     :     0.000076
      g+2     :     0.000003
      g-2     :     0.000002
      g+3     :     0.000001
      g-3     :     0.000001
      g+4     :     0.000002
      g-4     :     0.000000
  1 Cls       :     0.024874  s :     0.024874
      pz      :     0.105432  p :     0.183840
      px      :     0.039204
      py      :     0.039204
      dz2     :     0.017052  d :     0.036179
      dxz     :     0.009405
      dyz     :     0.009405
      dx2y2   :    -0.000589
      dxy     :     0.000906
      f0      :     0.004104  f :     0.024854
      f+1     :     0.009927
      f-1     :     0.009927
      f+2     :    -0.000369
      f-2     :     0.001264
      f+3     :    -0.000000
      f-3     :    -0.000000


                      *****************************
                      * MAYER POPULATION ANALYSIS *
                      *****************************

  NA   - Mulliken gross atomic population
  ZA   - Total nuclear charge
  QA   - Mulliken gross atomic charge
  VA   - Mayer's total valence
  BVA  - Mayer's bonded valence
  FA   - Mayer's free valence

  ATOM       NA         ZA         QA         VA         BVA        FA
  0 Fe    25.5445    26.0000     0.4555     5.6355     0.9314     4.7041
  1 Cl    17.4555    17.0000    -0.4555     0.9430     0.9314     0.0116

  Mayer bond orders larger than 0.100000
B(  0-Fe,  1-Cl) :   0.9314 

-------
TIMINGS
-------

Total SCF time: 0 days 0 hours 4 min 40 sec 

Total time                  ....     280.275 sec
Sum of individual times     ....     279.845 sec  ( 99.8%)

Fock matrix formation       ....     279.441 sec  ( 99.7%)
  XC integration            ....       0.386 sec  (  0.1% of F)
    Basis function eval.    ....       0.087 sec  ( 22.5% of XC)
    Density eval.           ....       0.047 sec  ( 12.3% of XC)
    XC-Functional eval.     ....       0.019 sec  (  4.9% of XC)
    XC-Potential eval.      ....       0.114 sec  ( 29.6% of XC)
Diagonalization             ....       0.084 sec  (  0.0%)
Density matrix formation    ....       0.010 sec  (  0.0%)
Population analysis         ....       0.007 sec  (  0.0%)
Initial guess               ....       0.104 sec  (  0.0%)
Orbital Transformation      ....       0.000 sec  (  0.0%)
Orbital Orthonormalization  ....       0.000 sec  (  0.0%)
DIIS solution               ....       0.026 sec  (  0.0%)
Grid generation             ....       0.172 sec  (  0.1%)

-------------------------   --------------------
FINAL SINGLE POINT ENERGY     -1723.753207926227
-------------------------   --------------------


                            ***************************************
                            *     ORCA property calculations      *
                            ***************************************

                                    ---------------------
                                    Active property flags
                                    ---------------------
   (+) Dipole Moment


------------------------------------------------------------------------------
                       ORCA ELECTRIC PROPERTIES CALCULATION
------------------------------------------------------------------------------

Dipole Moment Calculation                       ... on
Quadrupole Moment Calculation                   ... off
Polarizability Calculation                      ... off
GBWName                                         ... 33_FeCl.gbw
Electron density file                           ... 33_FeCl.scfp
The origin for moment calculation is the CENTER OF MASS  = ( 0.000000,  0.000000  1.430012)

-------------
DIPOLE MOMENT
-------------
                                X             Y             Z
Electronic contribution:     -0.00000       0.00000      -2.12837
Nuclear contribution   :      0.00000       0.00000       1.24736
                        -----------------------------------------
Total Dipole Moment    :     -0.00000       0.00000      -0.88101
                        -----------------------------------------
Magnitude (a.u.)       :      0.88101
Magnitude (Debye)      :      2.23935



--------------------
Rotational spectrum 
--------------------
 
Rotational constants in cm-1:     0.000000     0.163882     0.163882 
Rotational constants in MHz :     0.000000  4913.053230  4913.053230 

 Dipole components along the rotational axes: 
x,y,z [a.u.] :    -0.881009     0.000000    -0.000000 
x,y,z [Debye]:    -2.239348     0.000000    -0.000000 

 

Timings for individual modules:

Sum of individual times         ...      287.440 sec (=   4.791 min)
GTO integral calculation        ...        6.218 sec (=   0.104 min)   2.2 %
SCF iterations                  ...      281.222 sec (=   4.687 min)  97.8 %
                             ****ORCA TERMINATED NORMALLY****
TOTAL RUN TIME: 0 days 0 hours 4 minutes 48 seconds 914 msec
