
                                 *****************
                                 * O   R   C   A *
                                 *****************

           --- An Ab Initio, DFT and Semiempirical electronic structure package ---

                  #######################################################
                  #                        -***-                        #
                  #          Department of theory and spectroscopy      #
                  #               Directorship: Frank Neese             #
                  #        Max Planck Institute fuer Kohlenforschung    #
                  #                Kaiser Wilhelm Platz 1               #
                  #                 D-45470 Muelheim/Ruhr               #
                  #                      Germany                        #
                  #                                                     #
                  #                  All rights reserved                #
                  #                        -***-                        #
                  #######################################################


                         Program Version 4.2.0 -  RELEASE  -


 With contributions from (in alphabetic order):
   Daniel Aravena         : Magnetic Suceptibility
   Michael Atanasov       : Ab Initio Ligand Field Theory (pilot matlab implementation)
   Alexander A. Auer      : GIAO ZORA, VPT2
   Ute Becker             : Parallelization
   Giovanni Bistoni       : ED, misc. LED, open-shell LED, HFLED
   Martin Brehm           : Molecular dynamics
   Dmytro Bykov           : SCF Hessian
   Vijay G. Chilkuri      : MRCI spin determinant printing, contributions to CSF-ICE
   Dipayan Datta          : RHF DLPNO-CCSD density
   Achintya Kumar Dutta   : EOM-CC, STEOM-CC
   Dmitry Ganyushin       : Spin-Orbit,Spin-Spin,Magnetic field MRCI
   Miquel Garcia          : C-PCM Hessian, Gaussian charge scheme
   Yang Guo               : DLPNO-NEVPT2, CIM, IAO-localization
   Andreas Hansen         : Spin unrestricted coupled pair/coupled cluster methods
   Benjamin Helmich-Paris : CASSCF linear response (MC-RPA)
   Lee Huntington         : MR-EOM, pCC
   Robert Izsak           : Overlap fitted RIJCOSX, COSX-SCS-MP3, EOM
   Christian Kollmar      : KDIIS, OOCD, Brueckner-CCSD(T), CCSD density
   Simone Kossmann        : Meta GGA functionals, TD-DFT gradient, OOMP2, MP2 Hessian
   Martin Krupicka        : AUTO-CI
   Lucas Lang             : DCDCAS
   Dagmar Lenk            : GEPOL surface, SMD
   Dimitrios Liakos       : Extrapolation schemes; Compound Job, initial MDCI parallelization
   Dimitrios Manganas     : Further ROCIS development; embedding schemes
   Dimitrios Pantazis     : SARC Basis sets
   Taras Petrenko         : DFT Hessian,TD-DFT gradient, ASA, ECA, R-Raman, ABS, FL, XAS/XES, NRVS
   Peter Pinski           : DLPNO-MP2, DLPNO-MP2 Gradient
   Christoph Reimann      : Effective Core Potentials
   Marius Retegan         : Local ZFS, SOC
   Christoph Riplinger    : Optimizer, TS searches, QM/MM, DLPNO-CCSD(T), (RO)-DLPNO pert. Triples
   Tobias Risthaus        : Range-separated hybrids, TD-DFT gradient, RPA, STAB
   Michael Roemelt        : Original ROCIS implementation
   Masaaki Saitow         : Open-shell DLPNO-CCSD energy and density
   Barbara Sandhoefer     : DKH picture change effects
   Avijit Sen             : IP-ROCIS
   Kantharuban Sivalingam : CASSCF convergence, NEVPT2, FIC-MRCI
   Bernardo de Souza      : ESD, SOC TD-DFT
   Georgi Stoychev        : AutoAux, RI-MP2 NMR
   Willem Van den Heuvel  : Paramagnetic NMR
   Boris Wezisla          : Elementary symmetry handling
   Frank Wennmohs         : Technical directorship


 We gratefully acknowledge several colleagues who have allowed us to
 interface, adapt or use parts of their codes:
   Stefan Grimme, W. Hujo, H. Kruse,             : VdW corrections, initial TS optimization,
                  C. Bannwarth                     DFT functionals, gCP, sTDA/sTD-DF
   Ed Valeev, F. Pavosevic, A. Kumar             : LibInt (2-el integral package), F12 methods
   Garnet Chan, S. Sharma, J. Yang, R. Olivares  : DMRG
   Ulf Ekstrom                                   : XCFun DFT Library
   Mihaly Kallay                                 : mrcc  (arbitrary order and MRCC methods)
   Andreas Klamt, Michael Diedenhofen            : otool_cosmo (COSMO solvation model)
   Jiri Pittner, Ondrej Demel                    : Mk-CCSD
   Frank Weinhold                                : gennbo (NPA and NBO analysis)
   Christopher J. Cramer and Donald G. Truhlar   : smd solvation model
   Lars Goerigk                                  : TD-DFT with DH, B97 family of functionals
   V. Asgeirsson, H. Jonsson                     : NEB implementation
   FAccTs GmbH                                   : IRC, NEB, NEB-TS, Multilevel, MM, QM/MM, CI optimization
   S Lehtola, MJT Oliveira, MAL Marques          : LibXC Library


 Your calculation uses the libint2 library for the computation of 2-el integrals
 For citations please refer to: http://libint.valeyev.net

 Your ORCA version has been built with support for libXC version: 4.2.3
 For citations please refer to: https://tddft.org/programs/libxc/

 This ORCA versions uses:
   CBLAS   interface :  Fast vector & matrix operations
   LAPACKE interface :  Fast linear algebra routines
   SCALAPACK package :  Parallel linear algebra routines


Your calculation utilizes the DFT-NL dispersion correction.
Cite in your paper:
Vydrov, O. A.; Van Voorhis, T. J. Chem. Phys. 2010, 133, 244103
Hujo, W.; Grimme, S. J. Chem. Theory Comput. 2011, 7, 3866 
   

----- Orbital basis set information -----
Your calculation utilizes the basis: aug-cc-pVTZ 
    H, B-Ne : Obtained from the ccRepo (grant-hill.group.shef.ac.uk/ccrepo) Feb. 2017
              R. A. Kendall, T. H. Dunning, Jr., R. J. Harrison, J. Chem. Phys. 96, 6796 (1992)
         He : Obtained from the ccRepo (grant-hill.group.shef.ac.uk/ccrepo) Feb. 2017
              D. E. Woon, T. H. Dunning, Jr., J. Chem. Phys. 100, 2975 (1994)
  Li-Be, Na : Obtained from the ccRepo (grant-hill.group.shef.ac.uk/ccrepo) Feb. 2017
              B. P. Prascher, D. E. Woon, K. A. Peterson, T. H. Dunning, Jr., A. K. Wilson, Theor. Chem. Acc. 128, 69 (2011)
         Mg : Obtained from the Peterson Research Group Website (tyr0.chem.wsu.edu/~kipeters) Feb. 2017
              B. P. Prascher, D. E. Woon, K. A. Peterson, T. H. Dunning, Jr., A. K. Wilson, Theor. Chem. Acc. 128, 69 (2011)
      Al-Ar : Obtained from the ccRepo (grant-hill.group.shef.ac.uk/ccrepo) Feb. 2017
              D. E. Woon, T. H. Dunning, Jr., J. Chem. Phys. 98, 1358 (1993)
      Sc-Zn : Obtained from the ccRepo (grant-hill.group.shef.ac.uk/ccrepo) Feb. 2017
              N. B. Balabanov, K. A. Peterson, J. Chem. Phys. 123, 064107 (2005)
              N. B. Balabanov, K. A. Peterson, J. Chem. Phys. 125, 074110 (2006)
      Ga-Kr : Obtained from the ccRepo (grant-hill.group.shef.ac.uk/ccrepo) Feb. 2017
              A. K. Wilson, D. E. Woon, K. A. Peterson, T. H. Dunning, Jr., J. Chem. Phys. 110, 7667 (1999)
     Ag, Au : Obtained from the Peterson Research Group Website (tyr0.chem.wsu.edu/~kipeters) Feb. 2017
              K. A. Peterson, C. Puzzarini, Theor. Chem. Acc. 114, 283 (2005)

----- AuxJK basis set information -----
Your calculation utilizes the auxiliary basis: def2/JK
   H-Ba, Hf-Rn: F. Weigend, J. Comput. Chem. 29, 167 (2008).

================================================================================
                                        WARNINGS
                       Please study these warnings very carefully!
================================================================================


WARNING: your system is open-shell and RHF/RKS was chosen
  ===> : WILL SWITCH to UHF/UKS


INFO   : the flag for use of LIBINT has been found!

================================================================================
                                       INPUT FILE
================================================================================
NAME = 34_FeBr.in
|  1> #
|  2> # 34_FeBr wb97x-v/aug-cc-pvtz
|  3> #
|  4> ! wb97x-v aug-cc-pvtz def2/jk grid4 nofinalgrid
|  5> 
|  6> *xyz 0 6
|  7>   Fe  0.00000000000000      0.00000000000000     -0.16252996889250
|  8>   Br  0.00000000000000      0.00000000000000      2.16252996889250
|  9> *
| 10> 
| 11> %pal
| 12> nprocs 24
| 13> end
| 14> 
| 15> 
| 16>                          ****END OF INPUT****
================================================================================

                       ****************************
                       * Single Point Calculation *
                       ****************************

---------------------------------
CARTESIAN COORDINATES (ANGSTROEM)
---------------------------------
  Fe     0.000000    0.000000   -0.162530
  Br     0.000000    0.000000    2.162530

----------------------------
CARTESIAN COORDINATES (A.U.)
----------------------------
  NO LB      ZA    FRAG     MASS         X           Y           Z
   0 Fe   26.0000    0    55.850    0.000000    0.000000   -0.307137
   1 Br   35.0000    0    79.900    0.000000    0.000000    4.086589

--------------------------------
INTERNAL COORDINATES (ANGSTROEM)
--------------------------------
 Fe     0   0   0     0.000000000000     0.00000000     0.00000000
 Br     1   0   0     2.325059937785     0.00000000     0.00000000

---------------------------
INTERNAL COORDINATES (A.U.)
---------------------------
 Fe     0   0   0     0.000000000000     0.00000000     0.00000000
 Br     1   0   0     4.393726527366     0.00000000     0.00000000

---------------------
BASIS SET INFORMATION
---------------------
There are 2 groups of distinct atoms

 Group   1 Type Fe  : 116s77p23d3f2g contracted to 8s7p5d3f2g pattern {19191919191911/151515151511/77711/111/11}
 Group   2 Type Br  : 75s36p10d2f contracted to 7s6p4d2f pattern {18181818111/111111111/7111/11}

Atom   0Fe   basis set group =>   1
Atom   1Br   basis set group =>   2
----------------------------------
AUXILIARY/JK BASIS SET INFORMATION
----------------------------------
There are 2 groups of distinct atoms

 Group   1 Type Fe  : 19s14p12d10f7g3h1i contracted to 16s13p11d9f5g3h1i pattern {4111111111111111/2111111111111/21111111111/211111111/31111/111/1}
 Group   2 Type Br  : 20s14p13d10f7g3h contracted to 17s13p12d9f6g3h pattern {41111111111111111/2111111111111/211111111111/211111111/211111/111}

Atom   0Fe   basis set group =>   1
Atom   1Br   basis set group =>   2


           ************************************************************
           *        Program running with 24 parallel MPI-processes    *
           *              working on a common directory               *
           ************************************************************
------------------------------------------------------------------------------
                           ORCA GTO INTEGRAL CALCULATION
------------------------------------------------------------------------------

                         BASIS SET STATISTICS AND STARTUP INFO

 # of primitive gaussian shells          ...  344
 # of primitive gaussian functions       ...  748
 # of contracted shells                  ...   44
 # of contracted basis functions         ...  152
 Highest angular momentum                ...    4
 Maximum contraction depth               ...   19
 Integral package used                   ... LIBINT
 Integral threshhold            Thresh   ...  1.000e-10
 Primitive cut-off              TCut     ...  1.000e-11


------------------------------ INTEGRAL EVALUATION ----------------------------


 * One electron integrals 
 Pre-screening matrix                    ... done
 Shell pair data                         ... done (   0.002 sec)



           ************************************************************
           *        Program running with 24 parallel MPI-processes    *
           *              working on a common directory               *
           ************************************************************
-------------------------------------------------------------------------------
                                 ORCA SCF
-------------------------------------------------------------------------------

------------
SCF SETTINGS
------------
Hamiltonian:
 Density Functional     Method          .... DFT(GTOs)
 Exchange Functional    Exchange        .... WB97X-V
 Correlation Functional Correlation     .... WB97X-V
 Gradients option       PostSCFGGA      .... off
 Hybrid DFT is turned on
   Fraction HF Exchange ScalHFX         ....  0.167000
   Scaling of DF-GGA-X  ScalDFX         ....  0.000000
   Scaling of DF-GGA-C  ScalDFC         ....  1.000000
   Scaling of DF-LDA-C  ScalLDAC        ....  1.000000
   Perturbative correction              ....  0.000000
   Density functional embedding theory  .... OFF
 Long-range corrected/Screened/Range-Separated Hybrid DFT is turned on
   Amount of maximum screened exact exchange              ....  0.833000
   Range separation parameter mu (erf(mu*r12)/r12)        ....  0.300000
   NL short-range parameter             ....  6.000000
   NL long-range parameter              ....  0.010000


General Settings:
 Integral files         IntName         .... 34_FeBr
 Hartree-Fock type      HFTyp           .... UHF
 Total Charge           Charge          ....    0
 Multiplicity           Mult            ....    6
 Number of Electrons    NEL             ....   61
 Basis Dimension        Dim             ....  152
 Nuclear Repulsion      ENuc            ....    207.1134819912 Eh

Convergence Acceleration:
 DIIS                   CNVDIIS         .... on
   Start iteration      DIISMaxIt       ....    12
   Startup error        DIISStart       ....  0.200000
   # of expansion vecs  DIISMaxEq       ....     5
   Bias factor          DIISBfac        ....   1.050
   Max. coefficient     DIISMaxC        ....  10.000
 Newton-Raphson         CNVNR           .... off
 SOSCF                  CNVSOSCF        .... off
 Level Shifting         CNVShift        .... on
   Level shift para.    LevelShift      ....    0.2500
   Turn off err/grad.   ShiftErr        ....    0.0010
 Zerner damping         CNVZerner       .... off
 Static damping         CNVDamp         .... on
   Fraction old density DampFac         ....    0.7000
   Max. Damping (<1)    DampMax         ....    0.9800
   Min. Damping (>=0)   DampMin         ....    0.0000
   Turn off err/grad.   DampErr         ....    0.1000
 Fernandez-Rico         CNVRico         .... off

SCF Procedure:
 Maximum # iterations   MaxIter         ....   125
 SCF integral mode      SCFMode         .... Direct
   Integral package                     .... LIBINT
 Reset frequency        DirectResetFreq ....    20
 Integral Threshold     Thresh          ....  1.000e-10 Eh
 Primitive CutOff       TCut            ....  1.000e-11 Eh

Convergence Tolerance:
 Convergence Check Mode ConvCheckMode   .... Total+1el-Energy
 Convergence forced     ConvForced      .... 0
 Energy Change          TolE            ....  1.000e-06 Eh
 1-El. energy change                    ....  1.000e-03 Eh
 DIIS Error             TolErr          ....  1.000e-06


Diagonalization of the overlap matrix:
Smallest eigenvalue                        ... 1.117e-04
Time for diagonalization                   ...    0.005 sec
Threshold for overlap eigenvalues          ... 1.000e-08
Number of eigenvalues below threshold      ... 0
Time for construction of square roots      ...    0.003 sec
Total time needed                          ...    0.008 sec

-------------------
DFT GRID GENERATION
-------------------

General Integration Accuracy     IntAcc      ...  4.670
Radial Grid Type                 RadialGrid  ... Gauss-Chebyshev
Angular Grid (max. acc.)         AngularGrid ... Lebedev-302
Angular grid pruning method      GridPruning ... 3 (G Style)
Weight generation scheme         WeightScheme... Becke
Basis function cutoff            BFCut       ...    1.0000e-10
Integration weight cutoff        WCut        ...    1.0000e-14
Grids for H and He will be reduced by one unit

# of grid points (after initial pruning)     ...  19256 (   0.0 sec)
# of grid points (after weights+screening)   ...  19229 (   0.0 sec)
nearest neighbour list constructed           ...    0.0 sec
Grid point re-assignment to atoms done       ...    0.0 sec
Grid point division into batches done        ...    0.2 sec
Reduced shell lists constructed in    0.2 sec

Total number of grid points                  ...    19229
Total number of batches                      ...      302
Average number of points per batch           ...       63
Average number of grid points per atom       ...     9614
Average number of shells per batch           ...    16.14 (36.69%)
Average number of basis functions per batch  ...    38.71 (25.47%)
Average number of large shells per batch     ...     8.64 (53.54%)
Average number of large basis fcns per batch ...    22.36 (57.75%)
Maximum spatial batch extension              ...  24.49, 24.19, 17.83 au
Average spatial batch extension              ...   0.84,  0.83,  0.67 au

Time for grid setup =    0.210 sec

------------------------------
INITIAL GUESS: MODEL POTENTIAL
------------------------------
Loading Hartree-Fock densities                     ... done
Calculating cut-offs                               ... done
Setting up the integral package                    ... done
Initializing the effective Hamiltonian             ... done
Starting the Coulomb interaction                   ... done (   0.0 sec)
Reading the grid                                   ... done
Mapping shells                                     ... done
Starting the XC term evaluation                    ... done (   0.0 sec)
  promolecular density results
     # of electrons  =     60.999970746
     EX              =   -110.648941737
     EC              =     -3.803593189
     EX+EC           =   -114.452534927
Transforming the Hamiltonian                       ... done (   0.0 sec)
Diagonalizing the Hamiltonian                      ... done (   0.0 sec)
Back transforming the eigenvectors                 ... done (   0.0 sec)
Now organizing SCF variables                       ... done
                      ------------------
                      INITIAL GUESS DONE (   0.3 sec)
                      ------------------
--------------
SCF ITERATIONS
--------------
ITER       Energy         Delta-E        Max-DP      RMS-DP      [F,P]     Damp
               ***  Starting incremental Fock matrix formation  ***
  0  -3829.6218120156   0.000000000000 2.20217062  0.02528849  1.4988302 0.7000
  1  -3833.8109670278  -4.189155012149 1.58863927  0.01385031  0.4202098 0.7000
  2  -3834.7018671584  -0.890900130566 1.15981359  0.01037764  0.5573937 0.7000
  3  -3835.6795836086  -0.977716450228 0.81355121  0.00726022  0.2869335 0.7000
                               ***Turning on DIIS***
  4  -3836.2907655107  -0.611181902149 0.56697313  0.00504778  0.1410039 0.7000
  5  -3836.7208452405  -0.430079729729 1.31971733  0.01187024  0.0817892 0.0000
  6  -3837.7935660691  -1.072720828688 0.15648696  0.00154330  0.0520149 0.0000
  7  -3837.8130389898  -0.019472920673 0.09618602  0.00096440  0.0401029 0.0000
  8  -3837.8184028646  -0.005363874763 0.07194056  0.00064312  0.0189573 0.0000
  9  -3837.8215255039  -0.003122639328 0.03752387  0.00036156  0.0084161 0.0000
 10  -3837.8226842497  -0.001158745763 0.01656217  0.00017343  0.0042769 0.0000
 11  -3837.8230624913  -0.000378241616 0.00688562  0.00006323  0.0022434 0.0000
 12  -3837.8231568509  -0.000094359608 0.00345223  0.00003837  0.0011070 0.0000
 13  -3837.8231880116  -0.000031160683 0.00193528  0.00003017  0.0006241 0.0000
 14  -3837.8231967632  -0.000008751663 0.00047352  0.00000632  0.0003394 0.0000
 15  -3837.8231970053  -0.000000242016 0.00015489  0.00000217  0.0001235 0.0000
                 **** Energy Check signals convergence ****

               *****************************************************
               *                     SUCCESS                       *
               *           SCF CONVERGED AFTER  16 CYCLES          *
               *****************************************************


Setting up the DFT-NL grid :

General Integration Accuracy     IntAcc      ...  4.340
Radial Grid Type                 RadialGrid  ... Gauss-Chebyshev
Angular Grid (max. acc.)         AngularGrid ... Lebedev-110
Angular grid pruning method      GridPruning ... 3 (G Style)
Weight generation scheme         WeightScheme... Becke
Basis function cutoff            BFCut       ...    1.0000e-10
Integration weight cutoff        WCut        ...    1.0000e-14
Grids for H and He will be reduced by one unit

# of grid points (after initial pruning)     ...   5802 (   0.0 sec)
# of grid points (after weights+screening)   ...   5778 (   0.0 sec)
nearest neighbour list constructed           ...    0.0 sec
Grid point re-assignment to atoms done       ...    0.0 sec
Grid point division into batches done        ...    0.0 sec
Reduced shell lists constructed in    0.0 sec

Total number of grid points                  ...     5778
Total number of batches                      ...       92
Average number of points per batch           ...       62
Average number of grid points per atom       ...     2889
Average number of shells per batch           ...    24.00 (54.55%)
Average number of basis functions per batch  ...    72.00 (47.37%)
Average number of large shells per batch     ...    16.00 (66.67%)
Average number of large basis fcns per batch ...    44.00 (61.11%)
Maximum spatial batch extension              ...  18.98, 28.73, 16.29 au
Average spatial batch extension              ...   0.77,  1.05,  0.71 au

Final grid set up in    0.0 sec

-------------------------------------------------------------------------------
                         DFT-NL dispersion correction                          
-------------------------------------------------------------------------------

SC Energy -3837.823197050 
NL    Energy 0.255557439 
SC+NL Energy -3837.567639611 
NL done in    0.0 sec
-------------------------------------------------------------------------------

----------------
TOTAL SCF ENERGY
----------------

Total Energy       :        -3837.56763961 Eh         -104425.52436 eV

Components:
Nuclear Repulsion  :          207.11348199 Eh            5635.84437 eV
Electronic Energy  :        -4044.68112160 Eh         -110061.36873 eV
One Electron Energy:        -5741.04528675 Eh         -156221.78441 eV
Two Electron Energy:         1696.36416515 Eh           46160.41568 eV

Virial components:
Potential Energy   :        -7670.28533758 Eh         -208719.07511 eV
Kinetic Energy     :         3832.71769797 Eh          104293.55074 eV
Virial Ratio       :            2.00126541


DFT components:
N(Alpha)           :       33.000005124735 electrons
N(Beta)            :       28.000003321976 electrons
N(Total)           :       61.000008446710 electrons
E(X)               :     -110.770002183726 Eh       
E(C)               :       -3.758115041148 Eh       
NL Energy, E(C,NL) :        0.255557439035 Eh       
E(XC)              :     -114.272559785838 Eh       
DFET-embed. en.    :        0.000000000000 Eh       

---------------
SCF CONVERGENCE
---------------

  Last Energy change         ...   -4.4899e-08  Tolerance :   1.0000e-06
  Last MAX-Density change    ...    7.2485e-05  Tolerance :   1.0000e-05
  Last RMS-Density change    ...    8.6802e-07  Tolerance :   1.0000e-06
  Last DIIS Error            ...    1.5551e-05  Tolerance :   1.0000e-06

             **** THE GBW FILE WAS UPDATED (34_FeBr.gbw) ****
             **** DENSITY FILE WAS UPDATED (34_FeBr.scfp) ****
             **** ENERGY FILE WAS UPDATED (34_FeBr.en.tmp) ****
----------------------
UHF SPIN CONTAMINATION
----------------------

Warning: in a DFT calculation there is little theoretical justification to 
         calculate <S**2> as in Hartree-Fock theory. We will do it anyways
         but you should keep in mind that the values have only limited relevance

Expectation value of <S**2>     :     8.753983
Ideal value S*(S+1) for S=2.5   :     8.750000
Deviation                       :     0.003983

             **** THE GBW FILE WAS UPDATED (34_FeBr.gbw) ****
             **** DENSITY FILE WAS UPDATED (34_FeBr.scfp) ****
----------------
ORBITAL ENERGIES
----------------
                 SPIN UP ORBITALS
  NO   OCC          E(Eh)            E(eV) 
   0   1.0000    -482.639886    -13133.2990 
   1   1.0000    -256.056404     -6967.6490 
   2   1.0000     -62.513950     -1701.0911 
   3   1.0000     -56.318158     -1532.4950 
   4   1.0000     -56.317293     -1532.4715 
   5   1.0000     -56.317293     -1532.4715 
   6   1.0000     -30.200304      -821.7921 
   7   1.0000     -26.065990      -709.2917 
   8   1.0000     -26.037885      -708.5269 
   9   1.0000     -26.037885      -708.5269 
  10   1.0000      -8.778157      -238.8658 
  11   1.0000      -6.601812      -179.6444 
  12   1.0000      -6.598960      -179.5668 
  13   1.0000      -6.598960      -179.5668 
  14   1.0000      -3.743142      -101.8561 
  15   1.0000      -2.725455       -74.1634 
  16   1.0000      -2.724488       -74.1371 
  17   1.0000      -2.724488       -74.1371 
  18   1.0000      -2.722262       -74.0765 
  19   1.0000      -2.722226       -74.0755 
  20   1.0000      -2.554646       -69.5155 
  21   1.0000      -2.500064       -68.0302 
  22   1.0000      -2.500064       -68.0302 
  23   1.0000      -0.878112       -23.8947 
  24   1.0000      -0.565833       -15.3971 
  25   1.0000      -0.554415       -15.0864 
  26   1.0000      -0.554415       -15.0864 
  27   1.0000      -0.530116       -14.4252 
  28   1.0000      -0.496485       -13.5100 
  29   1.0000      -0.437146       -11.8954 
  30   1.0000      -0.390898       -10.6369 
  31   1.0000      -0.390898       -10.6369 
  32   1.0000      -0.287596        -7.8259 
  33   0.0000       0.011724         0.3190 
  34   0.0000       0.011724         0.3190 
  35   0.0000       0.024078         0.6552 
  36   0.0000       0.030042         0.8175 
  37   0.0000       0.051068         1.3896 
  38   0.0000       0.051068         1.3896 
  39   0.0000       0.081148         2.2081 
  40   0.0000       0.090735         2.4690 
  41   0.0000       0.091098         2.4789 
  42   0.0000       0.095676         2.6035 
  43   0.0000       0.108817         2.9611 
  44   0.0000       0.108817         2.9611 
  45   0.0000       0.131371         3.5748 
  46   0.0000       0.131371         3.5748 
  47   0.0000       0.139335         3.7915 
  48   0.0000       0.147671         4.0183 
  49   0.0000       0.215183         5.8554 
  50   0.0000       0.215183         5.8554 
  51   0.0000       0.231826         6.3083 
  52   0.0000       0.248109         6.7514 
  53   0.0000       0.263454         7.1689 
  54   0.0000       0.263836         7.1793 
  55   0.0000       0.308140         8.3849 
  56   0.0000       0.308140         8.3849 
  57   0.0000       0.330308         8.9881 
  58   0.0000       0.332445         9.0463 
  59   0.0000       0.362285         9.8583 
  60   0.0000       0.398804        10.8520 
  61   0.0000       0.398804        10.8520 
  62   0.0000       0.454055        12.3555 
  63   0.0000       0.521909        14.2019 
  64   0.0000       0.521909        14.2019 
  65   0.0000       0.543382        14.7862 
  66   0.0000       0.663601        18.0575 
  67   0.0000       0.686397        18.6778 
  68   0.0000       0.715014        19.4565 
  69   0.0000       0.715105        19.4590 
  70   0.0000       0.715596        19.4724 
  71   0.0000       0.715596        19.4724 
  72   0.0000       0.807332        21.9686 
  73   0.0000       0.807332        21.9686 
  74   0.0000       0.814185        22.1551 
  75   0.0000       0.814636        22.1674 
  76   0.0000       0.843758        22.9598 
  77   0.0000       0.843758        22.9598 
  78   0.0000       0.888298        24.1718 
  79   0.0000       0.942284        25.6409 
  80   0.0000       0.942284        25.6409 
  81   0.0000       0.979602        26.6563 
  82   0.0000       0.979602        26.6563 
  83   0.0000       1.022308        27.8184 
  84   0.0000       1.101496        29.9732 
  85   0.0000       1.104235        30.0478 
  86   0.0000       1.111059        30.2335 
  87   0.0000       1.117354        30.4047 
  88   0.0000       1.117354        30.4047 
  89   0.0000       1.154562        31.4172 
  90   0.0000       1.163328        31.6558 
  91   0.0000       1.292750        35.1775 
  92   0.0000       1.448518        39.4162 
  93   0.0000       1.448518        39.4162 
  94   0.0000       1.719613        46.7931 
  95   0.0000       1.977094        53.7995 
  96   0.0000       1.977094        53.7995 
  97   0.0000       2.105154        57.2842 
  98   0.0000       2.105218        57.2859 
  99   0.0000       2.112373        57.4806 
 100   0.0000       2.134860        58.0925 
 101   0.0000       2.134860        58.0925 
 102   0.0000       2.169681        59.0400 
 103   0.0000       2.169781        59.0427 
 104   0.0000       2.208002        60.0828 
 105   0.0000       2.208002        60.0828 
 106   0.0000       2.225320        60.5540 
 107   0.0000       2.225320        60.5540 
 108   0.0000       2.273938        61.8770 
 109   0.0000       2.486678        67.6660 
 110   0.0000       2.688098        73.1469 
 111   0.0000       2.688098        73.1469 
 112   0.0000       2.716104        73.9089 
 113   0.0000       2.726920        74.2033 
 114   0.0000       2.799036        76.1656 
 115   0.0000       2.799036        76.1656 
 116   0.0000       2.888598        78.6027 
 117   0.0000       2.930451        79.7416 
 118   0.0000       3.026444        82.3537 
 119   0.0000       3.026444        82.3537 
 120   0.0000       3.345205        91.0277 
 121   0.0000       3.347132        91.0801 
 122   0.0000       3.347132        91.0801 
 123   0.0000       3.349131        91.1345 
 124   0.0000       3.351396        91.1961 
 125   0.0000       3.376837        91.8884 
 126   0.0000       3.381800        92.0235 
 127   0.0000       3.515484        95.6612 
 128   0.0000       3.515484        95.6612 
 129   0.0000       3.593668        97.7887 
 130   0.0000       4.370618       118.9306 
 131   0.0000       4.496202       122.3479 
 132   0.0000       4.521055       123.0242 
 133   0.0000       4.637509       126.1930 
 134   0.0000       4.637509       126.1930 
 135   0.0000       5.392204       146.7293 
 136   0.0000       8.883760       241.7394 
 137   0.0000       8.906880       242.3685 
 138   0.0000       8.906880       242.3685 
 139   0.0000       8.909987       242.4531 
 140   0.0000       8.934498       243.1200 
 141   0.0000       8.934498       243.1200 
 142   0.0000       8.965970       243.9764 
 143   0.0000       9.620749       261.7939 
 144   0.0000       9.625153       261.9137 
 145   0.0000       9.625153       261.9137 
 146   0.0000       9.639932       262.3159 
 147   0.0000       9.646990       262.5079 
 148   0.0000       9.647627       262.5253 
 149   0.0000       9.688864       263.6474 
 150   0.0000       9.688864       263.6474 
 151   0.0000       9.756544       265.4891 

                 SPIN DOWN ORBITALS
  NO   OCC          E(Eh)            E(eV) 
   0   1.0000    -482.639376    -13133.2851 
   1   1.0000    -256.054274     -6967.5910 
   2   1.0000     -62.513666     -1701.0833 
   3   1.0000     -56.317476     -1532.4764 
   4   1.0000     -56.316848     -1532.4593 
   5   1.0000     -56.316848     -1532.4593 
   6   1.0000     -30.126170      -819.7748 
   7   1.0000     -25.995873      -707.3837 
   8   1.0000     -25.983005      -707.0335 
   9   1.0000     -25.983005      -707.0335 
  10   1.0000      -8.777419      -238.8457 
  11   1.0000      -6.600691      -179.6139 
  12   1.0000      -6.598206      -179.5463 
  13   1.0000      -6.598206      -179.5463 
  14   1.0000      -3.566522       -97.0500 
  15   1.0000      -2.724462       -74.1364 
  16   1.0000      -2.723568       -74.1120 
  17   1.0000      -2.723568       -74.1120 
  18   1.0000      -2.721540       -74.0569 
  19   1.0000      -2.721505       -74.0559 
  20   1.0000      -2.329380       -63.3856 
  21   1.0000      -2.326669       -63.3119 
  22   1.0000      -2.326669       -63.3119 
  23   1.0000      -0.868817       -23.6417 
  24   1.0000      -0.442678       -12.0459 
  25   1.0000      -0.409645       -11.1470 
  26   1.0000      -0.394425       -10.7328 
  27   1.0000      -0.394425       -10.7328 
  28   0.0000      -0.047747        -1.2993 
  29   0.0000      -0.019479        -0.5300 
  30   0.0000      -0.019479        -0.5300 
  31   0.0000       0.002576         0.0701 
  32   0.0000       0.004234         0.1152 
  33   0.0000       0.029068         0.7910 
  34   0.0000       0.029068         0.7910 
  35   0.0000       0.036882         1.0036 
  36   0.0000       0.039913         1.0861 
  37   0.0000       0.076009         2.0683 
  38   0.0000       0.076009         2.0683 
  39   0.0000       0.089143         2.4257 
  40   0.0000       0.100871         2.7448 
  41   0.0000       0.105187         2.8623 
  42   0.0000       0.117237         3.1902 
  43   0.0000       0.117237         3.1902 
  44   0.0000       0.125141         3.4053 
  45   0.0000       0.142783         3.8853 
  46   0.0000       0.142783         3.8853 
  47   0.0000       0.155045         4.2190 
  48   0.0000       0.171246         4.6598 
  49   0.0000       0.237715         6.4686 
  50   0.0000       0.237715         6.4686 
  51   0.0000       0.242949         6.6110 
  52   0.0000       0.266406         7.2493 
  53   0.0000       0.268643         7.3101 
  54   0.0000       0.289888         7.8883 
  55   0.0000       0.341466         9.2918 
  56   0.0000       0.341466         9.2918 
  57   0.0000       0.346040         9.4162 
  58   0.0000       0.361378         9.8336 
  59   0.0000       0.387946        10.5565 
  60   0.0000       0.421487        11.4692 
  61   0.0000       0.421487        11.4692 
  62   0.0000       0.479004        13.0344 
  63   0.0000       0.528760        14.3883 
  64   0.0000       0.528760        14.3883 
  65   0.0000       0.574897        15.6437 
  66   0.0000       0.667578        18.1657 
  67   0.0000       0.718187        19.5429 
  68   0.0000       0.718442        19.5498 
  69   0.0000       0.720981        19.6189 
  70   0.0000       0.723116        19.6770 
  71   0.0000       0.723116        19.6770 
  72   0.0000       0.826034        22.4775 
  73   0.0000       0.830690        22.6042 
  74   0.0000       0.840749        22.8779 
  75   0.0000       0.840749        22.8779 
  76   0.0000       0.850743        23.1499 
  77   0.0000       0.850743        23.1499 
  78   0.0000       0.918146        24.9840 
  79   0.0000       0.953709        25.9518 
  80   0.0000       0.953709        25.9518 
  81   0.0000       1.000784        27.2327 
  82   0.0000       1.000784        27.2327 
  83   0.0000       1.047270        28.4977 
  84   0.0000       1.127975        30.6938 
  85   0.0000       1.135980        30.9116 
  86   0.0000       1.173704        31.9381 
  87   0.0000       1.187605        32.3164 
  88   0.0000       1.187605        32.3164 
  89   0.0000       1.198685        32.6179 
  90   0.0000       1.223111        33.2825 
  91   0.0000       1.319671        35.9101 
  92   0.0000       1.484116        40.3848 
  93   0.0000       1.484116        40.3848 
  94   0.0000       1.748421        47.5770 
  95   0.0000       1.981422        53.9172 
  96   0.0000       1.981422        53.9172 
  97   0.0000       2.108830        57.3842 
  98   0.0000       2.108836        57.3843 
  99   0.0000       2.119800        57.6827 
 100   0.0000       2.138849        58.2010 
 101   0.0000       2.138849        58.2010 
 102   0.0000       2.174119        59.1608 
 103   0.0000       2.174205        59.1631 
 104   0.0000       2.214890        60.2702 
 105   0.0000       2.214890        60.2702 
 106   0.0000       2.230524        60.6956 
 107   0.0000       2.230524        60.6956 
 108   0.0000       2.281668        62.0873 
 109   0.0000       2.532661        68.9172 
 110   0.0000       2.760633        75.1206 
 111   0.0000       2.760633        75.1206 
 112   0.0000       2.801581        76.2349 
 113   0.0000       2.824358        76.8547 
 114   0.0000       2.893189        78.7277 
 115   0.0000       2.893189        78.7277 
 116   0.0000       2.975745        80.9741 
 117   0.0000       3.038792        82.6897 
 118   0.0000       3.111760        84.6753 
 119   0.0000       3.111760        84.6753 
 120   0.0000       3.391759        92.2945 
 121   0.0000       3.396194        92.4151 
 122   0.0000       3.400627        92.5358 
 123   0.0000       3.400627        92.5358 
 124   0.0000       3.413732        92.8924 
 125   0.0000       3.430343        93.3444 
 126   0.0000       3.437706        93.5447 
 127   0.0000       3.573599        97.2426 
 128   0.0000       3.573599        97.2426 
 129   0.0000       3.667130        99.7877 
 130   0.0000       4.383984       119.2943 
 131   0.0000       4.590383       124.9107 
 132   0.0000       4.641479       126.3011 
 133   0.0000       4.771674       129.8438 
 134   0.0000       4.771674       129.8438 
 135   0.0000       5.512047       149.9904 
 136   0.0000       9.040832       246.0135 
 137   0.0000       9.040832       246.0135 
 138   0.0000       9.047503       246.1951 
 139   0.0000       9.075845       246.9663 
 140   0.0000       9.104900       247.7569 
 141   0.0000       9.104900       247.7569 
 142   0.0000       9.138957       248.6837 
 143   0.0000       9.737480       264.9703 
 144   0.0000       9.737480       264.9703 
 145   0.0000       9.738057       264.9860 
 146   0.0000       9.741368       265.0761 
 147   0.0000       9.742102       265.0961 
 148   0.0000       9.758774       265.5497 
 149   0.0000       9.809851       266.9396 
 150   0.0000       9.809851       266.9396 
 151   0.0000       9.877555       268.7819 

                    ********************************
                    * MULLIKEN POPULATION ANALYSIS *
                    ********************************

--------------------------------------------
MULLIKEN ATOMIC CHARGES AND SPIN POPULATIONS
--------------------------------------------
   0 Fe:    0.416557    4.810126
   1 Br:   -0.416557    0.189874
Sum of atomic charges         :   -0.0000000
Sum of atomic spin populations:    5.0000000

-----------------------------------------------------
MULLIKEN REDUCED ORBITAL CHARGES AND SPIN POPULATIONS
-----------------------------------------------------
CHARGE
  0 Fes       :     6.968999  s :     6.968999
      pz      :     4.336209  p :    12.416288
      px      :     4.040040
      py      :     4.040040
      dz2     :     1.079413  d :     6.181663
      dxz     :     1.051798
      dyz     :     1.051798
      dx2y2   :     1.998954
      dxy     :     0.999699
      f0      :     0.005557  f :     0.016023
      f+1     :     0.005184
      f-1     :     0.005184
      f+2     :     0.000023
      f-2     :     0.000003
      f+3     :     0.000036
      f-3     :     0.000036
      g0      :     0.000208  g :     0.000470
      g+1     :     0.000119
      g-1     :     0.000119
      g+2     :     0.000009
      g-2     :     0.000003
      g+3     :     0.000001
      g-3     :     0.000001
      g+4     :     0.000010
      g-4     :     0.000000
  1 Brs       :     7.976537  s :     7.976537
      pz      :     5.623769  p :    17.412190
      px      :     5.894211
      py      :     5.894211
      dz2     :     2.009083  d :    10.024522
      dxz     :     2.007347
      dyz     :     2.007347
      dx2y2   :     2.000602
      dxy     :     2.000144
      f0      :     0.000217  f :     0.003307
      f+1     :     0.001264
      f-1     :     0.001264
      f+2     :     0.000412
      f-2     :     0.000150
      f+3     :     0.000000
      f-3     :     0.000000

SPIN
  0 Fes       :     0.758317  s :     0.758317
      pz      :     0.224737  p :     0.232420
      px      :     0.003841
      py      :     0.003841
      dz2     :     0.915153  d :     3.820581
      dxz     :     0.952712
      dyz     :     0.952712
      dx2y2   :     0.000304
      dxy     :     0.999699
      f0      :     0.000013  f :    -0.001187
      f+1     :    -0.000567
      f-1     :    -0.000567
      f+2     :    -0.000020
      f-2     :     0.000001
      f+3     :    -0.000024
      f-3     :    -0.000024
      g0      :    -0.000014  g :    -0.000005
      g+1     :    -0.000003
      g-1     :    -0.000003
      g+2     :     0.000008
      g-2     :     0.000003
      g+3     :     0.000001
      g-3     :     0.000001
      g+4     :     0.000002
      g-4     :     0.000000
  1 Brs       :     0.013014  s :     0.013014
      pz      :     0.087848  p :     0.177813
      px      :     0.044982
      py      :     0.044982
      dz2     :     0.000858  d :    -0.001098
      dxz     :    -0.000936
      dyz     :    -0.000936
      dx2y2   :    -0.000232
      dxy     :     0.000147
      f0      :     0.000072  f :     0.000146
      f+1     :    -0.000008
      f-1     :    -0.000008
      f+2     :    -0.000060
      f-2     :     0.000150
      f+3     :    -0.000000
      f-3     :    -0.000000


                     *******************************
                     * LOEWDIN POPULATION ANALYSIS *
                     *******************************

-------------------------------------------
LOEWDIN ATOMIC CHARGES AND SPIN POPULATIONS
-------------------------------------------
   0 Fe:    0.007068    4.722578
   1 Br:   -0.007068    0.277422

----------------------------------------------------
LOEWDIN REDUCED ORBITAL CHARGES AND SPIN POPULATIONS
----------------------------------------------------
CHARGE
  0 Fes       :     6.763583  s :     6.763583
      pz      :     4.538846  p :    12.681503
      px      :     4.071328
      py      :     4.071328
      dz2     :     1.213346  d :     6.444845
      dxz     :     1.119138
      dyz     :     1.119138
      dx2y2   :     1.995009
      dxy     :     0.998213
      f0      :     0.043209  f :     0.100621
      f+1     :     0.028648
      f-1     :     0.028648
      f+2     :     0.000023
      f-2     :     0.000021
      f+3     :     0.000036
      f-3     :     0.000036
      g0      :     0.001182  g :     0.002381
      g+1     :     0.000587
      g-1     :     0.000587
      g+2     :     0.000009
      g-2     :     0.000002
      g+3     :     0.000001
      g-3     :     0.000001
      g+4     :     0.000010
      g-4     :     0.000000
  1 Brs       :     7.645864  s :     7.645864
      pz      :     5.650521  p :    17.146411
      px      :     5.747945
      py      :     5.747945
      dz2     :     2.104462  d :    10.142287
      dxz     :     2.017520
      dyz     :     2.017520
      dx2y2   :     2.002118
      dxy     :     2.000666
      f0      :     0.038976  f :     0.072506
      f+1     :     0.014796
      f-1     :     0.014796
      f+2     :     0.002842
      f-2     :     0.001097
      f+3     :     0.000000
      f-3     :     0.000000

SPIN
  0 Fes       :     0.628763  s :     0.628763
      pz      :     0.299374  p :     0.316782
      px      :     0.008704
      py      :     0.008704
      dz2     :     0.903808  d :     3.771537
      dxz     :     0.934319
      dyz     :     0.934319
      dx2y2   :     0.000880
      dxy     :     0.998210
      f0      :     0.003054  f :     0.005309
      f+1     :     0.001134
      f-1     :     0.001134
      f+2     :     0.000016
      f-2     :     0.000018
      f+3     :    -0.000024
      f-3     :    -0.000024
      g0      :     0.000105  g :     0.000187
      g+1     :     0.000035
      g-1     :     0.000035
      g+2     :     0.000005
      g-2     :     0.000002
      g+3     :     0.000001
      g-3     :     0.000001
      g+4     :     0.000002
      g-4     :     0.000000
  1 Brs       :     0.027091  s :     0.027091
      pz      :     0.110225  p :     0.190511
      px      :     0.040143
      py      :     0.040143
      dz2     :     0.023659  d :     0.037412
      dxz     :     0.006797
      dyz     :     0.006797
      dx2y2   :    -0.000515
      dxy     :     0.000674
      f0      :     0.003919  f :     0.022407
      f+1     :     0.008889
      f-1     :     0.008889
      f+2     :    -0.000387
      f-2     :     0.001097
      f+3     :    -0.000000
      f-3     :    -0.000000


                      *****************************
                      * MAYER POPULATION ANALYSIS *
                      *****************************

  NA   - Mulliken gross atomic population
  ZA   - Total nuclear charge
  QA   - Mulliken gross atomic charge
  VA   - Mayer's total valence
  BVA  - Mayer's bonded valence
  FA   - Mayer's free valence

  ATOM       NA         ZA         QA         VA         BVA        FA
  0 Fe    25.5834    26.0000     0.4166     5.6737     0.9929     4.6808
  1 Br    35.4166    35.0000    -0.4166     1.0063     0.9929     0.0134

  Mayer bond orders larger than 0.100000
B(  0-Fe,  1-Br) :   0.9929 

-------
TIMINGS
-------

Total SCF time: 0 days 0 hours 6 min 50 sec 

Total time                  ....     410.010 sec
Sum of individual times     ....     409.653 sec  ( 99.9%)

Fock matrix formation       ....     409.160 sec  ( 99.8%)
  XC integration            ....       0.511 sec  (  0.1% of F)
    Basis function eval.    ....       0.141 sec  ( 27.6% of XC)
    Density eval.           ....       0.069 sec  ( 13.5% of XC)
    XC-Functional eval.     ....       0.025 sec  (  4.9% of XC)
    XC-Potential eval.      ....       0.148 sec  ( 29.0% of XC)
Diagonalization             ....       0.092 sec  (  0.0%)
Density matrix formation    ....       0.012 sec  (  0.0%)
Population analysis         ....       0.007 sec  (  0.0%)
Initial guess               ....       0.119 sec  (  0.0%)
Orbital Transformation      ....       0.000 sec  (  0.0%)
Orbital Orthonormalization  ....       0.000 sec  (  0.0%)
DIIS solution               ....       0.032 sec  (  0.0%)
Grid generation             ....       0.230 sec  (  0.1%)

-------------------------   --------------------
FINAL SINGLE POINT ENERGY     -3837.567639611126
-------------------------   --------------------


                            ***************************************
                            *     ORCA property calculations      *
                            ***************************************

                                    ---------------------
                                    Active property flags
                                    ---------------------
   (+) Dipole Moment


------------------------------------------------------------------------------
                       ORCA ELECTRIC PROPERTIES CALCULATION
------------------------------------------------------------------------------

Dipole Moment Calculation                       ... on
Quadrupole Moment Calculation                   ... off
Polarizability Calculation                      ... off
GBWName                                         ... 34_FeBr.gbw
Electron density file                           ... 34_FeBr.scfp
The origin for moment calculation is the CENTER OF MASS  = ( 0.000000,  0.000000  2.278931)

-------------
DIPOLE MOMENT
-------------
                                X             Y             Z
Electronic contribution:      0.00000       0.00000       3.07889
Nuclear contribution   :      0.00000       0.00000      -3.96973
                        -----------------------------------------
Total Dipole Moment    :      0.00000       0.00000      -0.89084
                        -----------------------------------------
Magnitude (a.u.)       :      0.89084
Magnitude (Debye)      :      2.26433



--------------------
Rotational spectrum 
--------------------
 
Rotational constants in cm-1:     0.000000     0.094863     0.094863 
Rotational constants in MHz :     0.000000  2843.931812  2843.931812 

 Dipole components along the rotational axes: 
x,y,z [a.u.] :    -0.890837     0.000000     0.000000 
x,y,z [Debye]:    -2.264329     0.000000     0.000000 

 

Timings for individual modules:

Sum of individual times         ...      415.602 sec (=   6.927 min)
GTO integral calculation        ...        5.012 sec (=   0.084 min)   1.2 %
SCF iterations                  ...      410.590 sec (=   6.843 min)  98.8 %
                             ****ORCA TERMINATED NORMALLY****
TOTAL RUN TIME: 0 days 0 hours 6 minutes 56 seconds 338 msec
