
                                 *****************
                                 * O   R   C   A *
                                 *****************

           --- An Ab Initio, DFT and Semiempirical electronic structure package ---

                  #######################################################
                  #                        -***-                        #
                  #          Department of theory and spectroscopy      #
                  #               Directorship: Frank Neese             #
                  #        Max Planck Institute fuer Kohlenforschung    #
                  #                Kaiser Wilhelm Platz 1               #
                  #                 D-45470 Muelheim/Ruhr               #
                  #                      Germany                        #
                  #                                                     #
                  #                  All rights reserved                #
                  #                        -***-                        #
                  #######################################################


                         Program Version 4.2.0 -  RELEASE  -


 With contributions from (in alphabetic order):
   Daniel Aravena         : Magnetic Suceptibility
   Michael Atanasov       : Ab Initio Ligand Field Theory (pilot matlab implementation)
   Alexander A. Auer      : GIAO ZORA, VPT2
   Ute Becker             : Parallelization
   Giovanni Bistoni       : ED, misc. LED, open-shell LED, HFLED
   Martin Brehm           : Molecular dynamics
   Dmytro Bykov           : SCF Hessian
   Vijay G. Chilkuri      : MRCI spin determinant printing, contributions to CSF-ICE
   Dipayan Datta          : RHF DLPNO-CCSD density
   Achintya Kumar Dutta   : EOM-CC, STEOM-CC
   Dmitry Ganyushin       : Spin-Orbit,Spin-Spin,Magnetic field MRCI
   Miquel Garcia          : C-PCM Hessian, Gaussian charge scheme
   Yang Guo               : DLPNO-NEVPT2, CIM, IAO-localization
   Andreas Hansen         : Spin unrestricted coupled pair/coupled cluster methods
   Benjamin Helmich-Paris : CASSCF linear response (MC-RPA)
   Lee Huntington         : MR-EOM, pCC
   Robert Izsak           : Overlap fitted RIJCOSX, COSX-SCS-MP3, EOM
   Christian Kollmar      : KDIIS, OOCD, Brueckner-CCSD(T), CCSD density
   Simone Kossmann        : Meta GGA functionals, TD-DFT gradient, OOMP2, MP2 Hessian
   Martin Krupicka        : AUTO-CI
   Lucas Lang             : DCDCAS
   Dagmar Lenk            : GEPOL surface, SMD
   Dimitrios Liakos       : Extrapolation schemes; Compound Job, initial MDCI parallelization
   Dimitrios Manganas     : Further ROCIS development; embedding schemes
   Dimitrios Pantazis     : SARC Basis sets
   Taras Petrenko         : DFT Hessian,TD-DFT gradient, ASA, ECA, R-Raman, ABS, FL, XAS/XES, NRVS
   Peter Pinski           : DLPNO-MP2, DLPNO-MP2 Gradient
   Christoph Reimann      : Effective Core Potentials
   Marius Retegan         : Local ZFS, SOC
   Christoph Riplinger    : Optimizer, TS searches, QM/MM, DLPNO-CCSD(T), (RO)-DLPNO pert. Triples
   Tobias Risthaus        : Range-separated hybrids, TD-DFT gradient, RPA, STAB
   Michael Roemelt        : Original ROCIS implementation
   Masaaki Saitow         : Open-shell DLPNO-CCSD energy and density
   Barbara Sandhoefer     : DKH picture change effects
   Avijit Sen             : IP-ROCIS
   Kantharuban Sivalingam : CASSCF convergence, NEVPT2, FIC-MRCI
   Bernardo de Souza      : ESD, SOC TD-DFT
   Georgi Stoychev        : AutoAux, RI-MP2 NMR
   Willem Van den Heuvel  : Paramagnetic NMR
   Boris Wezisla          : Elementary symmetry handling
   Frank Wennmohs         : Technical directorship


 We gratefully acknowledge several colleagues who have allowed us to
 interface, adapt or use parts of their codes:
   Stefan Grimme, W. Hujo, H. Kruse,             : VdW corrections, initial TS optimization,
                  C. Bannwarth                     DFT functionals, gCP, sTDA/sTD-DF
   Ed Valeev, F. Pavosevic, A. Kumar             : LibInt (2-el integral package), F12 methods
   Garnet Chan, S. Sharma, J. Yang, R. Olivares  : DMRG
   Ulf Ekstrom                                   : XCFun DFT Library
   Mihaly Kallay                                 : mrcc  (arbitrary order and MRCC methods)
   Andreas Klamt, Michael Diedenhofen            : otool_cosmo (COSMO solvation model)
   Jiri Pittner, Ondrej Demel                    : Mk-CCSD
   Frank Weinhold                                : gennbo (NPA and NBO analysis)
   Christopher J. Cramer and Donald G. Truhlar   : smd solvation model
   Lars Goerigk                                  : TD-DFT with DH, B97 family of functionals
   V. Asgeirsson, H. Jonsson                     : NEB implementation
   FAccTs GmbH                                   : IRC, NEB, NEB-TS, Multilevel, MM, QM/MM, CI optimization
   S Lehtola, MJT Oliveira, MAL Marques          : LibXC Library


 Your calculation uses the libint2 library for the computation of 2-el integrals
 For citations please refer to: http://libint.valeyev.net

 Your ORCA version has been built with support for libXC version: 4.2.3
 For citations please refer to: https://tddft.org/programs/libxc/

 This ORCA versions uses:
   CBLAS   interface :  Fast vector & matrix operations
   LAPACKE interface :  Fast linear algebra routines
   SCALAPACK package :  Parallel linear algebra routines


Your calculation utilizes the DFT-NL dispersion correction.
Cite in your paper:
Vydrov, O. A.; Van Voorhis, T. J. Chem. Phys. 2010, 133, 244103
Hujo, W.; Grimme, S. J. Chem. Theory Comput. 2011, 7, 3866 
   

----- Orbital basis set information -----
Your calculation utilizes the basis: aug-cc-pVTZ 
    H, B-Ne : Obtained from the ccRepo (grant-hill.group.shef.ac.uk/ccrepo) Feb. 2017
              R. A. Kendall, T. H. Dunning, Jr., R. J. Harrison, J. Chem. Phys. 96, 6796 (1992)
         He : Obtained from the ccRepo (grant-hill.group.shef.ac.uk/ccrepo) Feb. 2017
              D. E. Woon, T. H. Dunning, Jr., J. Chem. Phys. 100, 2975 (1994)
  Li-Be, Na : Obtained from the ccRepo (grant-hill.group.shef.ac.uk/ccrepo) Feb. 2017
              B. P. Prascher, D. E. Woon, K. A. Peterson, T. H. Dunning, Jr., A. K. Wilson, Theor. Chem. Acc. 128, 69 (2011)
         Mg : Obtained from the Peterson Research Group Website (tyr0.chem.wsu.edu/~kipeters) Feb. 2017
              B. P. Prascher, D. E. Woon, K. A. Peterson, T. H. Dunning, Jr., A. K. Wilson, Theor. Chem. Acc. 128, 69 (2011)
      Al-Ar : Obtained from the ccRepo (grant-hill.group.shef.ac.uk/ccrepo) Feb. 2017
              D. E. Woon, T. H. Dunning, Jr., J. Chem. Phys. 98, 1358 (1993)
      Sc-Zn : Obtained from the ccRepo (grant-hill.group.shef.ac.uk/ccrepo) Feb. 2017
              N. B. Balabanov, K. A. Peterson, J. Chem. Phys. 123, 064107 (2005)
              N. B. Balabanov, K. A. Peterson, J. Chem. Phys. 125, 074110 (2006)
      Ga-Kr : Obtained from the ccRepo (grant-hill.group.shef.ac.uk/ccrepo) Feb. 2017
              A. K. Wilson, D. E. Woon, K. A. Peterson, T. H. Dunning, Jr., J. Chem. Phys. 110, 7667 (1999)
     Ag, Au : Obtained from the Peterson Research Group Website (tyr0.chem.wsu.edu/~kipeters) Feb. 2017
              K. A. Peterson, C. Puzzarini, Theor. Chem. Acc. 114, 283 (2005)

----- AuxJK basis set information -----
Your calculation utilizes the auxiliary basis: def2/JK
   H-Ba, Hf-Rn: F. Weigend, J. Comput. Chem. 29, 167 (2008).

================================================================================
                                        WARNINGS
                       Please study these warnings very carefully!
================================================================================


WARNING: your system is open-shell and RHF/RKS was chosen
  ===> : WILL SWITCH to UHF/UKS


INFO   : the flag for use of LIBINT has been found!

================================================================================
                                       INPUT FILE
================================================================================
NAME = 35_FeO.in
|  1> #
|  2> # 35_FeO wb97x-v/aug-cc-pvtz
|  3> #
|  4> ! wb97x-v aug-cc-pvtz def2/jk grid4 nofinalgrid
|  5> 
|  6> *xyz 0 5
|  7>   Fe  0.00000000000000      0.00000000000000      0.19611340956582
|  8>   O   0.00000000000000      0.00000000000000      1.80388659043418
|  9> *
| 10> 
| 11> %pal
| 12> nprocs 24
| 13> end
| 14> 
| 15> 
| 16>                          ****END OF INPUT****
================================================================================

                       ****************************
                       * Single Point Calculation *
                       ****************************

---------------------------------
CARTESIAN COORDINATES (ANGSTROEM)
---------------------------------
  Fe     0.000000    0.000000    0.196113
  O      0.000000    0.000000    1.803887

----------------------------
CARTESIAN COORDINATES (A.U.)
----------------------------
  NO LB      ZA    FRAG     MASS         X           Y           Z
   0 Fe   26.0000    0    55.850    0.000000    0.000000    0.370601
   1 O     8.0000    0    15.999    0.000000    0.000000    3.408852

--------------------------------
INTERNAL COORDINATES (ANGSTROEM)
--------------------------------
 Fe     0   0   0     0.000000000000     0.00000000     0.00000000
 O      1   0   0     1.607773180868     0.00000000     0.00000000

---------------------------
INTERNAL COORDINATES (A.U.)
---------------------------
 Fe     0   0   0     0.000000000000     0.00000000     0.00000000
 O      1   0   0     3.038250997305     0.00000000     0.00000000

---------------------
BASIS SET INFORMATION
---------------------
There are 2 groups of distinct atoms

 Group   1 Type Fe  : 116s77p23d3f2g contracted to 8s7p5d3f2g pattern {19191919191911/151515151511/77711/111/11}
 Group   2 Type O   : 19s6p3d2f contracted to 5s4p3d2f pattern {88111/3111/111/11}

Atom   0Fe   basis set group =>   1
Atom   1O    basis set group =>   2
----------------------------------
AUXILIARY/JK BASIS SET INFORMATION
----------------------------------
There are 2 groups of distinct atoms

 Group   1 Type Fe  : 19s14p12d10f7g3h1i contracted to 16s13p11d9f5g3h1i pattern {4111111111111111/2111111111111/21111111111/211111111/31111/111/1}
 Group   2 Type O   : 14s10p6d2f1g contracted to 10s8p4d2f1g pattern {5111111111/31111111/3111/11/1}

Atom   0Fe   basis set group =>   1
Atom   1O    basis set group =>   2


           ************************************************************
           *        Program running with 24 parallel MPI-processes    *
           *              working on a common directory               *
           ************************************************************
------------------------------------------------------------------------------
                           ORCA GTO INTEGRAL CALCULATION
------------------------------------------------------------------------------

                         BASIS SET STATISTICS AND STARTUP INFO

 # of primitive gaussian shells          ...  251
 # of primitive gaussian functions       ...  567
 # of contracted shells                  ...   39
 # of contracted basis functions         ...  139
 Highest angular momentum                ...    4
 Maximum contraction depth               ...   19
 Integral package used                   ... LIBINT
 Integral threshhold            Thresh   ...  1.000e-10
 Primitive cut-off              TCut     ...  1.000e-11


------------------------------ INTEGRAL EVALUATION ----------------------------


 * One electron integrals 
 Pre-screening matrix                    ... done
 Shell pair data                         ... done (   0.001 sec)



           ************************************************************
           *        Program running with 24 parallel MPI-processes    *
           *              working on a common directory               *
           ************************************************************
-------------------------------------------------------------------------------
                                 ORCA SCF
-------------------------------------------------------------------------------

------------
SCF SETTINGS
------------
Hamiltonian:
 Density Functional     Method          .... DFT(GTOs)
 Exchange Functional    Exchange        .... WB97X-V
 Correlation Functional Correlation     .... WB97X-V
 Gradients option       PostSCFGGA      .... off
 Hybrid DFT is turned on
   Fraction HF Exchange ScalHFX         ....  0.167000
   Scaling of DF-GGA-X  ScalDFX         ....  0.000000
   Scaling of DF-GGA-C  ScalDFC         ....  1.000000
   Scaling of DF-LDA-C  ScalLDAC        ....  1.000000
   Perturbative correction              ....  0.000000
   Density functional embedding theory  .... OFF
 Long-range corrected/Screened/Range-Separated Hybrid DFT is turned on
   Amount of maximum screened exact exchange              ....  0.833000
   Range separation parameter mu (erf(mu*r12)/r12)        ....  0.300000
   NL short-range parameter             ....  6.000000
   NL long-range parameter              ....  0.010000


General Settings:
 Integral files         IntName         .... 35_FeO
 Hartree-Fock type      HFTyp           .... UHF
 Total Charge           Charge          ....    0
 Multiplicity           Mult            ....    5
 Number of Electrons    NEL             ....   34
 Basis Dimension        Dim             ....  139
 Nuclear Repulsion      ENuc            ....     68.4604399651 Eh

Convergence Acceleration:
 DIIS                   CNVDIIS         .... on
   Start iteration      DIISMaxIt       ....    12
   Startup error        DIISStart       ....  0.200000
   # of expansion vecs  DIISMaxEq       ....     5
   Bias factor          DIISBfac        ....   1.050
   Max. coefficient     DIISMaxC        ....  10.000
 Newton-Raphson         CNVNR           .... off
 SOSCF                  CNVSOSCF        .... off
 Level Shifting         CNVShift        .... on
   Level shift para.    LevelShift      ....    0.2500
   Turn off err/grad.   ShiftErr        ....    0.0010
 Zerner damping         CNVZerner       .... off
 Static damping         CNVDamp         .... on
   Fraction old density DampFac         ....    0.7000
   Max. Damping (<1)    DampMax         ....    0.9800
   Min. Damping (>=0)   DampMin         ....    0.0000
   Turn off err/grad.   DampErr         ....    0.1000
 Fernandez-Rico         CNVRico         .... off

SCF Procedure:
 Maximum # iterations   MaxIter         ....   125
 SCF integral mode      SCFMode         .... Direct
   Integral package                     .... LIBINT
 Reset frequency        DirectResetFreq ....    20
 Integral Threshold     Thresh          ....  1.000e-10 Eh
 Primitive CutOff       TCut            ....  1.000e-11 Eh

Convergence Tolerance:
 Convergence Check Mode ConvCheckMode   .... Total+1el-Energy
 Convergence forced     ConvForced      .... 0
 Energy Change          TolE            ....  1.000e-06 Eh
 1-El. energy change                    ....  1.000e-03 Eh
 DIIS Error             TolErr          ....  1.000e-06


Diagonalization of the overlap matrix:
Smallest eigenvalue                        ... 7.094e-05
Time for diagonalization                   ...    0.019 sec
Threshold for overlap eigenvalues          ... 1.000e-08
Number of eigenvalues below threshold      ... 0
Time for construction of square roots      ...    0.002 sec
Total time needed                          ...    0.021 sec

-------------------
DFT GRID GENERATION
-------------------

General Integration Accuracy     IntAcc      ...  4.670
Radial Grid Type                 RadialGrid  ... Gauss-Chebyshev
Angular Grid (max. acc.)         AngularGrid ... Lebedev-302
Angular grid pruning method      GridPruning ... 3 (G Style)
Weight generation scheme         WeightScheme... Becke
Basis function cutoff            BFCut       ...    1.0000e-10
Integration weight cutoff        WCut        ...    1.0000e-14
Grids for H and He will be reduced by one unit

# of grid points (after initial pruning)     ...  15852 (   0.0 sec)
# of grid points (after weights+screening)   ...  15810 (   0.0 sec)
nearest neighbour list constructed           ...    0.0 sec
Grid point re-assignment to atoms done       ...    0.0 sec
Grid point division into batches done        ...    0.1 sec
Reduced shell lists constructed in    0.1 sec

Total number of grid points                  ...    15810
Total number of batches                      ...      248
Average number of points per batch           ...       63
Average number of grid points per atom       ...     7905
Average number of shells per batch           ...    14.58 (37.39%)
Average number of basis functions per batch  ...    35.25 (25.36%)
Average number of large shells per batch     ...     6.42 (44.00%)
Average number of large basis fcns per batch ...    16.42 (46.57%)
Maximum spatial batch extension              ...  28.57, 31.41, 18.17 au
Average spatial batch extension              ...   0.89,  0.95,  0.67 au

Time for grid setup =    0.161 sec

------------------------------
INITIAL GUESS: MODEL POTENTIAL
------------------------------
Loading Hartree-Fock densities                     ... done
Calculating cut-offs                               ... done
Setting up the integral package                    ... done
Initializing the effective Hamiltonian             ... done
Starting the Coulomb interaction                   ... done (   0.0 sec)
Reading the grid                                   ... done
Mapping shells                                     ... done
Starting the XC term evaluation                    ... done (   0.0 sec)
  promolecular density results
     # of electrons  =     33.999990648
     EX              =    -47.045613326
     EC              =     -1.887111365
     EX+EC           =    -48.932724691
Transforming the Hamiltonian                       ... done (   0.0 sec)
Diagonalizing the Hamiltonian                      ... done (   0.0 sec)
Back transforming the eigenvectors                 ... done (   0.0 sec)
Now organizing SCF variables                       ... done
                      ------------------
                      INITIAL GUESS DONE (   0.3 sec)
                      ------------------
--------------
SCF ITERATIONS
--------------
ITER       Energy         Delta-E        Max-DP      RMS-DP      [F,P]     Damp
               ***  Starting incremental Fock matrix formation  ***
  0  -1329.2741404644   0.000000000000 2.01992878  0.03367987  1.6383289 0.7000
  1  -1334.2863304663  -5.012190001926 1.43857112  0.01590455  0.4309343 0.7000
  2  -1335.6528369328  -1.366506466524 1.00931888  0.01167078  0.5740828 0.7000
  3  -1336.6870142394  -1.034177306538 0.70694559  0.00818029  0.3737002 0.7000
  4  -1337.3326011500  -0.645586910674 0.49498185  0.00572269  0.2154080 0.7000
                               ***Turning on DIIS***
  5  -1337.7861156102  -0.453514460124 0.34662970  0.00404308  0.1491880 0.7000
  6  -1338.1092639448  -0.323148334683 0.24301823  0.00289584  0.1196337 0.7000
  7  -1338.3387759697  -0.229512024886 0.56677644  0.00683268  0.0693687 0.0000
  8  -1338.8935344868  -0.554758517059 0.02333562  0.00047189  0.0185329 0.0000
  9  -1338.8947382650  -0.001203778234 0.00731416  0.00015731  0.0284222 0.0000
 10  -1338.8960354086  -0.001297143548 0.00802608  0.00012023  0.0118177 0.0000
 11  -1338.8967582862  -0.000722877600 0.00763036  0.00011798  0.0071169 0.0000
 12  -1338.8972156521  -0.000457365890 0.00597220  0.00008939  0.0048443 0.0000
 13  -1338.8974542735  -0.000238621488 0.00438723  0.00006606  0.0028129 0.0000
 14  -1338.8975665316  -0.000112258053 0.00467371  0.00005914  0.0022244 0.0000
 15  -1338.8976337225  -0.000067190894 0.00482528  0.00004353  0.0009977 0.0000
 16  -1338.8976625460  -0.000028823511 0.00134351  0.00001609  0.0015380 0.0000
 17  -1338.8976689788  -0.000006432825 0.00217847  0.00001877  0.0004786 0.0000
 18  -1338.8976749603  -0.000005981447 0.00199962  0.00001851  0.0003484 0.0000
 19  -1338.8976782360  -0.000003275702 0.00103653  0.00000871  0.0001906 0.0000
               *** Restarting incremental Fock matrix formation ***
                                   *** Resetting DIIS ***
 20  -1338.8976788936  -0.000000657588 0.00018820  0.00000193  0.0001188 0.0000
 21  -1338.8976789273  -0.000000033704 0.00007152  0.00000109  0.0001795 0.0000
 22  -1338.8976789900  -0.000000062734 0.00011140  0.00000117  0.0000793 0.0000
                 **** Energy Check signals convergence ****

               *****************************************************
               *                     SUCCESS                       *
               *           SCF CONVERGED AFTER  23 CYCLES          *
               *****************************************************


Setting up the DFT-NL grid :

General Integration Accuracy     IntAcc      ...  4.340
Radial Grid Type                 RadialGrid  ... Gauss-Chebyshev
Angular Grid (max. acc.)         AngularGrid ... Lebedev-110
Angular grid pruning method      GridPruning ... 3 (G Style)
Weight generation scheme         WeightScheme... Becke
Basis function cutoff            BFCut       ...    1.0000e-10
Integration weight cutoff        WCut        ...    1.0000e-14
Grids for H and He will be reduced by one unit

# of grid points (after initial pruning)     ...   4628 (   0.0 sec)
# of grid points (after weights+screening)   ...   4601 (   0.0 sec)
nearest neighbour list constructed           ...    0.0 sec
Grid point re-assignment to atoms done       ...    0.0 sec
Grid point division into batches done        ...    0.0 sec
Reduced shell lists constructed in    0.0 sec

Total number of grid points                  ...     4601
Total number of batches                      ...       73
Average number of points per batch           ...       63
Average number of grid points per atom       ...     2300
Average number of shells per batch           ...    21.20 (54.36%)
Average number of basis functions per batch  ...    62.00 (44.60%)
Average number of large shells per batch     ...    16.40 (77.36%)
Average number of large basis fcns per batch ...    46.80 (75.48%)
Maximum spatial batch extension              ...  19.55, 28.73, 15.77 au
Average spatial batch extension              ...   0.97,  1.33,  0.86 au

Final grid set up in    0.0 sec

-------------------------------------------------------------------------------
                         DFT-NL dispersion correction                          
-------------------------------------------------------------------------------

SC Energy -1338.897679022 
NL    Energy 0.142646589 
SC+NL Energy -1338.755032433 
NL done in    0.0 sec
-------------------------------------------------------------------------------

----------------
TOTAL SCF ENERGY
----------------

Total Energy       :        -1338.75503243 Eh          -36429.37647 eV

Components:
Nuclear Repulsion  :           68.46043997 Eh            1862.90328 eV
Electronic Energy  :        -1407.21547240 Eh          -38292.27975 eV
One Electron Energy:        -1987.04526430 Eh          -54070.25052 eV
Two Electron Energy:          579.82979190 Eh           15777.97077 eV

Virial components:
Potential Energy   :        -2675.60888563 Eh          -72807.01922 eV
Kinetic Energy     :         1336.85385319 Eh           36377.64275 eV
Virial Ratio       :            2.00142213


DFT components:
N(Alpha)           :       19.000000535840 electrons
N(Beta)            :       15.000001633638 electrons
N(Total)           :       34.000002169478 electrons
E(X)               :      -47.305098444682 Eh       
E(C)               :       -1.871726022126 Eh       
NL Energy, E(C,NL) :        0.142646589104 Eh       
E(XC)              :      -49.034177877704 Eh       
DFET-embed. en.    :        0.000000000000 Eh       

---------------
SCF CONVERGENCE
---------------

  Last Energy change         ...   -3.2200e-08  Tolerance :   1.0000e-06
  Last MAX-Density change    ...    1.6074e-04  Tolerance :   1.0000e-05
  Last RMS-Density change    ...    1.6628e-06  Tolerance :   1.0000e-06
  Last DIIS Error            ...    5.3328e-05  Tolerance :   1.0000e-06

             **** THE GBW FILE WAS UPDATED (35_FeO.gbw) ****
             **** DENSITY FILE WAS UPDATED (35_FeO.scfp) ****
             **** ENERGY FILE WAS UPDATED (35_FeO.en.tmp) ****
----------------------
UHF SPIN CONTAMINATION
----------------------

Warning: in a DFT calculation there is little theoretical justification to 
         calculate <S**2> as in Hartree-Fock theory. We will do it anyways
         but you should keep in mind that the values have only limited relevance

Expectation value of <S**2>     :     6.024510
Ideal value S*(S+1) for S=2.0   :     6.000000
Deviation                       :     0.024510

             **** THE GBW FILE WAS UPDATED (35_FeO.gbw) ****
             **** DENSITY FILE WAS UPDATED (35_FeO.scfp) ****
----------------
ORBITAL ENERGIES
----------------
                 SPIN UP ORBITALS
  NO   OCC          E(Eh)            E(eV) 
   0   1.0000    -255.976589     -6965.4771 
   1   1.0000     -30.109577      -819.3232 
   2   1.0000     -25.971775      -706.7279 
   3   1.0000     -25.951677      -706.1810 
   4   1.0000     -25.951677      -706.1810 
   5   1.0000     -19.169952      -521.6409 
   6   1.0000      -3.643689       -99.1498 
   7   1.0000      -2.451318       -66.7037 
   8   1.0000      -2.405015       -65.4438 
   9   1.0000      -2.405015       -65.4438 
  10   1.0000      -0.990243       -26.9459 
  11   1.0000      -0.493572       -13.4308 
  12   1.0000      -0.493572       -13.4308 
  13   1.0000      -0.485809       -13.2195 
  14   1.0000      -0.444229       -12.0881 
  15   1.0000      -0.411551       -11.1989 
  16   1.0000      -0.341893        -9.3034 
  17   1.0000      -0.341893        -9.3034 
  18   1.0000      -0.331101        -9.0097 
  19   0.0000      -0.038539        -1.0487 
  20   0.0000       0.020866         0.5678 
  21   0.0000       0.020866         0.5678 
  22   0.0000       0.024552         0.6681 
  23   0.0000       0.037304         1.0151 
  24   0.0000       0.071610         1.9486 
  25   0.0000       0.071610         1.9486 
  26   0.0000       0.092372         2.5136 
  27   0.0000       0.097323         2.6483 
  28   0.0000       0.097774         2.6606 
  29   0.0000       0.102018         2.7760 
  30   0.0000       0.102018         2.7760 
  31   0.0000       0.132494         3.6053 
  32   0.0000       0.153248         4.1701 
  33   0.0000       0.239018         6.5040 
  34   0.0000       0.239018         6.5040 
  35   0.0000       0.264150         7.1879 
  36   0.0000       0.277005         7.5377 
  37   0.0000       0.277005         7.5377 
  38   0.0000       0.310937         8.4610 
  39   0.0000       0.338388         9.2080 
  40   0.0000       0.340997         9.2790 
  41   0.0000       0.363717         9.8973 
  42   0.0000       0.363717         9.8973 
  43   0.0000       0.400124        10.8879 
  44   0.0000       0.564473        15.3601 
  45   0.0000       0.665404        18.1066 
  46   0.0000       0.686571        18.6825 
  47   0.0000       0.686850        18.6901 
  48   0.0000       0.777506        21.1570 
  49   0.0000       0.777506        21.1570 
  50   0.0000       0.836049        22.7500 
  51   0.0000       0.885905        24.1067 
  52   0.0000       0.885905        24.1067 
  53   0.0000       0.926375        25.2079 
  54   0.0000       0.926375        25.2079 
  55   0.0000       1.005777        27.3686 
  56   0.0000       1.043438        28.3934 
  57   0.0000       1.043438        28.3934 
  58   0.0000       1.051502        28.6128 
  59   0.0000       1.051502        28.6128 
  60   0.0000       1.052149        28.6304 
  61   0.0000       1.053711        28.6729 
  62   0.0000       1.192842        32.4589 
  63   0.0000       1.197886        32.5961 
  64   0.0000       1.207993        32.8712 
  65   0.0000       1.212827        33.0027 
  66   0.0000       1.548502        42.1369 
  67   0.0000       1.548502        42.1369 
  68   0.0000       1.750492        47.6333 
  69   0.0000       2.005602        54.5752 
  70   0.0000       2.012832        54.7719 
  71   0.0000       2.012832        54.7719 
  72   0.0000       2.048890        55.7531 
  73   0.0000       2.049497        55.7696 
  74   0.0000       2.184291        59.4376 
  75   0.0000       2.184291        59.4376 
  76   0.0000       2.266322        61.6698 
  77   0.0000       2.266972        61.6874 
  78   0.0000       2.390221        65.0412 
  79   0.0000       2.559216        69.6398 
  80   0.0000       2.559216        69.6398 
  81   0.0000       2.718677        73.9789 
  82   0.0000       2.750999        74.8585 
  83   0.0000       2.750999        74.8585 
  84   0.0000       2.795097        76.0585 
  85   0.0000       2.805972        76.3544 
  86   0.0000       2.965855        80.7050 
  87   0.0000       3.089011        84.0563 
  88   0.0000       3.089011        84.0563 
  89   0.0000       3.173064        86.3435 
  90   0.0000       3.173064        86.3435 
  91   0.0000       3.321790        90.3905 
  92   0.0000       3.402996        92.6002 
  93   0.0000       3.403122        92.6037 
  94   0.0000       3.448926        93.8500 
  95   0.0000       3.448926        93.8500 
  96   0.0000       3.687382       100.3388 
  97   0.0000       3.758225       102.2665 
  98   0.0000       3.763058       102.3980 
  99   0.0000       3.766897       102.5025 
 100   0.0000       3.766897       102.5025 
 101   0.0000       3.806199       103.5719 
 102   0.0000       4.385246       119.3286 
 103   0.0000       4.385246       119.3286 
 104   0.0000       4.594730       125.0290 
 105   0.0000       4.619508       125.7032 
 106   0.0000       5.055387       137.5641 
 107   0.0000       5.055387       137.5641 
 108   0.0000       5.211845       141.8215 
 109   0.0000       6.079437       165.4299 
 110   0.0000       6.226730       169.4379 
 111   0.0000       6.226730       169.4379 
 112   0.0000       6.337591       172.4546 
 113   0.0000       6.337757       172.4591 
 114   0.0000       6.588467       179.2813 
 115   0.0000       6.588467       179.2813 
 116   0.0000       6.710350       182.5979 
 117   0.0000       6.711806       182.6375 
 118   0.0000       6.712085       182.6451 
 119   0.0000       7.041186       191.6004 
 120   0.0000       7.041186       191.6004 
 121   0.0000       7.268606       197.7888 
 122   0.0000       8.986227       244.5277 
 123   0.0000       9.001831       244.9523 
 124   0.0000       9.001831       244.9523 
 125   0.0000       9.011829       245.2243 
 126   0.0000       9.170598       249.5446 
 127   0.0000       9.170598       249.5446 
 128   0.0000       9.513071       258.8638 
 129   0.0000       9.729887       264.7637 
 130   0.0000       9.729887       264.7637 
 131   0.0000       9.730648       264.7844 
 132   0.0000       9.730690       264.7855 
 133   0.0000       9.848001       267.9777 
 134   0.0000       9.866547       268.4824 
 135   0.0000       9.959201       271.0036 
 136   0.0000      10.122219       275.4396 
 137   0.0000      10.122219       275.4396 
 138   0.0000      11.441398       311.3363 

                 SPIN DOWN ORBITALS
  NO   OCC          E(Eh)            E(eV) 
   0   1.0000    -255.974927     -6965.4319 
   1   1.0000     -30.049266      -817.6821 
   2   1.0000     -25.919653      -705.3096 
   3   1.0000     -25.904596      -704.8999 
   4   1.0000     -25.904596      -704.8999 
   5   1.0000     -19.161834      -521.4200 
   6   1.0000      -3.501541       -95.2818 
   7   1.0000      -2.281061       -62.0708 
   8   1.0000      -2.260660       -61.5157 
   9   1.0000      -2.260660       -61.5157 
  10   1.0000      -0.963294       -26.2126 
  11   1.0000      -0.415480       -11.3058 
  12   1.0000      -0.376133       -10.2351 
  13   1.0000      -0.376133       -10.2351 
  14   1.0000      -0.343312        -9.3420 
  15   0.0000      -0.040175        -1.0932 
  16   0.0000       0.019435         0.5288 
  17   0.0000       0.019435         0.5288 
  18   0.0000       0.020363         0.5541 
  19   0.0000       0.037432         1.0186 
  20   0.0000       0.045883         1.2485 
  21   0.0000       0.048030         1.3070 
  22   0.0000       0.048030         1.3070 
  23   0.0000       0.058412         1.5895 
  24   0.0000       0.097305         2.6478 
  25   0.0000       0.097305         2.6478 
  26   0.0000       0.103866         2.8263 
  27   0.0000       0.107960         2.9377 
  28   0.0000       0.111541         3.0352 
  29   0.0000       0.115925         3.1545 
  30   0.0000       0.115925         3.1545 
  31   0.0000       0.139899         3.8069 
  32   0.0000       0.169980         4.6254 
  33   0.0000       0.263005         7.1567 
  34   0.0000       0.263005         7.1567 
  35   0.0000       0.269600         7.3362 
  36   0.0000       0.282880         7.6976 
  37   0.0000       0.282880         7.6976 
  38   0.0000       0.334206         9.0942 
  39   0.0000       0.349112         9.4998 
  40   0.0000       0.370857        10.0915 
  41   0.0000       0.378258        10.2929 
  42   0.0000       0.378258        10.2929 
  43   0.0000       0.405484        11.0338 
  44   0.0000       0.587672        15.9914 
  45   0.0000       0.682657        18.5760 
  46   0.0000       0.689953        18.7746 
  47   0.0000       0.692812        18.8524 
  48   0.0000       0.797405        21.6985 
  49   0.0000       0.797405        21.6985 
  50   0.0000       0.843337        22.9484 
  51   0.0000       0.910584        24.7783 
  52   0.0000       0.910584        24.7783 
  53   0.0000       0.943237        25.6668 
  54   0.0000       0.943237        25.6668 
  55   0.0000       1.029427        28.0121 
  56   0.0000       1.061380        28.8816 
  57   0.0000       1.061380        28.8816 
  58   0.0000       1.068024        29.0624 
  59   0.0000       1.075581        29.2680 
  60   0.0000       1.076537        29.2941 
  61   0.0000       1.076537        29.2941 
  62   0.0000       1.209573        32.9142 
  63   0.0000       1.226227        33.3673 
  64   0.0000       1.237635        33.6777 
  65   0.0000       1.262075        34.3428 
  66   0.0000       1.584066        43.1046 
  67   0.0000       1.584066        43.1046 
  68   0.0000       1.774441        48.2850 
  69   0.0000       2.019538        54.9544 
  70   0.0000       2.019538        54.9544 
  71   0.0000       2.021058        54.9958 
  72   0.0000       2.063395        56.1478 
  73   0.0000       2.064147        56.1683 
  74   0.0000       2.196941        59.7818 
  75   0.0000       2.196941        59.7818 
  76   0.0000       2.275173        61.9106 
  77   0.0000       2.275804        61.9278 
  78   0.0000       2.413545        65.6759 
  79   0.0000       2.588517        70.4371 
  80   0.0000       2.588517        70.4371 
  81   0.0000       2.766064        75.2684 
  82   0.0000       2.819457        76.7213 
  83   0.0000       2.819457        76.7213 
  84   0.0000       2.863091        77.9087 
  85   0.0000       2.884678        78.4961 
  86   0.0000       3.021929        82.2309 
  87   0.0000       3.158588        85.9495 
  88   0.0000       3.158588        85.9495 
  89   0.0000       3.221685        87.6665 
  90   0.0000       3.221685        87.6665 
  91   0.0000       3.370917        91.7273 
  92   0.0000       3.448236        93.8313 
  93   0.0000       3.451120        93.9098 
  94   0.0000       3.493140        95.0532 
  95   0.0000       3.493140        95.0532 
  96   0.0000       3.736858       101.6851 
  97   0.0000       3.795068       103.2690 
  98   0.0000       3.798817       103.3711 
  99   0.0000       3.798817       103.3711 
 100   0.0000       3.802612       103.4743 
 101   0.0000       3.847967       104.7085 
 102   0.0000       4.427858       120.4881 
 103   0.0000       4.427858       120.4881 
 104   0.0000       4.673291       127.1667 
 105   0.0000       4.722154       128.4964 
 106   0.0000       5.148621       140.1011 
 107   0.0000       5.148621       140.1011 
 108   0.0000       5.255996       143.0229 
 109   0.0000       6.139804       167.0726 
 110   0.0000       6.249923       170.0690 
 111   0.0000       6.249923       170.0690 
 112   0.0000       6.351238       172.8260 
 113   0.0000       6.351244       172.8261 
 114   0.0000       6.600627       179.6122 
 115   0.0000       6.600627       179.6122 
 116   0.0000       6.728929       183.1035 
 117   0.0000       6.747964       183.6214 
 118   0.0000       6.748017       183.6229 
 119   0.0000       7.062333       192.1759 
 120   0.0000       7.062333       192.1759 
 121   0.0000       7.286488       198.2754 
 122   0.0000       9.110949       247.9215 
 123   0.0000       9.110949       247.9215 
 124   0.0000       9.123733       248.2694 
 125   0.0000       9.150185       248.9892 
 126   0.0000       9.299871       253.0624 
 127   0.0000       9.299871       253.0624 
 128   0.0000       9.626008       261.9370 
 129   0.0000       9.808860       266.9126 
 130   0.0000       9.812888       267.0223 
 131   0.0000       9.824298       267.3327 
 132   0.0000       9.824298       267.3327 
 133   0.0000       9.943996       270.5899 
 134   0.0000       9.959135       271.0018 
 135   0.0000      10.038043       273.1490 
 136   0.0000      10.214210       277.9428 
 137   0.0000      10.214210       277.9428 
 138   0.0000      11.474538       312.2381 

                    ********************************
                    * MULLIKEN POPULATION ANALYSIS *
                    ********************************

--------------------------------------------
MULLIKEN ATOMIC CHARGES AND SPIN POPULATIONS
--------------------------------------------
   0 Fe:    0.678097    3.576539
   1 O :   -0.678097    0.423461
Sum of atomic charges         :   -0.0000000
Sum of atomic spin populations:    4.0000000

-----------------------------------------------------
MULLIKEN REDUCED ORBITAL CHARGES AND SPIN POPULATIONS
-----------------------------------------------------
CHARGE
  0 Fes       :     6.521128  s :     6.521128
      pz      :     4.038400  p :    12.226514
      px      :     4.094057
      py      :     4.094057
      dz2     :     1.092045  d :     6.545052
      dxz     :     1.227740
      dyz     :     1.227740
      dx2y2   :     1.998284
      dxy     :     0.999244
      f0      :     0.007221  f :     0.026481
      f+1     :     0.009338
      f-1     :     0.009338
      f+2     :     0.000328
      f-2     :     0.000186
      f+3     :     0.000035
      f-3     :     0.000035
      g0      :     0.000825  g :     0.002728
      g+1     :     0.000939
      g-1     :     0.000939
      g+2     :     0.000010
      g-2     :     0.000003
      g+3     :     0.000002
      g-3     :     0.000002
      g+4     :     0.000010
      g-4     :     0.000000
  1 O s       :     3.941769  s :     3.941769
      pz      :     1.390904  p :     4.707640
      px      :     1.658368
      py      :     1.658368
      dz2     :     0.006200  d :     0.024138
      dxz     :     0.008373
      dyz     :     0.008373
      dx2y2   :     0.000846
      dxy     :     0.000346
      f0      :     0.001500  f :     0.004551
      f+1     :     0.001149
      f-1     :     0.001149
      f+2     :     0.000532
      f-2     :     0.000221
      f+3     :     0.000000
      f-3     :     0.000000

SPIN
  0 Fes       :     0.426456  s :     0.426456
      pz      :    -0.001055  p :     0.089163
      px      :     0.045109
      py      :     0.045109
      dz2     :     0.573146  d :     3.056492
      dxz     :     0.742030
      dyz     :     0.742030
      dx2y2   :     0.000042
      dxy     :     0.999244
      f0      :     0.000095  f :     0.004804
      f+1     :     0.002244
      f-1     :     0.002244
      f+2     :     0.000079
      f-2     :     0.000186
      f+3     :    -0.000022
      f-3     :    -0.000022
      g0      :    -0.000209  g :    -0.000377
      g+1     :    -0.000089
      g-1     :    -0.000089
      g+2     :     0.000006
      g-2     :     0.000003
      g+3     :     0.000001
      g-3     :     0.000001
      g+4     :     0.000002
      g-4     :     0.000000
  1 O s       :    -0.006367  s :    -0.006367
      pz      :     0.006588  p :     0.434259
      px      :     0.213835
      py      :     0.213835
      dz2     :     0.001067  d :    -0.004269
      dxz     :    -0.002803
      dyz     :    -0.002803
      dx2y2   :    -0.000076
      dxy     :     0.000346
      f0      :     0.000277  f :    -0.000162
      f+1     :    -0.000304
      f-1     :    -0.000304
      f+2     :    -0.000051
      f-2     :     0.000221
      f+3     :    -0.000000
      f-3     :    -0.000000


                     *******************************
                     * LOEWDIN POPULATION ANALYSIS *
                     *******************************

-------------------------------------------
LOEWDIN ATOMIC CHARGES AND SPIN POPULATIONS
-------------------------------------------
   0 Fe:    0.645228    3.531550
   1 O :   -0.645228    0.468450

----------------------------------------------------
LOEWDIN REDUCED ORBITAL CHARGES AND SPIN POPULATIONS
----------------------------------------------------
CHARGE
  0 Fes       :     6.228015  s :     6.228015
      pz      :     4.124676  p :    12.290513
      px      :     4.082919
      py      :     4.082919
      dz2     :     1.198953  d :     6.607792
      dxz     :     1.223390
      dyz     :     1.223390
      dx2y2   :     1.973577
      dxy     :     0.988482
      f0      :     0.081735  f :     0.206951
      f+1     :     0.061279
      f-1     :     0.061279
      f+2     :     0.001741
      f-2     :     0.000848
      f+3     :     0.000035
      f-3     :     0.000035
      g0      :     0.009222  g :     0.021502
      g+1     :     0.006055
      g-1     :     0.006055
      g+2     :     0.000105
      g-2     :     0.000051
      g+3     :     0.000002
      g-3     :     0.000002
      g+4     :     0.000010
      g-4     :     0.000000
  1 O s       :     3.543388  s :     3.543388
      pz      :     1.573983  p :     4.619989
      px      :     1.523003
      py      :     1.523003
      dz2     :     0.161044  d :     0.304334
      dxz     :     0.062809
      dyz     :     0.062809
      dx2y2   :     0.012535
      dxy     :     0.005136
      f0      :     0.078974  f :     0.177517
      f+1     :     0.040509
      f-1     :     0.040509
      f+2     :     0.012042
      f-2     :     0.005483
      f+3     :     0.000000
      f-3     :     0.000000

SPIN
  0 Fes       :     0.362073  s :     0.362073
      pz      :     0.005191  p :     0.166019
      px      :     0.080414
      py      :     0.080414
      dz2     :     0.557849  d :     2.961862
      dxz     :     0.706966
      dyz     :     0.706966
      dx2y2   :     0.001599
      dxy     :     0.988482
      f0      :     0.001788  f :     0.038214
      f+1     :     0.017759
      f-1     :     0.017759
      f+2     :     0.000104
      f-2     :     0.000848
      f+3     :    -0.000022
      f-3     :    -0.000022
      g0      :    -0.000092  g :     0.003382
      g+1     :     0.001711
      g-1     :     0.001711
      g+2     :    -0.000001
      g-2     :     0.000051
      g+3     :     0.000001
      g-3     :     0.000001
      g+4     :     0.000002
      g-4     :     0.000000
  1 O s       :     0.021866  s :     0.021866
      pz      :     0.041323  p :     0.368796
      px      :     0.163736
      py      :     0.163736
      dz2     :     0.005039  d :     0.038995
      dxz     :     0.015002
      dyz     :     0.015002
      dx2y2   :    -0.001185
      dxy     :     0.005136
      f0      :     0.004960  f :     0.038792
      f+1     :     0.014433
      f-1     :     0.014433
      f+2     :    -0.000518
      f-2     :     0.005483
      f+3     :    -0.000000
      f-3     :    -0.000000


                      *****************************
                      * MAYER POPULATION ANALYSIS *
                      *****************************

  NA   - Mulliken gross atomic population
  ZA   - Total nuclear charge
  QA   - Mulliken gross atomic charge
  VA   - Mayer's total valence
  BVA  - Mayer's bonded valence
  FA   - Mayer's free valence

  ATOM       NA         ZA         QA         VA         BVA        FA
  0 Fe    25.3219    26.0000     0.6781     5.1371     1.9996     3.1375
  1 O      8.6781     8.0000    -0.6781     2.0998     1.9996     0.1002

  Mayer bond orders larger than 0.100000
B(  0-Fe,  1-O ) :   1.9996 

-------
TIMINGS
-------

Total SCF time: 0 days 0 hours 5 min 36 sec 

Total time                  ....     336.606 sec
Sum of individual times     ....     336.222 sec  ( 99.9%)

Fock matrix formation       ....     335.769 sec  ( 99.8%)
  XC integration            ....       0.537 sec  (  0.2% of F)
    Basis function eval.    ....       0.117 sec  ( 21.7% of XC)
    Density eval.           ....       0.064 sec  ( 12.0% of XC)
    XC-Functional eval.     ....       0.027 sec  (  5.1% of XC)
    XC-Potential eval.      ....       0.153 sec  ( 28.5% of XC)
Diagonalization             ....       0.117 sec  (  0.0%)
Density matrix formation    ....       0.015 sec  (  0.0%)
Population analysis         ....       0.007 sec  (  0.0%)
Initial guess               ....       0.103 sec  (  0.0%)
Orbital Transformation      ....       0.000 sec  (  0.0%)
Orbital Orthonormalization  ....       0.000 sec  (  0.0%)
DIIS solution               ....       0.037 sec  (  0.0%)
Grid generation             ....       0.175 sec  (  0.1%)

-------------------------   --------------------
FINAL SINGLE POINT ENERGY     -1338.755032433102
-------------------------   --------------------


                            ***************************************
                            *     ORCA property calculations      *
                            ***************************************

                                    ---------------------
                                    Active property flags
                                    ---------------------
   (+) Dipole Moment


------------------------------------------------------------------------------
                       ORCA ELECTRIC PROPERTIES CALCULATION
------------------------------------------------------------------------------

Dipole Moment Calculation                       ... on
Quadrupole Moment Calculation                   ... off
Polarizability Calculation                      ... off
GBWName                                         ... 35_FeO.gbw
Electron density file                           ... 35_FeO.scfp
The origin for moment calculation is the CENTER OF MASS  = ( 0.000000,  0.000000  1.047144)

-------------
DIPOLE MOMENT
-------------
                                X             Y             Z
Electronic contribution:      0.00000      -0.00000      -3.61278
Nuclear contribution   :      0.00000       0.00000       1.30353
                        -----------------------------------------
Total Dipole Moment    :      0.00000      -0.00000      -2.30925
                        -----------------------------------------
Magnitude (a.u.)       :      2.30925
Magnitude (Debye)      :      5.86965



--------------------
Rotational spectrum 
--------------------
 
Rotational constants in cm-1:     0.000000     0.524387     0.524387 
Rotational constants in MHz :     0.000000 15720.731712 15720.731712 

 Dipole components along the rotational axes: 
x,y,z [a.u.] :    -2.309251    -0.000000     0.000000 
x,y,z [Debye]:    -5.869650    -0.000000     0.000000 

 

Timings for individual modules:

Sum of individual times         ...      340.721 sec (=   5.679 min)
GTO integral calculation        ...        3.334 sec (=   0.056 min)   1.0 %
SCF iterations                  ...      337.387 sec (=   5.623 min)  99.0 %
                             ****ORCA TERMINATED NORMALLY****
TOTAL RUN TIME: 0 days 0 hours 5 minutes 41 seconds 468 msec
