
                                 *****************
                                 * O   R   C   A *
                                 *****************

           --- An Ab Initio, DFT and Semiempirical electronic structure package ---

                  #######################################################
                  #                        -***-                        #
                  #          Department of theory and spectroscopy      #
                  #               Directorship: Frank Neese             #
                  #        Max Planck Institute fuer Kohlenforschung    #
                  #                Kaiser Wilhelm Platz 1               #
                  #                 D-45470 Muelheim/Ruhr               #
                  #                      Germany                        #
                  #                                                     #
                  #                  All rights reserved                #
                  #                        -***-                        #
                  #######################################################


                         Program Version 4.2.0 -  RELEASE  -


 With contributions from (in alphabetic order):
   Daniel Aravena         : Magnetic Suceptibility
   Michael Atanasov       : Ab Initio Ligand Field Theory (pilot matlab implementation)
   Alexander A. Auer      : GIAO ZORA, VPT2
   Ute Becker             : Parallelization
   Giovanni Bistoni       : ED, misc. LED, open-shell LED, HFLED
   Martin Brehm           : Molecular dynamics
   Dmytro Bykov           : SCF Hessian
   Vijay G. Chilkuri      : MRCI spin determinant printing, contributions to CSF-ICE
   Dipayan Datta          : RHF DLPNO-CCSD density
   Achintya Kumar Dutta   : EOM-CC, STEOM-CC
   Dmitry Ganyushin       : Spin-Orbit,Spin-Spin,Magnetic field MRCI
   Miquel Garcia          : C-PCM Hessian, Gaussian charge scheme
   Yang Guo               : DLPNO-NEVPT2, CIM, IAO-localization
   Andreas Hansen         : Spin unrestricted coupled pair/coupled cluster methods
   Benjamin Helmich-Paris : CASSCF linear response (MC-RPA)
   Lee Huntington         : MR-EOM, pCC
   Robert Izsak           : Overlap fitted RIJCOSX, COSX-SCS-MP3, EOM
   Christian Kollmar      : KDIIS, OOCD, Brueckner-CCSD(T), CCSD density
   Simone Kossmann        : Meta GGA functionals, TD-DFT gradient, OOMP2, MP2 Hessian
   Martin Krupicka        : AUTO-CI
   Lucas Lang             : DCDCAS
   Dagmar Lenk            : GEPOL surface, SMD
   Dimitrios Liakos       : Extrapolation schemes; Compound Job, initial MDCI parallelization
   Dimitrios Manganas     : Further ROCIS development; embedding schemes
   Dimitrios Pantazis     : SARC Basis sets
   Taras Petrenko         : DFT Hessian,TD-DFT gradient, ASA, ECA, R-Raman, ABS, FL, XAS/XES, NRVS
   Peter Pinski           : DLPNO-MP2, DLPNO-MP2 Gradient
   Christoph Reimann      : Effective Core Potentials
   Marius Retegan         : Local ZFS, SOC
   Christoph Riplinger    : Optimizer, TS searches, QM/MM, DLPNO-CCSD(T), (RO)-DLPNO pert. Triples
   Tobias Risthaus        : Range-separated hybrids, TD-DFT gradient, RPA, STAB
   Michael Roemelt        : Original ROCIS implementation
   Masaaki Saitow         : Open-shell DLPNO-CCSD energy and density
   Barbara Sandhoefer     : DKH picture change effects
   Avijit Sen             : IP-ROCIS
   Kantharuban Sivalingam : CASSCF convergence, NEVPT2, FIC-MRCI
   Bernardo de Souza      : ESD, SOC TD-DFT
   Georgi Stoychev        : AutoAux, RI-MP2 NMR
   Willem Van den Heuvel  : Paramagnetic NMR
   Boris Wezisla          : Elementary symmetry handling
   Frank Wennmohs         : Technical directorship


 We gratefully acknowledge several colleagues who have allowed us to
 interface, adapt or use parts of their codes:
   Stefan Grimme, W. Hujo, H. Kruse,             : VdW corrections, initial TS optimization,
                  C. Bannwarth                     DFT functionals, gCP, sTDA/sTD-DF
   Ed Valeev, F. Pavosevic, A. Kumar             : LibInt (2-el integral package), F12 methods
   Garnet Chan, S. Sharma, J. Yang, R. Olivares  : DMRG
   Ulf Ekstrom                                   : XCFun DFT Library
   Mihaly Kallay                                 : mrcc  (arbitrary order and MRCC methods)
   Andreas Klamt, Michael Diedenhofen            : otool_cosmo (COSMO solvation model)
   Jiri Pittner, Ondrej Demel                    : Mk-CCSD
   Frank Weinhold                                : gennbo (NPA and NBO analysis)
   Christopher J. Cramer and Donald G. Truhlar   : smd solvation model
   Lars Goerigk                                  : TD-DFT with DH, B97 family of functionals
   V. Asgeirsson, H. Jonsson                     : NEB implementation
   FAccTs GmbH                                   : IRC, NEB, NEB-TS, Multilevel, MM, QM/MM, CI optimization
   S Lehtola, MJT Oliveira, MAL Marques          : LibXC Library


 Your calculation uses the libint2 library for the computation of 2-el integrals
 For citations please refer to: http://libint.valeyev.net

 Your ORCA version has been built with support for libXC version: 4.2.3
 For citations please refer to: https://tddft.org/programs/libxc/

 This ORCA versions uses:
   CBLAS   interface :  Fast vector & matrix operations
   LAPACKE interface :  Fast linear algebra routines
   SCALAPACK package :  Parallel linear algebra routines


Your calculation utilizes the DFT-NL dispersion correction.
Cite in your paper:
Vydrov, O. A.; Van Voorhis, T. J. Chem. Phys. 2010, 133, 244103
Hujo, W.; Grimme, S. J. Chem. Theory Comput. 2011, 7, 3866 
   

----- Orbital basis set information -----
Your calculation utilizes the basis: aug-cc-pVTZ 
    H, B-Ne : Obtained from the ccRepo (grant-hill.group.shef.ac.uk/ccrepo) Feb. 2017
              R. A. Kendall, T. H. Dunning, Jr., R. J. Harrison, J. Chem. Phys. 96, 6796 (1992)
         He : Obtained from the ccRepo (grant-hill.group.shef.ac.uk/ccrepo) Feb. 2017
              D. E. Woon, T. H. Dunning, Jr., J. Chem. Phys. 100, 2975 (1994)
  Li-Be, Na : Obtained from the ccRepo (grant-hill.group.shef.ac.uk/ccrepo) Feb. 2017
              B. P. Prascher, D. E. Woon, K. A. Peterson, T. H. Dunning, Jr., A. K. Wilson, Theor. Chem. Acc. 128, 69 (2011)
         Mg : Obtained from the Peterson Research Group Website (tyr0.chem.wsu.edu/~kipeters) Feb. 2017
              B. P. Prascher, D. E. Woon, K. A. Peterson, T. H. Dunning, Jr., A. K. Wilson, Theor. Chem. Acc. 128, 69 (2011)
      Al-Ar : Obtained from the ccRepo (grant-hill.group.shef.ac.uk/ccrepo) Feb. 2017
              D. E. Woon, T. H. Dunning, Jr., J. Chem. Phys. 98, 1358 (1993)
      Sc-Zn : Obtained from the ccRepo (grant-hill.group.shef.ac.uk/ccrepo) Feb. 2017
              N. B. Balabanov, K. A. Peterson, J. Chem. Phys. 123, 064107 (2005)
              N. B. Balabanov, K. A. Peterson, J. Chem. Phys. 125, 074110 (2006)
      Ga-Kr : Obtained from the ccRepo (grant-hill.group.shef.ac.uk/ccrepo) Feb. 2017
              A. K. Wilson, D. E. Woon, K. A. Peterson, T. H. Dunning, Jr., J. Chem. Phys. 110, 7667 (1999)
     Ag, Au : Obtained from the Peterson Research Group Website (tyr0.chem.wsu.edu/~kipeters) Feb. 2017
              K. A. Peterson, C. Puzzarini, Theor. Chem. Acc. 114, 283 (2005)

----- AuxJK basis set information -----
Your calculation utilizes the auxiliary basis: def2/JK
   H-Ba, Hf-Rn: F. Weigend, J. Comput. Chem. 29, 167 (2008).

================================================================================
                                        WARNINGS
                       Please study these warnings very carefully!
================================================================================


WARNING: your system is open-shell and RHF/RKS was chosen
  ===> : WILL SWITCH to UHF/UKS


INFO   : the flag for use of LIBINT has been found!

================================================================================
                                       INPUT FILE
================================================================================
NAME = 47_NiO.in
|  1> #
|  2> # 47_NiO wb97x-v/aug-cc-pvtz
|  3> #
|  4> ! wb97x-v aug-cc-pvtz def2/jk grid4 nofinalgrid
|  5> 
|  6> *xyz 0 3
|  7>   Ni  0.00000000000000      0.00000000000000      0.18512940996137
|  8>   O   0.00000000000000      0.00000000000000      1.81487059003863
|  9> *
| 10> 
| 11> %pal
| 12> nprocs 24
| 13> end
| 14> 
| 15> 
| 16>                          ****END OF INPUT****
================================================================================

                       ****************************
                       * Single Point Calculation *
                       ****************************

---------------------------------
CARTESIAN COORDINATES (ANGSTROEM)
---------------------------------
  Ni     0.000000    0.000000    0.185129
  O      0.000000    0.000000    1.814871

----------------------------
CARTESIAN COORDINATES (A.U.)
----------------------------
  NO LB      ZA    FRAG     MASS         X           Y           Z
   0 Ni   28.0000    0    58.700    0.000000    0.000000    0.349844
   1 O     8.0000    0    15.999    0.000000    0.000000    3.429608

--------------------------------
INTERNAL COORDINATES (ANGSTROEM)
--------------------------------
 Ni     0   0   0     0.000000000000     0.00000000     0.00000000
 O      1   0   0     1.629741180077     0.00000000     0.00000000

---------------------------
INTERNAL COORDINATES (A.U.)
---------------------------
 Ni     0   0   0     0.000000000000     0.00000000     0.00000000
 O      1   0   0     3.079764499520     0.00000000     0.00000000

---------------------
BASIS SET INFORMATION
---------------------
There are 2 groups of distinct atoms

 Group   1 Type Ni  : 116s77p23d3f2g contracted to 8s7p5d3f2g pattern {19191919191911/151515151511/77711/111/11}
 Group   2 Type O   : 19s6p3d2f contracted to 5s4p3d2f pattern {88111/3111/111/11}

Atom   0Ni   basis set group =>   1
Atom   1O    basis set group =>   2
----------------------------------
AUXILIARY/JK BASIS SET INFORMATION
----------------------------------
There are 2 groups of distinct atoms

 Group   1 Type Ni  : 19s14p12d10f7g3h1i contracted to 16s13p11d9f5g3h1i pattern {4111111111111111/2111111111111/21111111111/211111111/31111/111/1}
 Group   2 Type O   : 14s10p6d2f1g contracted to 10s8p4d2f1g pattern {5111111111/31111111/3111/11/1}

Atom   0Ni   basis set group =>   1
Atom   1O    basis set group =>   2


           ************************************************************
           *        Program running with 24 parallel MPI-processes    *
           *              working on a common directory               *
           ************************************************************
------------------------------------------------------------------------------
                           ORCA GTO INTEGRAL CALCULATION
------------------------------------------------------------------------------

                         BASIS SET STATISTICS AND STARTUP INFO

 # of primitive gaussian shells          ...  251
 # of primitive gaussian functions       ...  567
 # of contracted shells                  ...   39
 # of contracted basis functions         ...  139
 Highest angular momentum                ...    4
 Maximum contraction depth               ...   19
 Integral package used                   ... LIBINT
 Integral threshhold            Thresh   ...  1.000e-10
 Primitive cut-off              TCut     ...  1.000e-11


------------------------------ INTEGRAL EVALUATION ----------------------------


 * One electron integrals 
 Pre-screening matrix                    ... done
 Shell pair data                         ... done (   0.001 sec)



           ************************************************************
           *        Program running with 24 parallel MPI-processes    *
           *              working on a common directory               *
           ************************************************************
-------------------------------------------------------------------------------
                                 ORCA SCF
-------------------------------------------------------------------------------

------------
SCF SETTINGS
------------
Hamiltonian:
 Density Functional     Method          .... DFT(GTOs)
 Exchange Functional    Exchange        .... WB97X-V
 Correlation Functional Correlation     .... WB97X-V
 Gradients option       PostSCFGGA      .... off
 Hybrid DFT is turned on
   Fraction HF Exchange ScalHFX         ....  0.167000
   Scaling of DF-GGA-X  ScalDFX         ....  0.000000
   Scaling of DF-GGA-C  ScalDFC         ....  1.000000
   Scaling of DF-LDA-C  ScalLDAC        ....  1.000000
   Perturbative correction              ....  0.000000
   Density functional embedding theory  .... OFF
 Long-range corrected/Screened/Range-Separated Hybrid DFT is turned on
   Amount of maximum screened exact exchange              ....  0.833000
   Range separation parameter mu (erf(mu*r12)/r12)        ....  0.300000
   NL short-range parameter             ....  6.000000
   NL long-range parameter              ....  0.010000


General Settings:
 Integral files         IntName         .... 47_NiO
 Hartree-Fock type      HFTyp           .... UHF
 Total Charge           Charge          ....    0
 Multiplicity           Mult            ....    3
 Number of Electrons    NEL             ....   36
 Basis Dimension        Dim             ....  139
 Nuclear Repulsion      ENuc            ....     72.7328339667 Eh

Convergence Acceleration:
 DIIS                   CNVDIIS         .... on
   Start iteration      DIISMaxIt       ....    12
   Startup error        DIISStart       ....  0.200000
   # of expansion vecs  DIISMaxEq       ....     5
   Bias factor          DIISBfac        ....   1.050
   Max. coefficient     DIISMaxC        ....  10.000
 Newton-Raphson         CNVNR           .... off
 SOSCF                  CNVSOSCF        .... off
 Level Shifting         CNVShift        .... on
   Level shift para.    LevelShift      ....    0.2500
   Turn off err/grad.   ShiftErr        ....    0.0010
 Zerner damping         CNVZerner       .... off
 Static damping         CNVDamp         .... on
   Fraction old density DampFac         ....    0.7000
   Max. Damping (<1)    DampMax         ....    0.9800
   Min. Damping (>=0)   DampMin         ....    0.0000
   Turn off err/grad.   DampErr         ....    0.1000
 Fernandez-Rico         CNVRico         .... off

SCF Procedure:
 Maximum # iterations   MaxIter         ....   125
 SCF integral mode      SCFMode         .... Direct
   Integral package                     .... LIBINT
 Reset frequency        DirectResetFreq ....    20
 Integral Threshold     Thresh          ....  1.000e-10 Eh
 Primitive CutOff       TCut            ....  1.000e-11 Eh

Convergence Tolerance:
 Convergence Check Mode ConvCheckMode   .... Total+1el-Energy
 Convergence forced     ConvForced      .... 0
 Energy Change          TolE            ....  1.000e-06 Eh
 1-El. energy change                    ....  1.000e-03 Eh
 DIIS Error             TolErr          ....  1.000e-06


Diagonalization of the overlap matrix:
Smallest eigenvalue                        ... 2.141e-04
Time for diagonalization                   ...    0.005 sec
Threshold for overlap eigenvalues          ... 1.000e-08
Number of eigenvalues below threshold      ... 0
Time for construction of square roots      ...    0.002 sec
Total time needed                          ...    0.007 sec

-------------------
DFT GRID GENERATION
-------------------

General Integration Accuracy     IntAcc      ...  4.670
Radial Grid Type                 RadialGrid  ... Gauss-Chebyshev
Angular Grid (max. acc.)         AngularGrid ... Lebedev-302
Angular grid pruning method      GridPruning ... 3 (G Style)
Weight generation scheme         WeightScheme... Becke
Basis function cutoff            BFCut       ...    1.0000e-10
Integration weight cutoff        WCut        ...    1.0000e-14
Grids for H and He will be reduced by one unit

# of grid points (after initial pruning)     ...  15876 (   0.0 sec)
# of grid points (after weights+screening)   ...  15835 (   0.0 sec)
nearest neighbour list constructed           ...    0.0 sec
Grid point re-assignment to atoms done       ...    0.0 sec
Grid point division into batches done        ...    0.1 sec
Reduced shell lists constructed in    0.1 sec

Total number of grid points                  ...    15835
Total number of batches                      ...      248
Average number of points per batch           ...       63
Average number of grid points per atom       ...     7918
Average number of shells per batch           ...    15.00 (38.46%)
Average number of basis functions per batch  ...    35.00 (25.18%)
Average number of large shells per batch     ...     8.42 (56.11%)
Average number of large basis fcns per batch ...    19.08 (54.52%)
Maximum spatial batch extension              ...  22.45, 22.17, 15.88 au
Average spatial batch extension              ...   0.80,  0.79,  0.61 au

Time for grid setup =    0.148 sec

------------------------------
INITIAL GUESS: MODEL POTENTIAL
------------------------------
Loading Hartree-Fock densities                     ... done
Calculating cut-offs                               ... done
Setting up the integral package                    ... done
Initializing the effective Hamiltonian             ... done
Starting the Coulomb interaction                   ... done (   0.0 sec)
Reading the grid                                   ... done
Mapping shells                                     ... done
Starting the XC term evaluation                    ... done (   0.0 sec)
  promolecular density results
     # of electrons  =     36.000032126
     EX              =    -52.906296756
     EC              =     -2.056545760
     EX+EC           =    -54.962842516
Transforming the Hamiltonian                       ... done (   0.0 sec)
Diagonalizing the Hamiltonian                      ... done (   0.0 sec)
Back transforming the eigenvectors                 ... done (   0.0 sec)
Now organizing SCF variables                       ... done
                      ------------------
                      INITIAL GUESS DONE (   0.2 sec)
                      ------------------
--------------
SCF ITERATIONS
--------------
ITER       Energy         Delta-E        Max-DP      RMS-DP      [F,P]     Damp
               ***  Starting incremental Fock matrix formation  ***
  0  -1578.3514011262   0.000000000000 0.28563498  0.00672464  2.1371639 0.7000
  1  -1581.0382917933  -2.686890667130 0.15559780  0.00286814  0.4439609 0.7000
  2  -1581.6855717713  -0.647279977969 0.10743395  0.00239638  0.5044866 0.7000
  3  -1582.2451126643  -0.559540893092 0.07836742  0.00157356  0.3153290 0.7000
                               ***Turning on DIIS***
  4  -1582.6054443851  -0.360331720741 0.05469902  0.00106295  0.1722375 0.7000
  5  -1582.8637852230  -0.258340837890 0.04084198  0.00087912  0.1215257 0.7000
  6  -1583.0489899571  -0.185204734145 0.09796000  0.00233341  0.0867728 0.0000
  7  -1583.4960168130  -0.447026855845 0.01708870  0.00025650  0.0470192 0.0000
  8  -1583.4961647461  -0.000147933157 0.01026843  0.00017933  0.0545671 0.0000
  9  -1583.4987137093  -0.002548963153 0.00603819  0.00009133  0.0073120 0.0000
 10  -1583.4990986837  -0.000384974390 0.00726817  0.00008719  0.0057367 0.0000
 11  -1583.4993365690  -0.000237885297 0.00655046  0.00007490  0.0036481 0.0000
 12  -1583.4994788937  -0.000142324697 0.00612087  0.00006657  0.0026555 0.0000
 13  -1583.4995672257  -0.000088332034 0.00389239  0.00004217  0.0016540 0.0000
 14  -1583.4996093453  -0.000042119599 0.00488849  0.00005502  0.0009540 0.0000
 15  -1583.4996482630  -0.000038917700 0.00076107  0.00001031  0.0005057 0.0000
 16  -1583.4996535922  -0.000005329211 0.00091157  0.00001283  0.0004983 0.0000
 17  -1583.4996597497  -0.000006157543 0.00086123  0.00001148  0.0001385 0.0000
 18  -1583.4996642444  -0.000004494655 0.00068703  0.00000821  0.0001207 0.0000
 19  -1583.4996669667  -0.000002722347 0.00091102  0.00001124  0.0000722 0.0000
               *** Restarting incremental Fock matrix formation ***
                                   *** Resetting DIIS ***
 20  -1583.4996701221  -0.000003155397 0.00056867  0.00000715  0.0000582 0.0000
 21  -1583.4996717657  -0.000001643514 0.00014488  0.00000185  0.0001533 0.0000
                 **** Energy Check signals convergence ****

               *****************************************************
               *                     SUCCESS                       *
               *           SCF CONVERGED AFTER  22 CYCLES          *
               *****************************************************


Setting up the DFT-NL grid :

General Integration Accuracy     IntAcc      ...  4.340
Radial Grid Type                 RadialGrid  ... Gauss-Chebyshev
Angular Grid (max. acc.)         AngularGrid ... Lebedev-110
Angular grid pruning method      GridPruning ... 3 (G Style)
Weight generation scheme         WeightScheme... Becke
Basis function cutoff            BFCut       ...    1.0000e-10
Integration weight cutoff        WCut        ...    1.0000e-14
Grids for H and He will be reduced by one unit

# of grid points (after initial pruning)     ...   4628 (   0.0 sec)
# of grid points (after weights+screening)   ...   4602 (   0.0 sec)
nearest neighbour list constructed           ...    0.0 sec
Grid point re-assignment to atoms done       ...    0.0 sec
Grid point division into batches done        ...    0.0 sec
Reduced shell lists constructed in    0.0 sec

Total number of grid points                  ...     4602
Total number of batches                      ...       73
Average number of points per batch           ...       63
Average number of grid points per atom       ...     2301
Average number of shells per batch           ...    21.60 (55.38%)
Average number of basis functions per batch  ...    64.80 (46.62%)
Average number of large shells per batch     ...    15.20 (70.37%)
Average number of large basis fcns per batch ...    42.40 (65.43%)
Maximum spatial batch extension              ...  17.92, 26.34, 14.62 au
Average spatial batch extension              ...   0.93,  1.21,  0.80 au

Final grid set up in    0.0 sec

-------------------------------------------------------------------------------
                         DFT-NL dispersion correction                          
-------------------------------------------------------------------------------

SC Energy -1583.499672146 
NL    Energy 0.151539545 
SC+NL Energy -1583.348132601 
NL done in    0.0 sec
-------------------------------------------------------------------------------

----------------
TOTAL SCF ENERGY
----------------

Total Energy       :        -1583.34813260 Eh          -43085.09309 eV

Components:
Nuclear Repulsion  :           72.73283397 Eh            1979.16103 eV
Electronic Energy  :        -1656.08096657 Eh          -45064.25412 eV
One Electron Energy:        -2345.03638612 Eh          -63811.68419 eV
Two Electron Energy:          688.95541955 Eh           18747.43007 eV

Virial components:
Potential Energy   :        -3164.58556350 Eh          -86112.75107 eV
Kinetic Energy     :         1581.23743090 Eh           43027.65798 eV
Virial Ratio       :            2.00133484


DFT components:
N(Alpha)           :       19.000000217940 electrons
N(Beta)            :       17.000001822134 electrons
N(Total)           :       36.000002040074 electrons
E(X)               :      -53.087760934411 Eh       
E(C)               :       -2.062748638837 Eh       
NL Energy, E(C,NL) :        0.151539544580 Eh       
E(XC)              :      -54.998970028667 Eh       
DFET-embed. en.    :        0.000000000000 Eh       

---------------
SCF CONVERGENCE
---------------

  Last Energy change         ...   -3.8041e-07  Tolerance :   1.0000e-06
  Last MAX-Density change    ...    5.9666e-04  Tolerance :   1.0000e-05
  Last RMS-Density change    ...    7.3495e-06  Tolerance :   1.0000e-06
  Last DIIS Error            ...    4.5102e-05  Tolerance :   1.0000e-06

             **** THE GBW FILE WAS UPDATED (47_NiO.gbw) ****
             **** DENSITY FILE WAS UPDATED (47_NiO.scfp) ****
             **** ENERGY FILE WAS UPDATED (47_NiO.en.tmp) ****
----------------------
UHF SPIN CONTAMINATION
----------------------

Warning: in a DFT calculation there is little theoretical justification to 
         calculate <S**2> as in Hartree-Fock theory. We will do it anyways
         but you should keep in mind that the values have only limited relevance

Expectation value of <S**2>     :     2.032910
Ideal value S*(S+1) for S=1.0   :     2.000000
Deviation                       :     0.032910

             **** THE GBW FILE WAS UPDATED (47_NiO.gbw) ****
             **** DENSITY FILE WAS UPDATED (47_NiO.scfp) ****
----------------
ORBITAL ENERGIES
----------------
                 SPIN UP ORBITALS
  NO   OCC          E(Eh)            E(eV) 
   0   1.0000    -299.733194     -8156.1549 
   1   1.0000     -35.856601      -975.7077 
   2   1.0000     -31.286480      -851.3484 
   3   1.0000     -31.262172      -850.6869 
   4   1.0000     -31.262172      -850.6869 
   5   1.0000     -19.215620      -522.8836 
   6   1.0000      -4.187928      -113.9593 
   7   1.0000      -2.813752       -76.5661 
   8   1.0000      -2.760352       -75.1130 
   9   1.0000      -2.760352       -75.1130 
  10   1.0000      -1.032629       -28.0993 
  11   1.0000      -0.507648       -13.8138 
  12   1.0000      -0.507648       -13.8138 
  13   1.0000      -0.505426       -13.7533 
  14   1.0000      -0.425857       -11.5882 
  15   1.0000      -0.425857       -11.5882 
  16   1.0000      -0.387925       -10.5560 
  17   1.0000      -0.387925       -10.5560 
  18   1.0000      -0.361880        -9.8473 
  19   0.0000      -0.041593        -1.1318 
  20   0.0000       0.026906         0.7321 
  21   0.0000       0.026906         0.7321 
  22   0.0000       0.029516         0.8032 
  23   0.0000       0.040086         1.0908 
  24   0.0000       0.085706         2.3322 
  25   0.0000       0.085706         2.3322 
  26   0.0000       0.111820         3.0428 
  27   0.0000       0.124877         3.3981 
  28   0.0000       0.124877         3.3981 
  29   0.0000       0.128363         3.4929 
  30   0.0000       0.128363         3.4929 
  31   0.0000       0.143051         3.8926 
  32   0.0000       0.177164         4.8209 
  33   0.0000       0.255955         6.9649 
  34   0.0000       0.269695         7.3388 
  35   0.0000       0.269695         7.3388 
  36   0.0000       0.281190         7.6516 
  37   0.0000       0.281190         7.6516 
  38   0.0000       0.351650         9.5689 
  39   0.0000       0.433482        11.7956 
  40   0.0000       0.433482        11.7956 
  41   0.0000       0.437954        11.9173 
  42   0.0000       0.446287        12.1441 
  43   0.0000       0.446287        12.1441 
  44   0.0000       0.631735        17.1904 
  45   0.0000       0.690137        18.7796 
  46   0.0000       0.690138        18.7796 
  47   0.0000       0.731976        19.9181 
  48   0.0000       0.815569        22.1928 
  49   0.0000       0.815569        22.1928 
  50   0.0000       0.831712        22.6320 
  51   0.0000       0.995992        27.1023 
  52   0.0000       0.995992        27.1023 
  53   0.0000       1.064927        28.9781 
  54   0.0000       1.064927        28.9781 
  55   0.0000       1.151778        31.3415 
  56   0.0000       1.216971        33.1155 
  57   0.0000       1.361171        37.0394 
  58   0.0000       1.361171        37.0394 
  59   0.0000       1.437837        39.1255 
  60   0.0000       1.437837        39.1255 
  61   0.0000       1.451679        39.5022 
  62   0.0000       1.451679        39.5022 
  63   0.0000       1.504305        40.9342 
  64   0.0000       1.504306        40.9342 
  65   0.0000       1.520051        41.3627 
  66   0.0000       1.706201        46.4281 
  67   0.0000       1.706201        46.4281 
  68   0.0000       1.927591        52.4524 
  69   0.0000       1.979243        53.8579 
  70   0.0000       2.001645        54.4675 
  71   0.0000       2.001645        54.4675 
  72   0.0000       2.052769        55.8587 
  73   0.0000       2.052773        55.8588 
  74   0.0000       2.263041        61.5805 
  75   0.0000       2.263041        61.5805 
  76   0.0000       2.285757        62.1986 
  77   0.0000       2.285763        62.1988 
  78   0.0000       2.453954        66.7755 
  79   0.0000       2.876218        78.2659 
  80   0.0000       2.876218        78.2659 
  81   0.0000       3.234567        88.0170 
  82   0.0000       3.682639       100.2097 
  83   0.0000       3.936890       107.1282 
  84   0.0000       3.936890       107.1282 
  85   0.0000       3.954649       107.6115 
  86   0.0000       3.954649       107.6115 
  87   0.0000       3.988324       108.5278 
  88   0.0000       3.988325       108.5278 
  89   0.0000       4.026652       109.5708 
  90   0.0000       4.029510       109.6486 
  91   0.0000       4.029510       109.6486 
  92   0.0000       4.112606       111.9097 
  93   0.0000       4.112606       111.9097 
  94   0.0000       4.400195       119.7354 
  95   0.0000       4.736397       128.8839 
  96   0.0000       5.139937       139.8648 
  97   0.0000       5.139937       139.8648 
  98   0.0000       5.149456       140.1238 
  99   0.0000       5.149469       140.1242 
 100   0.0000       5.263297       143.2216 
 101   0.0000       5.263298       143.2216 
 102   0.0000       5.306339       144.3928 
 103   0.0000       5.306339       144.3928 
 104   0.0000       5.550544       151.0380 
 105   0.0000       5.749845       156.4612 
 106   0.0000       5.749847       156.4613 
 107   0.0000       6.114224       166.3765 
 108   0.0000       6.114224       166.3765 
 109   0.0000       6.174104       168.0059 
 110   0.0000       6.174104       168.0059 
 111   0.0000       6.272897       170.6942 
 112   0.0000       6.272900       170.6943 
 113   0.0000       6.541567       178.0051 
 114   0.0000       6.541567       178.0051 
 115   0.0000       6.565179       178.6476 
 116   0.0000       6.650890       180.9799 
 117   0.0000       6.650973       180.9822 
 118   0.0000       7.102204       193.2608 
 119   0.0000       7.102204       193.2608 
 120   0.0000       7.171885       195.1569 
 121   0.0000       7.788161       211.9266 
 122   0.0000      10.938377       297.6484 
 123   0.0000      12.496011       340.0337 
 124   0.0000      12.496014       340.0338 
 125   0.0000      12.507388       340.3433 
 126   0.0000      12.507388       340.3433 
 127   0.0000      12.566091       341.9407 
 128   0.0000      12.566091       341.9407 
 129   0.0000      12.738985       346.6454 
 130   0.0000      14.049086       382.2951 
 131   0.0000      14.049086       382.2951 
 132   0.0000      14.081943       383.1892 
 133   0.0000      14.081995       383.1906 
 134   0.0000      14.111219       383.9858 
 135   0.0000      14.111230       383.9861 
 136   0.0000      14.350659       390.5013 
 137   0.0000      14.350659       390.5013 
 138   0.0000      14.611762       397.6063 

                 SPIN DOWN ORBITALS
  NO   OCC          E(Eh)            E(eV) 
   0   1.0000    -299.732844     -8156.1453 
   1   1.0000     -35.826426      -974.8866 
   2   1.0000     -31.253831      -850.4600 
   3   1.0000     -31.242024      -850.1387 
   4   1.0000     -31.242024      -850.1387 
   5   1.0000     -19.195644      -522.3400 
   6   1.0000      -4.125512      -112.2609 
   7   1.0000      -2.723283       -74.1043 
   8   1.0000      -2.704585       -73.5955 
   9   1.0000      -2.704585       -73.5955 
  10   1.0000      -0.968915       -26.3655 
  11   1.0000      -0.469614       -12.7789 
  12   1.0000      -0.392699       -10.6859 
  13   1.0000      -0.392699       -10.6859 
  14   1.0000      -0.383543       -10.4367 
  15   1.0000      -0.383543       -10.4367 
  16   1.0000      -0.334773        -9.1096 
  17   0.0000      -0.032450        -0.8830 
  18   0.0000      -0.015034        -0.4091 
  19   0.0000      -0.015034        -0.4091 
  20   0.0000       0.030676         0.8347 
  21   0.0000       0.032243         0.8774 
  22   0.0000       0.032243         0.8774 
  23   0.0000       0.040040         1.0896 
  24   0.0000       0.092497         2.5170 
  25   0.0000       0.092497         2.5170 
  26   0.0000       0.113051         3.0763 
  27   0.0000       0.124639         3.3916 
  28   0.0000       0.124639         3.3916 
  29   0.0000       0.131900         3.5892 
  30   0.0000       0.131900         3.5892 
  31   0.0000       0.144260         3.9255 
  32   0.0000       0.179655         4.8887 
  33   0.0000       0.257288         7.0012 
  34   0.0000       0.273449         7.4409 
  35   0.0000       0.273449         7.4409 
  36   0.0000       0.286087         7.7848 
  37   0.0000       0.286087         7.7848 
  38   0.0000       0.356251         9.6941 
  39   0.0000       0.437231        11.8977 
  40   0.0000       0.437231        11.8977 
  41   0.0000       0.442498        12.0410 
  42   0.0000       0.457069        12.4375 
  43   0.0000       0.457069        12.4375 
  44   0.0000       0.636553        17.3215 
  45   0.0000       0.695436        18.9238 
  46   0.0000       0.695437        18.9238 
  47   0.0000       0.739427        20.1208 
  48   0.0000       0.823990        22.4219 
  49   0.0000       0.823990        22.4219 
  50   0.0000       0.838108        22.8061 
  51   0.0000       1.008831        27.4517 
  52   0.0000       1.008831        27.4517 
  53   0.0000       1.086944        29.5772 
  54   0.0000       1.086944        29.5772 
  55   0.0000       1.163717        31.6664 
  56   0.0000       1.229960        33.4689 
  57   0.0000       1.358705        36.9723 
  58   0.0000       1.358705        36.9723 
  59   0.0000       1.442176        39.2436 
  60   0.0000       1.442176        39.2436 
  61   0.0000       1.477836        40.2140 
  62   0.0000       1.477836        40.2140 
  63   0.0000       1.513998        41.1980 
  64   0.0000       1.513998        41.1980 
  65   0.0000       1.530859        41.6568 
  66   0.0000       1.717514        46.7359 
  67   0.0000       1.717514        46.7359 
  68   0.0000       1.939456        52.7753 
  69   0.0000       1.997610        54.3577 
  70   0.0000       2.013159        54.7808 
  71   0.0000       2.013159        54.7808 
  72   0.0000       2.091406        56.9100 
  73   0.0000       2.091414        56.9103 
  74   0.0000       2.280847        62.0650 
  75   0.0000       2.280847        62.0650 
  76   0.0000       2.293433        62.4075 
  77   0.0000       2.293438        62.4076 
  78   0.0000       2.467610        67.1471 
  79   0.0000       2.889302        78.6219 
  80   0.0000       2.889302        78.6219 
  81   0.0000       3.259556        88.6970 
  82   0.0000       3.712697       101.0276 
  83   0.0000       3.966799       107.9421 
  84   0.0000       3.966799       107.9421 
  85   0.0000       3.987710       108.5111 
  86   0.0000       3.987710       108.5111 
  87   0.0000       4.032079       109.7185 
  88   0.0000       4.032080       109.7185 
  89   0.0000       4.053979       110.3144 
  90   0.0000       4.058128       110.4273 
  91   0.0000       4.058128       110.4273 
  92   0.0000       4.151880       112.9784 
  93   0.0000       4.151880       112.9784 
  94   0.0000       4.433064       120.6298 
  95   0.0000       4.760533       129.5407 
  96   0.0000       5.152759       140.2137 
  97   0.0000       5.152771       140.2140 
  98   0.0000       5.162926       140.4904 
  99   0.0000       5.162926       140.4904 
 100   0.0000       5.289881       143.9450 
 101   0.0000       5.289882       143.9450 
 102   0.0000       5.341108       145.3389 
 103   0.0000       5.341108       145.3389 
 104   0.0000       5.573144       151.6530 
 105   0.0000       5.774323       157.1273 
 106   0.0000       5.774325       157.1274 
 107   0.0000       6.171369       167.9315 
 108   0.0000       6.171369       167.9315 
 109   0.0000       6.226313       169.4266 
 110   0.0000       6.226313       169.4266 
 111   0.0000       6.309006       171.6768 
 112   0.0000       6.309016       171.6771 
 113   0.0000       6.571383       178.8164 
 114   0.0000       6.571383       178.8164 
 115   0.0000       6.594229       179.4381 
 116   0.0000       6.731290       183.1677 
 117   0.0000       6.731374       183.1700 
 118   0.0000       7.149007       194.5344 
 119   0.0000       7.149007       194.5344 
 120   0.0000       7.208749       196.1600 
 121   0.0000       7.812770       212.5963 
 122   0.0000      10.980947       298.8067 
 123   0.0000      12.538490       341.1896 
 124   0.0000      12.538490       341.1896 
 125   0.0000      12.582066       342.3754 
 126   0.0000      12.582069       342.3755 
 127   0.0000      12.632775       343.7553 
 128   0.0000      12.632775       343.7553 
 129   0.0000      12.788879       348.0031 
 130   0.0000      14.099351       383.6628 
 131   0.0000      14.099401       383.6642 
 132   0.0000      14.103412       383.7733 
 133   0.0000      14.103412       383.7733 
 134   0.0000      14.165146       385.4532 
 135   0.0000      14.165156       385.4535 
 136   0.0000      14.392405       391.6373 
 137   0.0000      14.392405       391.6373 
 138   0.0000      14.648026       398.5930 

                    ********************************
                    * MULLIKEN POPULATION ANALYSIS *
                    ********************************

--------------------------------------------
MULLIKEN ATOMIC CHARGES AND SPIN POPULATIONS
--------------------------------------------
   0 Ni:    0.603831    1.066013
   1 O :   -0.603831    0.933987
Sum of atomic charges         :   -0.0000000
Sum of atomic spin populations:    2.0000000

-----------------------------------------------------
MULLIKEN REDUCED ORBITAL CHARGES AND SPIN POPULATIONS
-----------------------------------------------------
CHARGE
  0 Nis       :     6.563494  s :     6.563494
      pz      :     4.042226  p :    12.147649
      px      :     4.052711
      py      :     4.052711
      dz2     :     1.790365  d :     8.668252
      dxz     :     1.439911
      dyz     :     1.439911
      dx2y2   :     1.999032
      dxy     :     1.999032
      f0      :     0.006224  f :     0.016063
      f+1     :     0.004734
      f-1     :     0.004734
      f+2     :     0.000185
      f-2     :     0.000185
      f+3     :     0.000000
      f-3     :     0.000000
      g0      :     0.000244  g :     0.000710
      g+1     :     0.000221
      g-1     :     0.000221
      g+2     :     0.000012
      g-2     :     0.000012
      g+3     :     0.000000
      g-3     :     0.000000
      g+4     :     0.000000
      g-4     :     0.000000
  1 O s       :     3.971052  s :     3.971052
      pz      :     1.619832  p :     4.604146
      px      :     1.492157
      py      :     1.492157
      dz2     :     0.004857  d :     0.023607
      dxz     :     0.009053
      dyz     :     0.009053
      dx2y2   :     0.000322
      dxy     :     0.000322
      f0      :     0.001705  f :     0.005026
      f+1     :     0.001212
      f-1     :     0.001212
      f+2     :     0.000449
      f-2     :     0.000449
      f+3     :     0.000000
      f-3     :     0.000000

SPIN
  0 Nis       :    -0.101404  s :    -0.101404
      pz      :     0.001132  p :     0.023540
      px      :     0.011204
      py      :     0.011204
      dz2     :     0.044794  d :     1.139044
      dxz     :     0.547194
      dyz     :     0.547194
      dx2y2   :    -0.000069
      dxy     :    -0.000069
      f0      :     0.000562  f :     0.004875
      f+1     :     0.002106
      f-1     :     0.002106
      f+2     :     0.000050
      f-2     :     0.000050
      f+3     :     0.000000
      f-3     :     0.000000
      g0      :    -0.000043  g :    -0.000042
      g+1     :    -0.000011
      g-1     :    -0.000011
      g+2     :     0.000012
      g-2     :     0.000012
      g+3     :     0.000000
      g-3     :     0.000000
      g+4     :     0.000000
      g-4     :     0.000000
  1 O s       :     0.005290  s :     0.005290
      pz      :     0.049515  p :     0.938734
      px      :     0.444609
      py      :     0.444609
      dz2     :     0.000190  d :    -0.008830
      dxz     :    -0.004517
      dyz     :    -0.004517
      dx2y2   :     0.000007
      dxy     :     0.000007
      f0      :    -0.000037  f :    -0.001207
      f+1     :    -0.000586
      f-1     :    -0.000586
      f+2     :     0.000001
      f-2     :     0.000001
      f+3     :     0.000000
      f-3     :     0.000000


                     *******************************
                     * LOEWDIN POPULATION ANALYSIS *
                     *******************************

-------------------------------------------
LOEWDIN ATOMIC CHARGES AND SPIN POPULATIONS
-------------------------------------------
   0 Ni:    0.539492    1.172888
   1 O :   -0.539492    0.827112

----------------------------------------------------
LOEWDIN REDUCED ORBITAL CHARGES AND SPIN POPULATIONS
----------------------------------------------------
CHARGE
  0 Nis       :     6.375657  s :     6.375657
      pz      :     4.151169  p :    12.245793
      px      :     4.047312
      py      :     4.047312
      dz2     :     1.887559  d :     8.721531
      dxz     :     1.432236
      dyz     :     1.432236
      dx2y2   :     1.984750
      dxy     :     1.984750
      f0      :     0.052679  f :     0.113471
      f+1     :     0.029647
      f-1     :     0.029647
      f+2     :     0.000749
      f-2     :     0.000749
      f+3     :     0.000000
      f-3     :     0.000000
      g0      :     0.002307  g :     0.004056
      g+1     :     0.000859
      g-1     :     0.000859
      g+2     :     0.000016
      g-2     :     0.000016
      g+3     :     0.000000
      g-3     :     0.000000
      g+4     :     0.000000
      g-4     :     0.000000
  1 O s       :     3.591510  s :     3.591510
      pz      :     1.732376  p :     4.538843
      px      :     1.403234
      py      :     1.403234
      dz2     :     0.135781  d :     0.253043
      dxz     :     0.051857
      dyz     :     0.051857
      dx2y2   :     0.006774
      dxy     :     0.006774
      f0      :     0.070963  f :     0.156096
      f+1     :     0.034856
      f-1     :     0.034856
      f+2     :     0.007711
      f-2     :     0.007711
      f+3     :     0.000000
      f-3     :     0.000000

SPIN
  0 Nis       :    -0.080882  s :    -0.080882
      pz      :     0.001292  p :     0.087332
      px      :     0.043020
      py      :     0.043020
      dz2     :     0.044075  d :     1.129845
      dxz     :     0.542249
      dyz     :     0.542249
      dx2y2   :     0.000636
      dxy     :     0.000636
      f0      :     0.002510  f :     0.035515
      f+1     :     0.016419
      f-1     :     0.016419
      f+2     :     0.000083
      f-2     :     0.000083
      f+3     :     0.000000
      f-3     :     0.000000
      g0      :     0.000098  g :     0.001079
      g+1     :     0.000490
      g-1     :     0.000490
      g+2     :     0.000001
      g-2     :     0.000001
      g+3     :     0.000000
      g-3     :     0.000000
      g+4     :     0.000000
      g-4     :     0.000000
  1 O s       :     0.004339  s :     0.004339
      pz      :     0.028745  p :     0.795351
      px      :     0.383303
      py      :     0.383303
      dz2     :    -0.000090  d :     0.009429
      dxz     :     0.005199
      dyz     :     0.005199
      dx2y2   :    -0.000440
      dxy     :    -0.000440
      f0      :    -0.000087  f :     0.017993
      f+1     :     0.009320
      f-1     :     0.009320
      f+2     :    -0.000279
      f-2     :    -0.000279
      f+3     :     0.000000
      f-3     :     0.000000


                      *****************************
                      * MAYER POPULATION ANALYSIS *
                      *****************************

  NA   - Mulliken gross atomic population
  ZA   - Total nuclear charge
  QA   - Mulliken gross atomic charge
  VA   - Mayer's total valence
  BVA  - Mayer's bonded valence
  FA   - Mayer's free valence

  ATOM       NA         ZA         QA         VA         BVA        FA
  0 Ni    27.3962    28.0000     0.6038     2.6528     1.8586     0.7942
  1 O      8.6038     8.0000    -0.6038     2.2660     1.8586     0.4074

  Mayer bond orders larger than 0.100000
B(  0-Ni,  1-O ) :   1.8586 

-------
TIMINGS
-------

Total SCF time: 0 days 0 hours 5 min 37 sec 

Total time                  ....     337.157 sec
Sum of individual times     ....     336.737 sec  ( 99.9%)

Fock matrix formation       ....     336.304 sec  ( 99.7%)
  XC integration            ....       0.533 sec  (  0.2% of F)
    Basis function eval.    ....       0.116 sec  ( 21.8% of XC)
    Density eval.           ....       0.061 sec  ( 11.4% of XC)
    XC-Functional eval.     ....       0.028 sec  (  5.2% of XC)
    XC-Potential eval.      ....       0.146 sec  ( 27.5% of XC)
Diagonalization             ....       0.114 sec  (  0.0%)
Density matrix formation    ....       0.014 sec  (  0.0%)
Population analysis         ....       0.007 sec  (  0.0%)
Initial guess               ....       0.099 sec  (  0.0%)
Orbital Transformation      ....       0.000 sec  (  0.0%)
Orbital Orthonormalization  ....       0.000 sec  (  0.0%)
DIIS solution               ....       0.037 sec  (  0.0%)
Grid generation             ....       0.162 sec  (  0.0%)

-------------------------   --------------------
FINAL SINGLE POINT ENERGY     -1583.348132601486
-------------------------   --------------------


                            ***************************************
                            *     ORCA property calculations      *
                            ***************************************

                                    ---------------------
                                    Active property flags
                                    ---------------------
   (+) Dipole Moment


------------------------------------------------------------------------------
                       ORCA ELECTRIC PROPERTIES CALCULATION
------------------------------------------------------------------------------

Dipole Moment Calculation                       ... on
Quadrupole Moment Calculation                   ... off
Polarizability Calculation                      ... off
GBWName                                         ... 47_NiO.gbw
Electron density file                           ... 47_NiO.scfp
The origin for moment calculation is the CENTER OF MASS  = ( 0.000000,  0.000000  1.009467)

-------------
DIPOLE MOMENT
-------------
                                X             Y             Z
Electronic contribution:     -0.00000      -0.00000      -2.96635
Nuclear contribution   :      0.00000       0.00000       0.89170
                        -----------------------------------------
Total Dipole Moment    :     -0.00000      -0.00000      -2.07465
                        -----------------------------------------
Magnitude (a.u.)       :      2.07465
Magnitude (Debye)      :      5.27334



--------------------
Rotational spectrum 
--------------------
 
Rotational constants in cm-1:     0.000000     0.504828     0.504828 
Rotational constants in MHz :     0.000000 15134.363944 15134.363944 

 Dipole components along the rotational axes: 
x,y,z [a.u.] :    -2.074651    -0.000000    -0.000000 
x,y,z [Debye]:    -5.273345    -0.000000    -0.000000 

 

Timings for individual modules:

Sum of individual times         ...      340.905 sec (=   5.682 min)
GTO integral calculation        ...        3.155 sec (=   0.053 min)   0.9 %
SCF iterations                  ...      337.750 sec (=   5.629 min)  99.1 %
                             ****ORCA TERMINATED NORMALLY****
TOTAL RUN TIME: 0 days 0 hours 5 minutes 41 seconds 531 msec
