
                                 *****************
                                 * O   R   C   A *
                                 *****************

           --- An Ab Initio, DFT and Semiempirical electronic structure package ---

                  #######################################################
                  #                        -***-                        #
                  #          Department of theory and spectroscopy      #
                  #               Directorship: Frank Neese             #
                  #        Max Planck Institute fuer Kohlenforschung    #
                  #                Kaiser Wilhelm Platz 1               #
                  #                 D-45470 Muelheim/Ruhr               #
                  #                      Germany                        #
                  #                                                     #
                  #                  All rights reserved                #
                  #                        -***-                        #
                  #######################################################


                         Program Version 4.2.0 -  RELEASE  -


 With contributions from (in alphabetic order):
   Daniel Aravena         : Magnetic Suceptibility
   Michael Atanasov       : Ab Initio Ligand Field Theory (pilot matlab implementation)
   Alexander A. Auer      : GIAO ZORA, VPT2
   Ute Becker             : Parallelization
   Giovanni Bistoni       : ED, misc. LED, open-shell LED, HFLED
   Martin Brehm           : Molecular dynamics
   Dmytro Bykov           : SCF Hessian
   Vijay G. Chilkuri      : MRCI spin determinant printing, contributions to CSF-ICE
   Dipayan Datta          : RHF DLPNO-CCSD density
   Achintya Kumar Dutta   : EOM-CC, STEOM-CC
   Dmitry Ganyushin       : Spin-Orbit,Spin-Spin,Magnetic field MRCI
   Miquel Garcia          : C-PCM Hessian, Gaussian charge scheme
   Yang Guo               : DLPNO-NEVPT2, CIM, IAO-localization
   Andreas Hansen         : Spin unrestricted coupled pair/coupled cluster methods
   Benjamin Helmich-Paris : CASSCF linear response (MC-RPA)
   Lee Huntington         : MR-EOM, pCC
   Robert Izsak           : Overlap fitted RIJCOSX, COSX-SCS-MP3, EOM
   Christian Kollmar      : KDIIS, OOCD, Brueckner-CCSD(T), CCSD density
   Simone Kossmann        : Meta GGA functionals, TD-DFT gradient, OOMP2, MP2 Hessian
   Martin Krupicka        : AUTO-CI
   Lucas Lang             : DCDCAS
   Dagmar Lenk            : GEPOL surface, SMD
   Dimitrios Liakos       : Extrapolation schemes; Compound Job, initial MDCI parallelization
   Dimitrios Manganas     : Further ROCIS development; embedding schemes
   Dimitrios Pantazis     : SARC Basis sets
   Taras Petrenko         : DFT Hessian,TD-DFT gradient, ASA, ECA, R-Raman, ABS, FL, XAS/XES, NRVS
   Peter Pinski           : DLPNO-MP2, DLPNO-MP2 Gradient
   Christoph Reimann      : Effective Core Potentials
   Marius Retegan         : Local ZFS, SOC
   Christoph Riplinger    : Optimizer, TS searches, QM/MM, DLPNO-CCSD(T), (RO)-DLPNO pert. Triples
   Tobias Risthaus        : Range-separated hybrids, TD-DFT gradient, RPA, STAB
   Michael Roemelt        : Original ROCIS implementation
   Masaaki Saitow         : Open-shell DLPNO-CCSD energy and density
   Barbara Sandhoefer     : DKH picture change effects
   Avijit Sen             : IP-ROCIS
   Kantharuban Sivalingam : CASSCF convergence, NEVPT2, FIC-MRCI
   Bernardo de Souza      : ESD, SOC TD-DFT
   Georgi Stoychev        : AutoAux, RI-MP2 NMR
   Willem Van den Heuvel  : Paramagnetic NMR
   Boris Wezisla          : Elementary symmetry handling
   Frank Wennmohs         : Technical directorship


 We gratefully acknowledge several colleagues who have allowed us to
 interface, adapt or use parts of their codes:
   Stefan Grimme, W. Hujo, H. Kruse,             : VdW corrections, initial TS optimization,
                  C. Bannwarth                     DFT functionals, gCP, sTDA/sTD-DF
   Ed Valeev, F. Pavosevic, A. Kumar             : LibInt (2-el integral package), F12 methods
   Garnet Chan, S. Sharma, J. Yang, R. Olivares  : DMRG
   Ulf Ekstrom                                   : XCFun DFT Library
   Mihaly Kallay                                 : mrcc  (arbitrary order and MRCC methods)
   Andreas Klamt, Michael Diedenhofen            : otool_cosmo (COSMO solvation model)
   Jiri Pittner, Ondrej Demel                    : Mk-CCSD
   Frank Weinhold                                : gennbo (NPA and NBO analysis)
   Christopher J. Cramer and Donald G. Truhlar   : smd solvation model
   Lars Goerigk                                  : TD-DFT with DH, B97 family of functionals
   V. Asgeirsson, H. Jonsson                     : NEB implementation
   FAccTs GmbH                                   : IRC, NEB, NEB-TS, Multilevel, MM, QM/MM, CI optimization
   S Lehtola, MJT Oliveira, MAL Marques          : LibXC Library


 Your calculation uses the libint2 library for the computation of 2-el integrals
 For citations please refer to: http://libint.valeyev.net

 Your ORCA version has been built with support for libXC version: 4.2.3
 For citations please refer to: https://tddft.org/programs/libxc/

 This ORCA versions uses:
   CBLAS   interface :  Fast vector & matrix operations
   LAPACKE interface :  Fast linear algebra routines
   SCALAPACK package :  Parallel linear algebra routines


Your calculation utilizes the DFT-NL dispersion correction.
Cite in your paper:
Vydrov, O. A.; Van Voorhis, T. J. Chem. Phys. 2010, 133, 244103
Hujo, W.; Grimme, S. J. Chem. Theory Comput. 2011, 7, 3866 
   

----- Orbital basis set information -----
Your calculation utilizes the basis: aug-cc-pVTZ 
    H, B-Ne : Obtained from the ccRepo (grant-hill.group.shef.ac.uk/ccrepo) Feb. 2017
              R. A. Kendall, T. H. Dunning, Jr., R. J. Harrison, J. Chem. Phys. 96, 6796 (1992)
         He : Obtained from the ccRepo (grant-hill.group.shef.ac.uk/ccrepo) Feb. 2017
              D. E. Woon, T. H. Dunning, Jr., J. Chem. Phys. 100, 2975 (1994)
  Li-Be, Na : Obtained from the ccRepo (grant-hill.group.shef.ac.uk/ccrepo) Feb. 2017
              B. P. Prascher, D. E. Woon, K. A. Peterson, T. H. Dunning, Jr., A. K. Wilson, Theor. Chem. Acc. 128, 69 (2011)
         Mg : Obtained from the Peterson Research Group Website (tyr0.chem.wsu.edu/~kipeters) Feb. 2017
              B. P. Prascher, D. E. Woon, K. A. Peterson, T. H. Dunning, Jr., A. K. Wilson, Theor. Chem. Acc. 128, 69 (2011)
      Al-Ar : Obtained from the ccRepo (grant-hill.group.shef.ac.uk/ccrepo) Feb. 2017
              D. E. Woon, T. H. Dunning, Jr., J. Chem. Phys. 98, 1358 (1993)
      Sc-Zn : Obtained from the ccRepo (grant-hill.group.shef.ac.uk/ccrepo) Feb. 2017
              N. B. Balabanov, K. A. Peterson, J. Chem. Phys. 123, 064107 (2005)
              N. B. Balabanov, K. A. Peterson, J. Chem. Phys. 125, 074110 (2006)
      Ga-Kr : Obtained from the ccRepo (grant-hill.group.shef.ac.uk/ccrepo) Feb. 2017
              A. K. Wilson, D. E. Woon, K. A. Peterson, T. H. Dunning, Jr., J. Chem. Phys. 110, 7667 (1999)
     Ag, Au : Obtained from the Peterson Research Group Website (tyr0.chem.wsu.edu/~kipeters) Feb. 2017
              K. A. Peterson, C. Puzzarini, Theor. Chem. Acc. 114, 283 (2005)

----- AuxJK basis set information -----
Your calculation utilizes the auxiliary basis: def2/JK
   H-Ba, Hf-Rn: F. Weigend, J. Comput. Chem. 29, 167 (2008).

================================================================================
                                        WARNINGS
                       Please study these warnings very carefully!
================================================================================


INFO   : the flag for use of LIBINT has been found!

================================================================================
                                       INPUT FILE
================================================================================
NAME = 51_CuCl.in
|  1> #
|  2> # 51_CuCl wb97x-v/aug-cc-pvtz
|  3> #
|  4> ! wb97x-v aug-cc-pvtz def2/jk grid4 nofinalgrid
|  5> 
|  6> *xyz 0 1
|  7>   Cu  0.00000000000000      0.00000000000000     -0.03459121817691
|  8>   Cl  0.00000000000000      0.00000000000000      2.03459121817691
|  9> *
| 10> 
| 11> %pal
| 12> nprocs 24
| 13> end
| 14> 
| 15> 
| 16>                          ****END OF INPUT****
================================================================================

                       ****************************
                       * Single Point Calculation *
                       ****************************

---------------------------------
CARTESIAN COORDINATES (ANGSTROEM)
---------------------------------
  Cu     0.000000    0.000000   -0.034591
  Cl     0.000000    0.000000    2.034591

----------------------------
CARTESIAN COORDINATES (A.U.)
----------------------------
  NO LB      ZA    FRAG     MASS         X           Y           Z
   0 Cu   29.0000    0    63.550    0.000000    0.000000   -0.065368
   1 Cl   17.0000    0    35.453    0.000000    0.000000    3.844820

--------------------------------
INTERNAL COORDINATES (ANGSTROEM)
--------------------------------
 Cu     0   0   0     0.000000000000     0.00000000     0.00000000
 Cl     1   0   0     2.069182436354     0.00000000     0.00000000

---------------------------
INTERNAL COORDINATES (A.U.)
---------------------------
 Cu     0   0   0     0.000000000000     0.00000000     0.00000000
 Cl     1   0   0     3.910188125829     0.00000000     0.00000000

---------------------
BASIS SET INFORMATION
---------------------
There are 2 groups of distinct atoms

 Group   1 Type Cu  : 116s77p23d3f2g contracted to 8s7p5d3f2g pattern {19191919191911/151515151511/77711/111/11}
 Group   2 Type Cl  : 42s17p3d2f contracted to 6s5p3d2f pattern {131313111/77111/111/11}

Atom   0Cu   basis set group =>   1
Atom   1Cl   basis set group =>   2
----------------------------------
AUXILIARY/JK BASIS SET INFORMATION
----------------------------------
There are 2 groups of distinct atoms

 Group   1 Type Cu  : 19s14p12d10f7g3h1i contracted to 16s13p11d9f5g3h1i pattern {4111111111111111/2111111111111/21111111111/211111111/31111/111/1}
 Group   2 Type Cl  : 16s12p10d4f1g contracted to 13s11p9d4f1g pattern {4111111111111/21111111111/211111111/1111/1}

Atom   0Cu   basis set group =>   1
Atom   1Cl   basis set group =>   2


           ************************************************************
           *        Program running with 24 parallel MPI-processes    *
           *              working on a common directory               *
           ************************************************************
------------------------------------------------------------------------------
                           ORCA GTO INTEGRAL CALCULATION
------------------------------------------------------------------------------

                         BASIS SET STATISTICS AND STARTUP INFO

 # of primitive gaussian shells          ...  285
 # of primitive gaussian functions       ...  623
 # of contracted shells                  ...   41
 # of contracted basis functions         ...  143
 Highest angular momentum                ...    4
 Maximum contraction depth               ...   19
 Integral package used                   ... LIBINT
 Integral threshhold            Thresh   ...  1.000e-10
 Primitive cut-off              TCut     ...  1.000e-11


------------------------------ INTEGRAL EVALUATION ----------------------------


 * One electron integrals 
 Pre-screening matrix                    ... done
 Shell pair data                         ... done (   0.001 sec)



           ************************************************************
           *        Program running with 24 parallel MPI-processes    *
           *              working on a common directory               *
           ************************************************************
-------------------------------------------------------------------------------
                                 ORCA SCF
-------------------------------------------------------------------------------

------------
SCF SETTINGS
------------
Hamiltonian:
 Density Functional     Method          .... DFT(GTOs)
 Exchange Functional    Exchange        .... WB97X-V
 Correlation Functional Correlation     .... WB97X-V
 Gradients option       PostSCFGGA      .... off
 Hybrid DFT is turned on
   Fraction HF Exchange ScalHFX         ....  0.167000
   Scaling of DF-GGA-X  ScalDFX         ....  0.000000
   Scaling of DF-GGA-C  ScalDFC         ....  1.000000
   Scaling of DF-LDA-C  ScalLDAC        ....  1.000000
   Perturbative correction              ....  0.000000
   Density functional embedding theory  .... OFF
 Long-range corrected/Screened/Range-Separated Hybrid DFT is turned on
   Amount of maximum screened exact exchange              ....  0.833000
   Range separation parameter mu (erf(mu*r12)/r12)        ....  0.300000
   NL short-range parameter             ....  6.000000
   NL long-range parameter              ....  0.010000


General Settings:
 Integral files         IntName         .... 51_CuCl
 Hartree-Fock type      HFTyp           .... RHF
 Total Charge           Charge          ....    0
 Multiplicity           Mult            ....    1
 Number of Electrons    NEL             ....   46
 Basis Dimension        Dim             ....  143
 Nuclear Repulsion      ENuc            ....    126.0808902629 Eh

Convergence Acceleration:
 DIIS                   CNVDIIS         .... on
   Start iteration      DIISMaxIt       ....    12
   Startup error        DIISStart       ....  0.200000
   # of expansion vecs  DIISMaxEq       ....     5
   Bias factor          DIISBfac        ....   1.050
   Max. coefficient     DIISMaxC        ....  10.000
 Newton-Raphson         CNVNR           .... off
 SOSCF                  CNVSOSCF        .... off
 Level Shifting         CNVShift        .... on
   Level shift para.    LevelShift      ....    0.2500
   Turn off err/grad.   ShiftErr        ....    0.0010
 Zerner damping         CNVZerner       .... off
 Static damping         CNVDamp         .... on
   Fraction old density DampFac         ....    0.7000
   Max. Damping (<1)    DampMax         ....    0.9800
   Min. Damping (>=0)   DampMin         ....    0.0000
   Turn off err/grad.   DampErr         ....    0.1000
 Fernandez-Rico         CNVRico         .... off

SCF Procedure:
 Maximum # iterations   MaxIter         ....   125
 SCF integral mode      SCFMode         .... Direct
   Integral package                     .... LIBINT
 Reset frequency        DirectResetFreq ....    20
 Integral Threshold     Thresh          ....  1.000e-10 Eh
 Primitive CutOff       TCut            ....  1.000e-11 Eh

Convergence Tolerance:
 Convergence Check Mode ConvCheckMode   .... Total+1el-Energy
 Convergence forced     ConvForced      .... 0
 Energy Change          TolE            ....  1.000e-06 Eh
 1-El. energy change                    ....  1.000e-03 Eh
 DIIS Error             TolErr          ....  1.000e-06


Diagonalization of the overlap matrix:
Smallest eigenvalue                        ... 2.330e-04
Time for diagonalization                   ...    0.004 sec
Threshold for overlap eigenvalues          ... 1.000e-08
Number of eigenvalues below threshold      ... 0
Time for construction of square roots      ...    0.003 sec
Total time needed                          ...    0.007 sec

-------------------
DFT GRID GENERATION
-------------------

General Integration Accuracy     IntAcc      ...  4.670
Radial Grid Type                 RadialGrid  ... Gauss-Chebyshev
Angular Grid (max. acc.)         AngularGrid ... Lebedev-302
Angular grid pruning method      GridPruning ... 3 (G Style)
Weight generation scheme         WeightScheme... Becke
Basis function cutoff            BFCut       ...    1.0000e-10
Integration weight cutoff        WCut        ...    1.0000e-14
Grids for H and He will be reduced by one unit

# of grid points (after initial pruning)     ...  16294 (   0.0 sec)
# of grid points (after weights+screening)   ...  16266 (   0.0 sec)
nearest neighbour list constructed           ...    0.0 sec
Grid point re-assignment to atoms done       ...    0.0 sec
Grid point division into batches done        ...    0.1 sec
Reduced shell lists constructed in    0.1 sec

Total number of grid points                  ...    16266
Total number of batches                      ...      255
Average number of points per batch           ...       63
Average number of grid points per atom       ...     8133
Average number of shells per batch           ...    14.42 (35.16%)
Average number of basis functions per batch  ...    33.08 (23.14%)
Average number of large shells per batch     ...     7.33 (50.87%)
Average number of large basis fcns per batch ...    17.83 (53.90%)
Maximum spatial batch extension              ...  23.02, 23.02, 16.62 au
Average spatial batch extension              ...   0.80,  0.79,  0.61 au

Time for grid setup =    0.156 sec

------------------------------
INITIAL GUESS: MODEL POTENTIAL
------------------------------
Loading Hartree-Fock densities                     ... done
Calculating cut-offs                               ... done
Setting up the integral package                    ... done
Initializing the effective Hamiltonian             ... done
Starting the Coulomb interaction                   ... done (   0.0 sec)
Reading the grid                                   ... done
Mapping shells                                     ... done
Starting the XC term evaluation                    ... done (   0.0 sec)
  promolecular density results
     # of electrons  =     46.000018247
     EX              =    -70.827630148
     EC              =     -2.688121625
     EX+EC           =    -73.515751774
Transforming the Hamiltonian                       ... done (   0.0 sec)
Diagonalizing the Hamiltonian                      ... done (   0.0 sec)
Back transforming the eigenvectors                 ... done (   0.0 sec)
Now organizing SCF variables                       ... done
                      ------------------
                      INITIAL GUESS DONE (   0.3 sec)
                      ------------------
--------------
SCF ITERATIONS
--------------
ITER       Energy         Delta-E        Max-DP      RMS-DP      [F,P]     Damp
               ***  Starting incremental Fock matrix formation  ***
  0  -2097.8356634306   0.000000000000 0.37787925  0.00735268  1.6857228 0.7000
  1  -2099.3554406404  -1.519777209766 0.30454247  0.00349738  0.4828558 0.7000
  2  -2099.8074276744  -0.451987034069 0.21436662  0.00283385  0.3677240 0.7000
  3  -2100.0885151940  -0.281087519601 0.12921508  0.00196886  0.3188796 0.7000
  4  -2100.2920715681  -0.203556374116 0.08207658  0.00130716  0.2061713 0.7000
                               ***Turning on DIIS***
  5  -2100.4357658146  -0.143694246456 0.05769183  0.00093245  0.1308275 0.7000
  6  -2100.5375903181  -0.101824503499 0.14571833  0.00265978  0.0874501 0.0000
  7  -2100.7836457460  -0.246055427932 0.02766167  0.00070580  0.0195561 0.0000
  8  -2100.7851249965  -0.001479250475 0.01057275  0.00020396  0.0335593 0.0000
  9  -2100.7863672152  -0.001242218685 0.01737899  0.00025503  0.0134875 0.0000
 10  -2100.7870309540  -0.000663738801 0.01922571  0.00025153  0.0086875 0.0000
 11  -2100.7874797625  -0.000448808468 0.01719941  0.00020006  0.0068374 0.0000
 12  -2100.7876961963  -0.000216433845 0.01086736  0.00012463  0.0042665 0.0000
 13  -2100.7877745365  -0.000078340220 0.00698184  0.00007967  0.0023429 0.0000
 14  -2100.7878000202  -0.000025483683 0.00343058  0.00004039  0.0010881 0.0000
 15  -2100.7878061349  -0.000006114714 0.00286405  0.00003467  0.0005569 0.0000
 16  -2100.7878077258  -0.000001590861 0.00063809  0.00000675  0.0001473 0.0000
 17  -2100.7878077998  -0.000000074023 0.00011906  0.00000131  0.0000491 0.0000
                 **** Energy Check signals convergence ****

               *****************************************************
               *                     SUCCESS                       *
               *           SCF CONVERGED AFTER  18 CYCLES          *
               *****************************************************


Setting up the DFT-NL grid :

General Integration Accuracy     IntAcc      ...  4.340
Radial Grid Type                 RadialGrid  ... Gauss-Chebyshev
Angular Grid (max. acc.)         AngularGrid ... Lebedev-110
Angular grid pruning method      GridPruning ... 3 (G Style)
Weight generation scheme         WeightScheme... Becke
Basis function cutoff            BFCut       ...    1.0000e-10
Integration weight cutoff        WCut        ...    1.0000e-14
Grids for H and He will be reduced by one unit

# of grid points (after initial pruning)     ...   4756 (   0.0 sec)
# of grid points (after weights+screening)   ...   4732 (   0.0 sec)
nearest neighbour list constructed           ...    0.0 sec
Grid point re-assignment to atoms done       ...    0.0 sec
Grid point division into batches done        ...    0.0 sec
Reduced shell lists constructed in    0.0 sec

Total number of grid points                  ...     4732
Total number of batches                      ...       75
Average number of points per batch           ...       63
Average number of grid points per atom       ...     2366
Average number of shells per batch           ...    20.80 (50.73%)
Average number of basis functions per batch  ...    59.20 (41.40%)
Average number of large shells per batch     ...    14.40 (69.23%)
Average number of large basis fcns per batch ...    35.20 (59.46%)
Maximum spatial batch extension              ...  17.39, 26.34, 14.89 au
Average spatial batch extension              ...   0.85,  1.17,  0.79 au

Final grid set up in    0.0 sec

-------------------------------------------------------------------------------
                         DFT-NL dispersion correction                          
-------------------------------------------------------------------------------

SC Energy -2100.787807803 
NL    Energy 0.193693831 
SC+NL Energy -2100.594113972 
NL done in    0.0 sec
-------------------------------------------------------------------------------

----------------
TOTAL SCF ENERGY
----------------

Total Energy       :        -2100.59411397 Eh          -57160.07180 eV

Components:
Nuclear Repulsion  :          126.08089026 Eh            3430.83544 eV
Electronic Energy  :        -2226.67500423 Eh          -60590.90725 eV
One Electron Energy:        -3175.24010565 Eh          -86402.67590 eV
Two Electron Energy:          948.56510141 Eh           25811.76865 eV

Virial components:
Potential Energy   :        -4198.10851640 Eh         -114236.34039 eV
Kinetic Energy     :         2097.51440242 Eh           57076.26859 eV
Virial Ratio       :            2.00146827


DFT components:
N(Alpha)           :       23.000004791603 electrons
N(Beta)            :       23.000004791603 electrons
N(Total)           :       46.000009583207 electrons
E(X)               :      -70.961365466218 Eh       
E(C)               :       -2.703502452884 Eh       
NL Energy, E(C,NL) :        0.193693831372 Eh       
E(XC)              :      -73.471174087729 Eh       
DFET-embed. en.    :        0.000000000000 Eh       

---------------
SCF CONVERGENCE
---------------

  Last Energy change         ...   -3.1482e-09  Tolerance :   1.0000e-06
  Last MAX-Density change    ...    6.2597e-05  Tolerance :   1.0000e-05
  Last RMS-Density change    ...    7.6053e-07  Tolerance :   1.0000e-06
  Last DIIS Error            ...    1.5398e-05  Tolerance :   1.0000e-06

             **** THE GBW FILE WAS UPDATED (51_CuCl.gbw) ****
             **** DENSITY FILE WAS UPDATED (51_CuCl.scfp) ****
             **** ENERGY FILE WAS UPDATED (51_CuCl.en.tmp) ****
             **** THE GBW FILE WAS UPDATED (51_CuCl.gbw) ****
             **** DENSITY FILE WAS UPDATED (51_CuCl.scfp) ****
----------------
ORBITAL ENERGIES
----------------

  NO   OCC          E(Eh)            E(eV) 
   0   2.0000    -322.876757     -8785.9232 
   1   2.0000    -101.492604     -2761.7542 
   2   2.0000     -38.858767     -1057.4008 
   3   2.0000     -34.054603      -926.6729 
   4   2.0000     -34.054603      -926.6729 
   5   2.0000     -34.054247      -926.6632 
   6   2.0000      -9.507896      -258.7230 
   7   2.0000      -7.260581      -197.5704 
   8   2.0000      -7.256511      -197.4597 
   9   2.0000      -7.256511      -197.4597 
  10   2.0000      -4.430459      -120.5589 
  11   2.0000      -2.927740       -79.6678 
  12   2.0000      -2.923781       -79.5601 
  13   2.0000      -2.923781       -79.5601 
  14   2.0000      -0.883191       -24.0328 
  15   2.0000      -0.466825       -12.7030 
  16   2.0000      -0.442419       -12.0388 
  17   2.0000      -0.442419       -12.0388 
  18   2.0000      -0.418717       -11.3939 
  19   2.0000      -0.418715       -11.3938 
  20   2.0000      -0.378070       -10.2878 
  21   2.0000      -0.366424        -9.9709 
  22   2.0000      -0.366424        -9.9709 
  23   0.0000      -0.041930        -1.1410 
  24   0.0000       0.025916         0.7052 
  25   0.0000       0.025916         0.7052 
  26   0.0000       0.029340         0.7984 
  27   0.0000       0.040643         1.1060 
  28   0.0000       0.083643         2.2760 
  29   0.0000       0.083643         2.2760 
  30   0.0000       0.122190         3.3250 
  31   0.0000       0.141332         3.8458 
  32   0.0000       0.150657         4.0996 
  33   0.0000       0.150658         4.0996 
  34   0.0000       0.179155         4.8751 
  35   0.0000       0.182293         4.9604 
  36   0.0000       0.182293         4.9604 
  37   0.0000       0.230505         6.2723 
  38   0.0000       0.230505         6.2723 
  39   0.0000       0.241566         6.5733 
  40   0.0000       0.281245         7.6531 
  41   0.0000       0.281245         7.6531 
  42   0.0000       0.311346         8.4722 
  43   0.0000       0.374140        10.1809 
  44   0.0000       0.374140        10.1809 
  45   0.0000       0.397048        10.8042 
  46   0.0000       0.460821        12.5396 
  47   0.0000       0.460821        12.5396 
  48   0.0000       0.475168        12.9300 
  49   0.0000       0.652600        17.7582 
  50   0.0000       0.652600        17.7582 
  51   0.0000       0.657212        17.8836 
  52   0.0000       0.657213        17.8837 
  53   0.0000       0.712637        19.3918 
  54   0.0000       0.733776        19.9671 
  55   0.0000       0.733776        19.9671 
  56   0.0000       0.813879        22.1468 
  57   0.0000       0.869870        23.6704 
  58   0.0000       0.886050        24.1106 
  59   0.0000       0.886051        24.1107 
  60   0.0000       0.909313        24.7437 
  61   0.0000       0.936581        25.4857 
  62   0.0000       0.936581        25.4857 
  63   0.0000       1.057263        28.7696 
  64   0.0000       1.057263        28.7696 
  65   0.0000       1.132054        30.8048 
  66   0.0000       1.132054        30.8048 
  67   0.0000       1.132693        30.8221 
  68   0.0000       1.132693        30.8222 
  69   0.0000       1.159456        31.5504 
  70   0.0000       1.296905        35.2906 
  71   0.0000       1.345911        36.6241 
  72   0.0000       1.345911        36.6241 
  73   0.0000       1.544233        42.0207 
  74   0.0000       1.544233        42.0207 
  75   0.0000       1.695009        46.1235 
  76   0.0000       1.695014        46.1237 
  77   0.0000       1.767449        48.0947 
  78   0.0000       1.955227        53.2044 
  79   0.0000       1.955227        53.2044 
  80   0.0000       2.087743        56.8104 
  81   0.0000       2.249793        61.2200 
  82   0.0000       2.249798        61.2201 
  83   0.0000       2.278232        61.9938 
  84   0.0000       2.278232        61.9938 
  85   0.0000       2.289633        62.3041 
  86   0.0000       2.371735        64.5382 
  87   0.0000       2.371781        64.5395 
  88   0.0000       2.475336        67.3573 
  89   0.0000       2.475336        67.3573 
  90   0.0000       2.582557        70.2749 
  91   0.0000       2.622056        71.3498 
  92   0.0000       2.622056        71.3498 
  93   0.0000       2.888006        78.5866 
  94   0.0000       2.888006        78.5866 
  95   0.0000       2.920195        79.4625 
  96   0.0000       2.920200        79.4627 
  97   0.0000       2.976326        80.9900 
  98   0.0000       3.013927        82.0131 
  99   0.0000       3.013927        82.0131 
 100   0.0000       3.358040        91.3769 
 101   0.0000       4.012847       109.1951 
 102   0.0000       4.379684       119.1773 
 103   0.0000       4.379684       119.1773 
 104   0.0000       4.466058       121.5276 
 105   0.0000       4.466058       121.5276 
 106   0.0000       4.520999       123.0226 
 107   0.0000       4.521014       123.0231 
 108   0.0000       4.677831       127.2903 
 109   0.0000       4.688369       127.5770 
 110   0.0000       4.688369       127.5770 
 111   0.0000       5.047938       137.3614 
 112   0.0000       6.047673       164.5656 
 113   0.0000       6.165165       167.7627 
 114   0.0000       6.165165       167.7627 
 115   0.0000       6.167173       167.8173 
 116   0.0000       6.167354       167.8222 
 117   0.0000       6.175325       168.0391 
 118   0.0000       6.175328       168.0392 
 119   0.0000       6.240292       169.8070 
 120   0.0000       6.240292       169.8070 
 121   0.0000       6.412020       174.4799 
 122   0.0000       8.032190       218.5670 
 123   0.0000       8.032219       218.5678 
 124   0.0000       8.094664       220.2670 
 125   0.0000       8.094664       220.2670 
 126   0.0000       8.577756       233.4126 
 127   0.0000      14.127266       384.4225 
 128   0.0000      14.127266       384.4225 
 129   0.0000      14.155560       385.1924 
 130   0.0000      14.155660       385.1951 
 131   0.0000      14.245603       387.6426 
 132   0.0000      14.245603       387.6426 
 133   0.0000      14.300059       389.1244 
 134   0.0000      16.603912       451.8154 
 135   0.0000      16.603912       451.8154 
 136   0.0000      16.604759       451.8385 
 137   0.0000      16.604780       451.8390 
 138   0.0000      16.608996       451.9538 
 139   0.0000      16.609363       451.9638 
 140   0.0000      16.638811       452.7651 
 141   0.0000      16.638811       452.7651 
 142   0.0000      16.693525       454.2539 

                    ********************************
                    * MULLIKEN POPULATION ANALYSIS *
                    ********************************

-----------------------
MULLIKEN ATOMIC CHARGES
-----------------------
   0 Cu:    0.569334
   1 Cl:   -0.569334
Sum of atomic charges:   -0.0000000

--------------------------------
MULLIKEN REDUCED ORBITAL CHARGES
--------------------------------
  0 Cus       :     6.354158  s :     6.354158
      pz      :     4.072775  p :    12.162815
      px      :     4.045020
      py      :     4.045020
      dz2     :     1.916543  d :     9.906856
      dxz     :     1.995930
      dyz     :     1.995930
      dx2y2   :     1.999227
      dxy     :     1.999227
      f0      :     0.002496  f :     0.006775
      f+1     :     0.002077
      f-1     :     0.002077
      f+2     :     0.000063
      f-2     :     0.000063
      f+3     :     0.000000
      f-3     :     0.000000
      g0      :     0.000027  g :     0.000061
      g+1     :     0.000016
      g-1     :     0.000016
      g+2     :     0.000000
      g-2     :     0.000000
      g+3     :     0.000000
      g-3     :     0.000000
      g+4     :     0.000000
      g-4     :     0.000000
  1 Cls       :     5.981477  s :     5.981477
      pz      :     3.662595  p :    11.559885
      px      :     3.948645
      py      :     3.948645
      dz2     :     0.009440  d :     0.024505
      dxz     :     0.007065
      dyz     :     0.007065
      dx2y2   :     0.000467
      dxy     :     0.000467
      f0      :     0.000489  f :     0.003468
      f+1     :     0.001247
      f-1     :     0.001247
      f+2     :     0.000243
      f-2     :     0.000243
      f+3     :     0.000000
      f-3     :     0.000000


                     *******************************
                     * LOEWDIN POPULATION ANALYSIS *
                     *******************************

----------------------
LOEWDIN ATOMIC CHARGES
----------------------
   0 Cu:    0.059112
   1 Cl:   -0.059112

-------------------------------
LOEWDIN REDUCED ORBITAL CHARGES
-------------------------------
  0 Cus       :     6.350015  s :     6.350015
      pz      :     4.233175  p :    12.410397
      px      :     4.088611
      py      :     4.088611
      dz2     :     2.043099  d :    10.132091
      dxz     :     2.048918
      dyz     :     2.048918
      dx2y2   :     1.995578
      dxy     :     1.995578
      f0      :     0.022259  f :     0.048016
      f+1     :     0.012768
      f-1     :     0.012768
      f+2     :     0.000110
      f-2     :     0.000110
      f+3     :     0.000000
      f-3     :     0.000000
      g0      :     0.000201  g :     0.000369
      g+1     :     0.000084
      g-1     :     0.000084
      g+2     :     0.000000
      g-2     :     0.000000
      g+3     :     0.000000
      g-3     :     0.000000
      g+4     :     0.000000
      g-4     :     0.000000
  1 Cls       :     5.619385  s :     5.619385
      pz      :     3.603412  p :    11.209987
      px      :     3.803287
      py      :     3.803287
      dz2     :     0.086075  d :     0.139449
      dxz     :     0.024657
      dyz     :     0.024657
      dx2y2   :     0.002030
      dxy     :     0.002030
      f0      :     0.042380  f :     0.090292
      f+1     :     0.021674
      f-1     :     0.021674
      f+2     :     0.002282
      f-2     :     0.002282
      f+3     :     0.000000
      f-3     :     0.000000


                      *****************************
                      * MAYER POPULATION ANALYSIS *
                      *****************************

  NA   - Mulliken gross atomic population
  ZA   - Total nuclear charge
  QA   - Mulliken gross atomic charge
  VA   - Mayer's total valence
  BVA  - Mayer's bonded valence
  FA   - Mayer's free valence

  ATOM       NA         ZA         QA         VA         BVA        FA
  0 Cu    28.4307    29.0000     0.5693     0.8949     0.8949    -0.0000
  1 Cl    17.5693    17.0000    -0.5693     0.8949     0.8949    -0.0000

  Mayer bond orders larger than 0.100000
B(  0-Cu,  1-Cl) :   0.8949 

-------
TIMINGS
-------

Total SCF time: 0 days 0 hours 5 min 3 sec 

Total time                  ....     303.802 sec
Sum of individual times     ....     303.494 sec  ( 99.9%)

Fock matrix formation       ....     303.135 sec  ( 99.8%)
  XC integration            ....       0.334 sec  (  0.1% of F)
    Basis function eval.    ....       0.093 sec  ( 28.0% of XC)
    Density eval.           ....       0.032 sec  (  9.4% of XC)
    XC-Functional eval.     ....       0.021 sec  (  6.2% of XC)
    XC-Potential eval.      ....       0.059 sec  ( 17.8% of XC)
Diagonalization             ....       0.053 sec  (  0.0%)
Density matrix formation    ....       0.007 sec  (  0.0%)
Population analysis         ....       0.003 sec  (  0.0%)
Initial guess               ....       0.099 sec  (  0.0%)
Orbital Transformation      ....       0.000 sec  (  0.0%)
Orbital Orthonormalization  ....       0.000 sec  (  0.0%)
DIIS solution               ....       0.022 sec  (  0.0%)
Grid generation             ....       0.175 sec  (  0.1%)

-------------------------   --------------------
FINAL SINGLE POINT ENERGY     -2100.594113971580
-------------------------   --------------------


                            ***************************************
                            *     ORCA property calculations      *
                            ***************************************

                                    ---------------------
                                    Active property flags
                                    ---------------------
   (+) Dipole Moment


------------------------------------------------------------------------------
                       ORCA ELECTRIC PROPERTIES CALCULATION
------------------------------------------------------------------------------

Dipole Moment Calculation                       ... on
Quadrupole Moment Calculation                   ... off
Polarizability Calculation                      ... off
GBWName                                         ... 51_CuCl.gbw
Electron density file                           ... 51_CuCl.scfp
The origin for moment calculation is the CENTER OF MASS  = ( 0.000000,  0.000000  1.334871)

-------------
DIPOLE MOMENT
-------------
                                X             Y             Z
Electronic contribution:     -0.00000       0.00000      -4.21364
Nuclear contribution   :      0.00000       0.00000       2.06219
                        -----------------------------------------
Total Dipole Moment    :     -0.00000       0.00000      -2.15146
                        -----------------------------------------
Magnitude (a.u.)       :      2.15146
Magnitude (Debye)      :      5.46857



--------------------
Rotational spectrum 
--------------------
 
Rotational constants in cm-1:     0.000000     0.173013     0.173013 
Rotational constants in MHz :     0.000000  5186.804112  5186.804112 

 Dipole components along the rotational axes: 
x,y,z [a.u.] :    -2.151458     0.000000    -0.000000 
x,y,z [Debye]:    -5.468571     0.000000    -0.000000 

 

Timings for individual modules:

Sum of individual times         ...      307.530 sec (=   5.125 min)
GTO integral calculation        ...        3.307 sec (=   0.055 min)   1.1 %
SCF iterations                  ...      304.222 sec (=   5.070 min)  98.9 %
                             ****ORCA TERMINATED NORMALLY****
TOTAL RUN TIME: 0 days 0 hours 5 minutes 8 seconds 162 msec
