
                                 *****************
                                 * O   R   C   A *
                                 *****************

           --- An Ab Initio, DFT and Semiempirical electronic structure package ---

                  #######################################################
                  #                        -***-                        #
                  #          Department of theory and spectroscopy      #
                  #               Directorship: Frank Neese             #
                  #        Max Planck Institute fuer Kohlenforschung    #
                  #                Kaiser Wilhelm Platz 1               #
                  #                 D-45470 Muelheim/Ruhr               #
                  #                      Germany                        #
                  #                                                     #
                  #                  All rights reserved                #
                  #                        -***-                        #
                  #######################################################


                         Program Version 4.2.0 -  RELEASE  -


 With contributions from (in alphabetic order):
   Daniel Aravena         : Magnetic Suceptibility
   Michael Atanasov       : Ab Initio Ligand Field Theory (pilot matlab implementation)
   Alexander A. Auer      : GIAO ZORA, VPT2
   Ute Becker             : Parallelization
   Giovanni Bistoni       : ED, misc. LED, open-shell LED, HFLED
   Martin Brehm           : Molecular dynamics
   Dmytro Bykov           : SCF Hessian
   Vijay G. Chilkuri      : MRCI spin determinant printing, contributions to CSF-ICE
   Dipayan Datta          : RHF DLPNO-CCSD density
   Achintya Kumar Dutta   : EOM-CC, STEOM-CC
   Dmitry Ganyushin       : Spin-Orbit,Spin-Spin,Magnetic field MRCI
   Miquel Garcia          : C-PCM Hessian, Gaussian charge scheme
   Yang Guo               : DLPNO-NEVPT2, CIM, IAO-localization
   Andreas Hansen         : Spin unrestricted coupled pair/coupled cluster methods
   Benjamin Helmich-Paris : CASSCF linear response (MC-RPA)
   Lee Huntington         : MR-EOM, pCC
   Robert Izsak           : Overlap fitted RIJCOSX, COSX-SCS-MP3, EOM
   Christian Kollmar      : KDIIS, OOCD, Brueckner-CCSD(T), CCSD density
   Simone Kossmann        : Meta GGA functionals, TD-DFT gradient, OOMP2, MP2 Hessian
   Martin Krupicka        : AUTO-CI
   Lucas Lang             : DCDCAS
   Dagmar Lenk            : GEPOL surface, SMD
   Dimitrios Liakos       : Extrapolation schemes; Compound Job, initial MDCI parallelization
   Dimitrios Manganas     : Further ROCIS development; embedding schemes
   Dimitrios Pantazis     : SARC Basis sets
   Taras Petrenko         : DFT Hessian,TD-DFT gradient, ASA, ECA, R-Raman, ABS, FL, XAS/XES, NRVS
   Peter Pinski           : DLPNO-MP2, DLPNO-MP2 Gradient
   Christoph Reimann      : Effective Core Potentials
   Marius Retegan         : Local ZFS, SOC
   Christoph Riplinger    : Optimizer, TS searches, QM/MM, DLPNO-CCSD(T), (RO)-DLPNO pert. Triples
   Tobias Risthaus        : Range-separated hybrids, TD-DFT gradient, RPA, STAB
   Michael Roemelt        : Original ROCIS implementation
   Masaaki Saitow         : Open-shell DLPNO-CCSD energy and density
   Barbara Sandhoefer     : DKH picture change effects
   Avijit Sen             : IP-ROCIS
   Kantharuban Sivalingam : CASSCF convergence, NEVPT2, FIC-MRCI
   Bernardo de Souza      : ESD, SOC TD-DFT
   Georgi Stoychev        : AutoAux, RI-MP2 NMR
   Willem Van den Heuvel  : Paramagnetic NMR
   Boris Wezisla          : Elementary symmetry handling
   Frank Wennmohs         : Technical directorship


 We gratefully acknowledge several colleagues who have allowed us to
 interface, adapt or use parts of their codes:
   Stefan Grimme, W. Hujo, H. Kruse,             : VdW corrections, initial TS optimization,
                  C. Bannwarth                     DFT functionals, gCP, sTDA/sTD-DF
   Ed Valeev, F. Pavosevic, A. Kumar             : LibInt (2-el integral package), F12 methods
   Garnet Chan, S. Sharma, J. Yang, R. Olivares  : DMRG
   Ulf Ekstrom                                   : XCFun DFT Library
   Mihaly Kallay                                 : mrcc  (arbitrary order and MRCC methods)
   Andreas Klamt, Michael Diedenhofen            : otool_cosmo (COSMO solvation model)
   Jiri Pittner, Ondrej Demel                    : Mk-CCSD
   Frank Weinhold                                : gennbo (NPA and NBO analysis)
   Christopher J. Cramer and Donald G. Truhlar   : smd solvation model
   Lars Goerigk                                  : TD-DFT with DH, B97 family of functionals
   V. Asgeirsson, H. Jonsson                     : NEB implementation
   FAccTs GmbH                                   : IRC, NEB, NEB-TS, Multilevel, MM, QM/MM, CI optimization
   S Lehtola, MJT Oliveira, MAL Marques          : LibXC Library


 Your calculation uses the libint2 library for the computation of 2-el integrals
 For citations please refer to: http://libint.valeyev.net

 Your ORCA version has been built with support for libXC version: 4.2.3
 For citations please refer to: https://tddft.org/programs/libxc/

 This ORCA versions uses:
   CBLAS   interface :  Fast vector & matrix operations
   LAPACKE interface :  Fast linear algebra routines
   SCALAPACK package :  Parallel linear algebra routines


Your calculation utilizes the DFT-NL dispersion correction.
Cite in your paper:
Vydrov, O. A.; Van Voorhis, T. J. Chem. Phys. 2010, 133, 244103
Hujo, W.; Grimme, S. J. Chem. Theory Comput. 2011, 7, 3866 
   

----- Orbital basis set information -----
Your calculation utilizes the basis: aug-cc-pVTZ 
    H, B-Ne : Obtained from the ccRepo (grant-hill.group.shef.ac.uk/ccrepo) Feb. 2017
              R. A. Kendall, T. H. Dunning, Jr., R. J. Harrison, J. Chem. Phys. 96, 6796 (1992)
         He : Obtained from the ccRepo (grant-hill.group.shef.ac.uk/ccrepo) Feb. 2017
              D. E. Woon, T. H. Dunning, Jr., J. Chem. Phys. 100, 2975 (1994)
  Li-Be, Na : Obtained from the ccRepo (grant-hill.group.shef.ac.uk/ccrepo) Feb. 2017
              B. P. Prascher, D. E. Woon, K. A. Peterson, T. H. Dunning, Jr., A. K. Wilson, Theor. Chem. Acc. 128, 69 (2011)
         Mg : Obtained from the Peterson Research Group Website (tyr0.chem.wsu.edu/~kipeters) Feb. 2017
              B. P. Prascher, D. E. Woon, K. A. Peterson, T. H. Dunning, Jr., A. K. Wilson, Theor. Chem. Acc. 128, 69 (2011)
      Al-Ar : Obtained from the ccRepo (grant-hill.group.shef.ac.uk/ccrepo) Feb. 2017
              D. E. Woon, T. H. Dunning, Jr., J. Chem. Phys. 98, 1358 (1993)
      Sc-Zn : Obtained from the ccRepo (grant-hill.group.shef.ac.uk/ccrepo) Feb. 2017
              N. B. Balabanov, K. A. Peterson, J. Chem. Phys. 123, 064107 (2005)
              N. B. Balabanov, K. A. Peterson, J. Chem. Phys. 125, 074110 (2006)
      Ga-Kr : Obtained from the ccRepo (grant-hill.group.shef.ac.uk/ccrepo) Feb. 2017
              A. K. Wilson, D. E. Woon, K. A. Peterson, T. H. Dunning, Jr., J. Chem. Phys. 110, 7667 (1999)
     Ag, Au : Obtained from the Peterson Research Group Website (tyr0.chem.wsu.edu/~kipeters) Feb. 2017
              K. A. Peterson, C. Puzzarini, Theor. Chem. Acc. 114, 283 (2005)

----- AuxJK basis set information -----
Your calculation utilizes the auxiliary basis: def2/JK
   H-Ba, Hf-Rn: F. Weigend, J. Comput. Chem. 29, 167 (2008).

================================================================================
                                        WARNINGS
                       Please study these warnings very carefully!
================================================================================


WARNING: your system is open-shell and RHF/RKS was chosen
  ===> : WILL SWITCH to UHF/UKS


INFO   : the flag for use of LIBINT has been found!

================================================================================
                                       INPUT FILE
================================================================================
NAME = 53_CuO.in
|  1> #
|  2> # 53_CuO wb97x-v/aug-cc-pvtz
|  3> #
|  4> ! wb97x-v aug-cc-pvtz def2/jk grid4 nofinalgrid
|  5> 
|  6> *xyz 0 2
|  7>   Cu  0.00000000000000      0.00000000000000      0.13870993735929
|  8>   O   0.00000000000000      0.00000000000000      1.86129006264071
|  9> *
| 10> 
| 11> %pal
| 12> nprocs 24
| 13> end
| 14> 
| 15> 
| 16>                          ****END OF INPUT****
================================================================================

                       ****************************
                       * Single Point Calculation *
                       ****************************

---------------------------------
CARTESIAN COORDINATES (ANGSTROEM)
---------------------------------
  Cu     0.000000    0.000000    0.138710
  O      0.000000    0.000000    1.861290

----------------------------
CARTESIAN COORDINATES (A.U.)
----------------------------
  NO LB      ZA    FRAG     MASS         X           Y           Z
   0 Cu   29.0000    0    63.550    0.000000    0.000000    0.262124
   1 O     8.0000    0    15.999    0.000000    0.000000    3.517328

--------------------------------
INTERNAL COORDINATES (ANGSTROEM)
--------------------------------
 Cu     0   0   0     0.000000000000     0.00000000     0.00000000
 O      1   0   0     1.722580125281     0.00000000     0.00000000

---------------------------
INTERNAL COORDINATES (A.U.)
---------------------------
 Cu     0   0   0     0.000000000000     0.00000000     0.00000000
 O      1   0   0     3.255204680518     0.00000000     0.00000000

---------------------
BASIS SET INFORMATION
---------------------
There are 2 groups of distinct atoms

 Group   1 Type Cu  : 116s77p23d3f2g contracted to 8s7p5d3f2g pattern {19191919191911/151515151511/77711/111/11}
 Group   2 Type O   : 19s6p3d2f contracted to 5s4p3d2f pattern {88111/3111/111/11}

Atom   0Cu   basis set group =>   1
Atom   1O    basis set group =>   2
----------------------------------
AUXILIARY/JK BASIS SET INFORMATION
----------------------------------
There are 2 groups of distinct atoms

 Group   1 Type Cu  : 19s14p12d10f7g3h1i contracted to 16s13p11d9f5g3h1i pattern {4111111111111111/2111111111111/21111111111/211111111/31111/111/1}
 Group   2 Type O   : 14s10p6d2f1g contracted to 10s8p4d2f1g pattern {5111111111/31111111/3111/11/1}

Atom   0Cu   basis set group =>   1
Atom   1O    basis set group =>   2


           ************************************************************
           *        Program running with 24 parallel MPI-processes    *
           *              working on a common directory               *
           ************************************************************
------------------------------------------------------------------------------
                           ORCA GTO INTEGRAL CALCULATION
------------------------------------------------------------------------------

                         BASIS SET STATISTICS AND STARTUP INFO

 # of primitive gaussian shells          ...  251
 # of primitive gaussian functions       ...  567
 # of contracted shells                  ...   39
 # of contracted basis functions         ...  139
 Highest angular momentum                ...    4
 Maximum contraction depth               ...   19
 Integral package used                   ... LIBINT
 Integral threshhold            Thresh   ...  1.000e-10
 Primitive cut-off              TCut     ...  1.000e-11


------------------------------ INTEGRAL EVALUATION ----------------------------


 * One electron integrals 
 Pre-screening matrix                    ... done
 Shell pair data                         ... done (   0.001 sec)



           ************************************************************
           *        Program running with 24 parallel MPI-processes    *
           *              working on a common directory               *
           ************************************************************
-------------------------------------------------------------------------------
                                 ORCA SCF
-------------------------------------------------------------------------------

------------
SCF SETTINGS
------------
Hamiltonian:
 Density Functional     Method          .... DFT(GTOs)
 Exchange Functional    Exchange        .... WB97X-V
 Correlation Functional Correlation     .... WB97X-V
 Gradients option       PostSCFGGA      .... off
 Hybrid DFT is turned on
   Fraction HF Exchange ScalHFX         ....  0.167000
   Scaling of DF-GGA-X  ScalDFX         ....  0.000000
   Scaling of DF-GGA-C  ScalDFC         ....  1.000000
   Scaling of DF-LDA-C  ScalLDAC        ....  1.000000
   Perturbative correction              ....  0.000000
   Density functional embedding theory  .... OFF
 Long-range corrected/Screened/Range-Separated Hybrid DFT is turned on
   Amount of maximum screened exact exchange              ....  0.833000
   Range separation parameter mu (erf(mu*r12)/r12)        ....  0.300000
   NL short-range parameter             ....  6.000000
   NL long-range parameter              ....  0.010000


General Settings:
 Integral files         IntName         .... 53_CuO
 Hartree-Fock type      HFTyp           .... UHF
 Total Charge           Charge          ....    0
 Multiplicity           Mult            ....    2
 Number of Electrons    NEL             ....   37
 Basis Dimension        Dim             ....  139
 Nuclear Repulsion      ENuc            ....     71.2704799758 Eh

Convergence Acceleration:
 DIIS                   CNVDIIS         .... on
   Start iteration      DIISMaxIt       ....    12
   Startup error        DIISStart       ....  0.200000
   # of expansion vecs  DIISMaxEq       ....     5
   Bias factor          DIISBfac        ....   1.050
   Max. coefficient     DIISMaxC        ....  10.000
 Newton-Raphson         CNVNR           .... off
 SOSCF                  CNVSOSCF        .... off
 Level Shifting         CNVShift        .... on
   Level shift para.    LevelShift      ....    0.2500
   Turn off err/grad.   ShiftErr        ....    0.0010
 Zerner damping         CNVZerner       .... off
 Static damping         CNVDamp         .... on
   Fraction old density DampFac         ....    0.7000
   Max. Damping (<1)    DampMax         ....    0.9800
   Min. Damping (>=0)   DampMin         ....    0.0000
   Turn off err/grad.   DampErr         ....    0.1000
 Fernandez-Rico         CNVRico         .... off

SCF Procedure:
 Maximum # iterations   MaxIter         ....   125
 SCF integral mode      SCFMode         .... Direct
   Integral package                     .... LIBINT
 Reset frequency        DirectResetFreq ....    20
 Integral Threshold     Thresh          ....  1.000e-10 Eh
 Primitive CutOff       TCut            ....  1.000e-11 Eh

Convergence Tolerance:
 Convergence Check Mode ConvCheckMode   .... Total+1el-Energy
 Convergence forced     ConvForced      .... 0
 Energy Change          TolE            ....  1.000e-06 Eh
 1-El. energy change                    ....  1.000e-03 Eh
 DIIS Error             TolErr          ....  1.000e-06


Diagonalization of the overlap matrix:
Smallest eigenvalue                        ... 3.564e-04
Time for diagonalization                   ...    0.006 sec
Threshold for overlap eigenvalues          ... 1.000e-08
Number of eigenvalues below threshold      ... 0
Time for construction of square roots      ...    0.002 sec
Total time needed                          ...    0.008 sec

-------------------
DFT GRID GENERATION
-------------------

General Integration Accuracy     IntAcc      ...  4.670
Radial Grid Type                 RadialGrid  ... Gauss-Chebyshev
Angular Grid (max. acc.)         AngularGrid ... Lebedev-302
Angular grid pruning method      GridPruning ... 3 (G Style)
Weight generation scheme         WeightScheme... Becke
Basis function cutoff            BFCut       ...    1.0000e-10
Integration weight cutoff        WCut        ...    1.0000e-14
Grids for H and He will be reduced by one unit

# of grid points (after initial pruning)     ...  15768 (   0.0 sec)
# of grid points (after weights+screening)   ...  15731 (   0.0 sec)
nearest neighbour list constructed           ...    0.0 sec
Grid point re-assignment to atoms done       ...    0.0 sec
Grid point division into batches done        ...    0.1 sec
Reduced shell lists constructed in    0.1 sec

Total number of grid points                  ...    15731
Total number of batches                      ...      247
Average number of points per batch           ...       63
Average number of grid points per atom       ...     7866
Average number of shells per batch           ...    14.17 (36.32%)
Average number of basis functions per batch  ...    32.17 (23.14%)
Average number of large shells per batch     ...     7.75 (54.71%)
Average number of large basis fcns per batch ...    18.42 (57.25%)
Maximum spatial batch extension              ...  22.45, 22.17, 15.93 au
Average spatial batch extension              ...   0.81,  0.80,  0.61 au

Time for grid setup =    0.147 sec

------------------------------
INITIAL GUESS: MODEL POTENTIAL
------------------------------
Loading Hartree-Fock densities                     ... done
Calculating cut-offs                               ... done
Setting up the integral package                    ... done
Initializing the effective Hamiltonian             ... done
Starting the Coulomb interaction                   ... done (   0.0 sec)
Reading the grid                                   ... done
Mapping shells                                     ... done
Starting the XC term evaluation                    ... done (   0.0 sec)
  promolecular density results
     # of electrons  =     37.000019605
     EX              =    -56.010237729
     EC              =     -2.141366661
     EX+EC           =    -58.151604391
Transforming the Hamiltonian                       ... done (   0.0 sec)
Diagonalizing the Hamiltonian                      ... done (   0.0 sec)
Back transforming the eigenvectors                 ... done (   0.0 sec)
Now organizing SCF variables                       ... done
                      ------------------
                      INITIAL GUESS DONE (   0.2 sec)
                      ------------------
--------------
SCF ITERATIONS
--------------
ITER       Energy         Delta-E        Max-DP      RMS-DP      [F,P]     Damp
               ***  Starting incremental Fock matrix formation  ***
  0  -1709.5009201259   0.000000000000 0.48179746  0.00787197  2.5544746 0.7000
  1  -1712.6212532545  -3.120333128687 0.16968700  0.00273613  0.8353148 0.7000
  2  -1713.5946315216  -0.973378267049 0.11785472  0.00257334  0.4955688 0.7000
  3  -1714.2147036305  -0.620072108944 0.09461690  0.00187906  0.4399322 0.7000
  4  -1714.6478382526  -0.433134622064 0.06926063  0.00129962  0.2805058 0.7000
                               ***Turning on DIIS***
  5  -1714.9503903453  -0.302552092724 0.04959700  0.00094270  0.1710600 0.7000
  6  -1715.1656938938  -0.215303548457 0.03560128  0.00078070  0.1163886 0.7000
  7  -1715.3190318567  -0.153337962921 0.08428196  0.00204100  0.0860481 0.0000
  8  -1715.6893541087  -0.370322251987 0.01761987  0.00016817  0.0174291 0.0000
  9  -1715.6903855694  -0.001031460737 0.00681862  0.00010666  0.0301356 0.0000
 10  -1715.6915688872  -0.001183317816 0.01448358  0.00013665  0.0089869 0.0000
 11  -1715.6923762222  -0.000807334997 0.01517203  0.00014046  0.0068006 0.0000
 12  -1715.6929009600  -0.000524737796 0.00868106  0.00007867  0.0041008 0.0000
 13  -1715.6930738248  -0.000172864806 0.00560146  0.00005207  0.0024602 0.0000
 14  -1715.6931418880  -0.000068063158 0.00254398  0.00002538  0.0015014 0.0000
 15  -1715.6931617066  -0.000019818633 0.00170529  0.00001794  0.0012873 0.0000
 16  -1715.6931701948  -0.000008488216 0.00120841  0.00001732  0.0005331 0.0000
 17  -1715.6931750173  -0.000004822425 0.00052356  0.00000682  0.0001627 0.0000
 18  -1715.6931763660  -0.000001348722 0.00037497  0.00000528  0.0000442 0.0000
                 **** Energy Check signals convergence ****

               *****************************************************
               *                     SUCCESS                       *
               *           SCF CONVERGED AFTER  19 CYCLES          *
               *****************************************************


Setting up the DFT-NL grid :

General Integration Accuracy     IntAcc      ...  4.340
Radial Grid Type                 RadialGrid  ... Gauss-Chebyshev
Angular Grid (max. acc.)         AngularGrid ... Lebedev-110
Angular grid pruning method      GridPruning ... 3 (G Style)
Weight generation scheme         WeightScheme... Becke
Basis function cutoff            BFCut       ...    1.0000e-10
Integration weight cutoff        WCut        ...    1.0000e-14
Grids for H and He will be reduced by one unit

# of grid points (after initial pruning)     ...   4628 (   0.0 sec)
# of grid points (after weights+screening)   ...   4603 (   0.0 sec)
nearest neighbour list constructed           ...    0.0 sec
Grid point re-assignment to atoms done       ...    0.0 sec
Grid point division into batches done        ...    0.0 sec
Reduced shell lists constructed in    0.0 sec

Total number of grid points                  ...     4603
Total number of batches                      ...       72
Average number of points per batch           ...       63
Average number of grid points per atom       ...     2302
Average number of shells per batch           ...    20.25 (51.92%)
Average number of basis functions per batch  ...    60.75 (43.71%)
Average number of large shells per batch     ...    13.50 (66.67%)
Average number of large basis fcns per batch ...    34.50 (56.79%)
Maximum spatial batch extension              ...  17.92, 26.34, 14.62 au
Average spatial batch extension              ...   0.72,  0.98,  0.61 au

Final grid set up in    0.0 sec

-------------------------------------------------------------------------------
                         DFT-NL dispersion correction                          
-------------------------------------------------------------------------------

SC Energy -1715.693177175 
NL    Energy 0.156440214 
SC+NL Energy -1715.536736960 
NL done in    0.1 sec
-------------------------------------------------------------------------------

----------------
TOTAL SCF ENERGY
----------------

Total Energy       :        -1715.53673696 Eh          -46682.12789 eV

Components:
Nuclear Repulsion  :           71.27047998 Eh            1939.36836 eV
Electronic Energy  :        -1786.80721694 Eh          -48621.49624 eV
One Electron Energy:        -2532.98541647 Eh          -68926.03731 eV
Two Electron Energy:          746.17819954 Eh           20304.54107 eV

Virial components:
Potential Energy   :        -3428.88075390 Eh          -93304.58883 eV
Kinetic Energy     :         1713.34401694 Eh           46622.46094 eV
Virial Ratio       :            2.00127979


DFT components:
N(Alpha)           :       19.000008041458 electrons
N(Beta)            :       18.000008291326 electrons
N(Total)           :       37.000016332784 electrons
E(X)               :      -56.209375325576 Eh       
E(C)               :       -2.148440193102 Eh       
NL Energy, E(C,NL) :        0.156440214241 Eh       
E(XC)              :      -58.201375304437 Eh       
DFET-embed. en.    :        0.000000000000 Eh       

---------------
SCF CONVERGENCE
---------------

  Last Energy change         ...   -8.0867e-07  Tolerance :   1.0000e-06
  Last MAX-Density change    ...    2.5269e-04  Tolerance :   1.0000e-05
  Last RMS-Density change    ...    3.4361e-06  Tolerance :   1.0000e-06
  Last DIIS Error            ...    3.2254e-05  Tolerance :   1.0000e-06

             **** THE GBW FILE WAS UPDATED (53_CuO.gbw) ****
             **** DENSITY FILE WAS UPDATED (53_CuO.scfp) ****
             **** ENERGY FILE WAS UPDATED (53_CuO.en.tmp) ****
----------------------
UHF SPIN CONTAMINATION
----------------------

Warning: in a DFT calculation there is little theoretical justification to 
         calculate <S**2> as in Hartree-Fock theory. We will do it anyways
         but you should keep in mind that the values have only limited relevance

Expectation value of <S**2>     :     0.760466
Ideal value S*(S+1) for S=0.5   :     0.750000
Deviation                       :     0.010466

             **** THE GBW FILE WAS UPDATED (53_CuO.gbw) ****
             **** DENSITY FILE WAS UPDATED (53_CuO.scfp) ****
----------------
ORBITAL ENERGIES
----------------
                 SPIN UP ORBITALS
  NO   OCC          E(Eh)            E(eV) 
   0   1.0000    -322.885677     -8786.1660 
   1   1.0000     -38.874519     -1057.8294 
   2   1.0000     -34.070977      -927.1184 
   3   1.0000     -34.070795      -927.1135 
   4   1.0000     -34.066271      -926.9904 
   5   1.0000     -19.213187      -522.8174 
   6   1.0000      -4.444425      -120.9390 
   7   1.0000      -2.944760       -80.1310 
   8   1.0000      -2.939137       -79.9780 
   9   1.0000      -2.930764       -79.7502 
  10   1.0000      -1.026652       -27.9366 
  11   1.0000      -0.489531       -13.3208 
  12   1.0000      -0.480283       -13.0692 
  13   1.0000      -0.458859       -12.4862 
  14   1.0000      -0.425898       -11.5893 
  15   1.0000      -0.425868       -11.5885 
  16   1.0000      -0.399754       -10.8779 
  17   1.0000      -0.365928        -9.9574 
  18   1.0000      -0.361957        -9.8494 
  19   0.0000      -0.037011        -1.0071 
  20   0.0000       0.027216         0.7406 
  21   0.0000       0.029222         0.7952 
  22   0.0000       0.032027         0.8715 
  23   0.0000       0.041071         1.1176 
  24   0.0000       0.088621         2.4115 
  25   0.0000       0.091871         2.4999 
  26   0.0000       0.127436         3.4677 
  27   0.0000       0.183311         4.9881 
  28   0.0000       0.188882         5.1397 
  29   0.0000       0.188894         5.1401 
  30   0.0000       0.197676         5.3790 
  31   0.0000       0.204372         5.5612 
  32   0.0000       0.211937         5.7671 
  33   0.0000       0.253330         6.8934 
  34   0.0000       0.255792         6.9604 
  35   0.0000       0.256080         6.9683 
  36   0.0000       0.292487         7.9590 
  37   0.0000       0.296663         8.0726 
  38   0.0000       0.359537         9.7835 
  39   0.0000       0.519588        14.1387 
  40   0.0000       0.642753        17.4902 
  41   0.0000       0.642866        17.4933 
  42   0.0000       0.704638        19.1742 
  43   0.0000       0.705254        19.1909 
  44   0.0000       0.705358        19.1938 
  45   0.0000       0.713094        19.4043 
  46   0.0000       0.736116        20.0307 
  47   0.0000       0.765585        20.8326 
  48   0.0000       0.807027        21.9603 
  49   0.0000       0.820058        22.3149 
  50   0.0000       0.867693        23.6111 
  51   0.0000       0.989722        26.9317 
  52   0.0000       1.010343        27.4928 
  53   0.0000       1.074733        29.2450 
  54   0.0000       1.082689        29.4615 
  55   0.0000       1.158401        31.5217 
  56   0.0000       1.250757        34.0348 
  57   0.0000       1.529195        41.6115 
  58   0.0000       1.529195        41.6115 
  59   0.0000       1.553912        42.2841 
  60   0.0000       1.554014        42.2869 
  61   0.0000       1.747662        47.5563 
  62   0.0000       1.761945        47.9450 
  63   0.0000       1.895124        51.5690 
  64   0.0000       1.945056        52.9277 
  65   0.0000       1.995557        54.3019 
  66   0.0000       1.995604        54.3031 
  67   0.0000       2.043909        55.6176 
  68   0.0000       2.046680        55.6930 
  69   0.0000       2.109203        57.3943 
  70   0.0000       2.129214        57.9389 
  71   0.0000       2.135804        58.1182 
  72   0.0000       2.204542        59.9886 
  73   0.0000       2.204622        59.9908 
  74   0.0000       2.237309        60.8803 
  75   0.0000       2.264372        61.6167 
  76   0.0000       2.302693        62.6595 
  77   0.0000       2.302803        62.6625 
  78   0.0000       2.435817        66.2820 
  79   0.0000       2.918815        79.4250 
  80   0.0000       2.935980        79.8921 
  81   0.0000       3.505765        95.3967 
  82   0.0000       3.905760       106.2811 
  83   0.0000       3.947273       107.4108 
  84   0.0000       3.957294       107.6834 
  85   0.0000       4.303039       117.0917 
  86   0.0000       4.385063       119.3236 
  87   0.0000       4.392051       119.5138 
  88   0.0000       4.467865       121.5768 
  89   0.0000       4.467869       121.5769 
  90   0.0000       4.535741       123.4238 
  91   0.0000       4.535753       123.4241 
  92   0.0000       4.677792       127.2892 
  93   0.0000       4.683699       127.4499 
  94   0.0000       4.777358       129.9985 
  95   0.0000       5.077557       138.1674 
  96   0.0000       6.102040       166.0450 
  97   0.0000       6.119820       166.5288 
  98   0.0000       6.119920       166.5315 
  99   0.0000       6.127063       166.7259 
 100   0.0000       6.132769       166.8811 
 101   0.0000       6.171428       167.9331 
 102   0.0000       6.171436       167.9333 
 103   0.0000       6.186414       168.3409 
 104   0.0000       6.205768       168.8675 
 105   0.0000       6.217689       169.1919 
 106   0.0000       6.218939       169.2259 
 107   0.0000       6.348151       172.7420 
 108   0.0000       6.349464       172.7777 
 109   0.0000       6.443417       175.3343 
 110   0.0000       6.479921       176.3276 
 111   0.0000       6.645105       180.8225 
 112   0.0000       6.646142       180.8507 
 113   0.0000       6.804371       185.1563 
 114   0.0000       6.960057       189.3928 
 115   0.0000       6.995519       190.3577 
 116   0.0000       7.252785       197.3583 
 117   0.0000       8.026508       218.4124 
 118   0.0000       8.026516       218.4126 
 119   0.0000       8.270085       225.0404 
 120   0.0000       8.279346       225.2925 
 121   0.0000       9.143065       248.7955 
 122   0.0000      11.041842       300.4638 
 123   0.0000      14.117401       384.1540 
 124   0.0000      14.117401       384.1540 
 125   0.0000      14.151255       385.0752 
 126   0.0000      14.151364       385.0782 
 127   0.0000      14.233425       387.3112 
 128   0.0000      14.241554       387.5324 
 129   0.0000      14.303932       389.2298 
 130   0.0000      16.595774       451.5940 
 131   0.0000      16.595775       451.5940 
 132   0.0000      16.598289       451.6624 
 133   0.0000      16.598321       451.6633 
 134   0.0000      16.627272       452.4511 
 135   0.0000      16.627335       452.4528 
 136   0.0000      16.745412       455.6658 
 137   0.0000      16.752575       455.8607 
 138   0.0000      16.889970       459.5994 

                 SPIN DOWN ORBITALS
  NO   OCC          E(Eh)            E(eV) 
   0   1.0000    -322.885693     -8786.1664 
   1   1.0000     -38.871448     -1057.7459 
   2   1.0000     -34.067621      -927.0271 
   3   1.0000     -34.067568      -927.0256 
   4   1.0000     -34.065324      -926.9646 
   5   1.0000     -19.193847      -522.2911 
   6   1.0000      -4.438718      -120.7837 
   7   1.0000      -2.936263       -79.8998 
   8   1.0000      -2.931340       -79.7658 
   9   1.0000      -2.928414       -79.6862 
  10   1.0000      -0.955936       -26.0123 
  11   1.0000      -0.461138       -12.5482 
  12   1.0000      -0.450370       -12.2552 
  13   1.0000      -0.426241       -11.5986 
  14   1.0000      -0.422952       -11.5091 
  15   1.0000      -0.422916       -11.5081 
  16   1.0000      -0.351194        -9.5565 
  17   1.0000      -0.340584        -9.2678 
  18   0.0000      -0.033923        -0.9231 
  19   0.0000      -0.022793        -0.6202 
  20   0.0000       0.028975         0.7885 
  21   0.0000       0.032250         0.8776 
  22   0.0000       0.033942         0.9236 
  23   0.0000       0.041159         1.1200 
  24   0.0000       0.091734         2.4962 
  25   0.0000       0.098041         2.6678 
  26   0.0000       0.128979         3.5097 
  27   0.0000       0.184722         5.0266 
  28   0.0000       0.189095         5.1455 
  29   0.0000       0.189131         5.1465 
  30   0.0000       0.198224         5.3940 
  31   0.0000       0.214167         5.8278 
  32   0.0000       0.220273         5.9939 
  33   0.0000       0.254780         6.9329 
  34   0.0000       0.255452         6.9512 
  35   0.0000       0.256046         6.9674 
  36   0.0000       0.295378         8.0376 
  37   0.0000       0.295977         8.0540 
  38   0.0000       0.363864         9.9012 
  39   0.0000       0.523708        14.2508 
  40   0.0000       0.645942        17.5770 
  41   0.0000       0.646169        17.5831 
  42   0.0000       0.708711        19.2850 
  43   0.0000       0.709248        19.2996 
  44   0.0000       0.714241        19.4355 
  45   0.0000       0.715312        19.4646 
  46   0.0000       0.737599        20.0711 
  47   0.0000       0.768813        20.9205 
  48   0.0000       0.822189        22.3729 
  49   0.0000       0.822233        22.3741 
  50   0.0000       0.870020        23.6745 
  51   0.0000       1.017583        27.6899 
  52   0.0000       1.023516        27.8513 
  53   0.0000       1.079446        29.3732 
  54   0.0000       1.083144        29.4739 
  55   0.0000       1.164271        31.6814 
  56   0.0000       1.263792        34.3895 
  57   0.0000       1.528253        41.5859 
  58   0.0000       1.528279        41.5866 
  59   0.0000       1.554308        42.2949 
  60   0.0000       1.554325        42.2953 
  61   0.0000       1.758208        47.8433 
  62   0.0000       1.762743        47.9667 
  63   0.0000       1.908700        51.9384 
  64   0.0000       1.961517        53.3756 
  65   0.0000       2.007854        54.6365 
  66   0.0000       2.008719        54.6600 
  67   0.0000       2.085578        56.7515 
  68   0.0000       2.087810        56.8122 
  69   0.0000       2.115529        57.5665 
  70   0.0000       2.136952        58.1494 
  71   0.0000       2.137198        58.1561 
  72   0.0000       2.210168        60.1417 
  73   0.0000       2.210348        60.1466 
  74   0.0000       2.269057        61.7442 
  75   0.0000       2.270520        61.7840 
  76   0.0000       2.306865        62.7730 
  77   0.0000       2.306929        62.7747 
  78   0.0000       2.444478        66.5176 
  79   0.0000       2.932445        79.7959 
  80   0.0000       2.938033        79.9479 
  81   0.0000       3.526928        95.9726 
  82   0.0000       3.950791       107.5065 
  83   0.0000       3.981196       108.3338 
  84   0.0000       4.007405       109.0470 
  85   0.0000       4.318901       117.5233 
  86   0.0000       4.388576       119.4192 
  87   0.0000       4.392837       119.5352 
  88   0.0000       4.468727       121.6002 
  89   0.0000       4.468731       121.6003 
  90   0.0000       4.538947       123.5110 
  91   0.0000       4.538965       123.5115 
  92   0.0000       4.682100       127.4064 
  93   0.0000       4.684375       127.4683 
  94   0.0000       4.785758       130.2271 
  95   0.0000       5.083589       138.3315 
  96   0.0000       6.128301       166.7595 
  97   0.0000       6.143123       167.1629 
  98   0.0000       6.143135       167.1632 
  99   0.0000       6.144927       167.2120 
 100   0.0000       6.146044       167.2424 
 101   0.0000       6.171211       167.9272 
 102   0.0000       6.171219       167.9274 
 103   0.0000       6.214136       169.0952 
 104   0.0000       6.214376       169.1018 
 105   0.0000       6.252418       170.1369 
 106   0.0000       6.252468       170.1383 
 107   0.0000       6.373025       173.4188 
 108   0.0000       6.374706       173.4646 
 109   0.0000       6.490448       176.6141 
 110   0.0000       6.491983       176.6558 
 111   0.0000       6.725726       183.0163 
 112   0.0000       6.733428       183.2259 
 113   0.0000       6.826909       185.7697 
 114   0.0000       7.012205       190.8118 
 115   0.0000       7.020596       191.0401 
 116   0.0000       7.276835       198.0128 
 117   0.0000       8.029000       218.4802 
 118   0.0000       8.029014       218.4806 
 119   0.0000       8.281766       225.3583 
 120   0.0000       8.282153       225.3688 
 121   0.0000       9.152624       249.0556 
 122   0.0000      11.080284       301.5099 
 123   0.0000      14.120465       384.2374 
 124   0.0000      14.120465       384.2374 
 125   0.0000      14.159072       385.2879 
 126   0.0000      14.159097       385.2886 
 127   0.0000      14.243513       387.5857 
 128   0.0000      14.244655       387.6168 
 129   0.0000      14.309442       389.3797 
 130   0.0000      16.600021       451.7095 
 131   0.0000      16.600052       451.7104 
 132   0.0000      16.600507       451.7228 
 133   0.0000      16.600508       451.7228 
 134   0.0000      16.632180       452.5846 
 135   0.0000      16.632191       452.5849 
 136   0.0000      16.751875       455.8417 
 137   0.0000      16.754539       455.9142 
 138   0.0000      16.893851       459.7051 

                    ********************************
                    * MULLIKEN POPULATION ANALYSIS *
                    ********************************

--------------------------------------------
MULLIKEN ATOMIC CHARGES AND SPIN POPULATIONS
--------------------------------------------
   0 Cu:    0.632303    0.034182
   1 O :   -0.632303    0.965818
Sum of atomic charges         :    0.0000000
Sum of atomic spin populations:    1.0000000

-----------------------------------------------------
MULLIKEN REDUCED ORBITAL CHARGES AND SPIN POPULATIONS
-----------------------------------------------------
CHARGE
  0 Cus       :     6.469070  s :     6.469070
      pz      :     4.039651  p :    12.134054
      px      :     4.068954
      py      :     4.025449
      dz2     :     1.835937  d :     9.754003
      dxz     :     1.988118
      dyz     :     1.930811
      dx2y2   :     1.999562
      dxy     :     1.999575
      f0      :     0.004665  f :     0.010405
      f+1     :     0.003676
      f-1     :     0.001845
      f+2     :     0.000109
      f-2     :     0.000108
      f+3     :     0.000001
      f-3     :     0.000001
      g0      :     0.000066  g :     0.000166
      g+1     :     0.000058
      g-1     :     0.000039
      g+2     :     0.000001
      g-2     :     0.000001
      g+3     :     0.000000
      g-3     :     0.000000
      g+4     :     0.000000
      g-4     :     0.000000
  1 O s       :     3.993615  s :     3.993615
      pz      :     1.652563  p :     4.621954
      px      :     1.857267
      py      :     1.112124
      dz2     :     0.003397  d :     0.012993
      dxz     :     0.004214
      dyz     :     0.005000
      dx2y2   :     0.000246
      dxy     :     0.000136
      f0      :     0.000777  f :     0.003741
      f+1     :     0.001036
      f-1     :     0.001309
      f+2     :     0.000268
      f-2     :     0.000254
      f+3     :     0.000048
      f-3     :     0.000049

SPIN
  0 Cus       :    -0.058304  s :    -0.058304
      pz      :     0.000948  p :     0.011123
      px      :    -0.007373
      py      :     0.017548
      dz2     :     0.011045  d :     0.079377
      dxz     :     0.005455
      dyz     :     0.062931
      dx2y2   :    -0.000018
      dxy     :    -0.000037
      f0      :     0.000137  f :     0.001967
      f+1     :     0.000097
      f-1     :     0.001718
      f+2     :     0.000007
      f-2     :     0.000007
      f+3     :     0.000000
      f-3     :     0.000000
      g0      :    -0.000002  g :     0.000020
      g+1     :     0.000001
      g-1     :     0.000019
      g+2     :     0.000000
      g-2     :     0.000000
      g+3     :     0.000000
      g-3     :     0.000000
      g+4     :     0.000000
      g-4     :     0.000000
  1 O s       :     0.002397  s :     0.002397
      pz      :     0.043662  p :     0.964874
      px      :     0.078737
      py      :     0.842475
      dz2     :    -0.000112  d :    -0.001267
      dxz     :    -0.000289
      dyz     :    -0.001080
      dx2y2   :     0.000139
      dxy     :     0.000075
      f0      :     0.000009  f :    -0.000187
      f+1     :    -0.000050
      f-1     :    -0.000285
      f+2     :     0.000028
      f-2     :     0.000016
      f+3     :     0.000047
      f-3     :     0.000047


                     *******************************
                     * LOEWDIN POPULATION ANALYSIS *
                     *******************************

-------------------------------------------
LOEWDIN ATOMIC CHARGES AND SPIN POPULATIONS
-------------------------------------------
   0 Cu:    0.415413    0.104816
   1 O :   -0.415413    0.895184

----------------------------------------------------
LOEWDIN REDUCED ORBITAL CHARGES AND SPIN POPULATIONS
----------------------------------------------------
CHARGE
  0 Cus       :     6.370127  s :     6.370127
      pz      :     4.154828  p :    12.281449
      px      :     4.101446
      py      :     4.025175
      dz2     :     1.946661  d :     9.853415
      dxz     :     2.003389
      dyz     :     1.916775
      dx2y2   :     1.993289
      dxy     :     1.993301
      f0      :     0.038119  f :     0.078416
      f+1     :     0.025386
      f-1     :     0.014387
      f+2     :     0.000263
      f-2     :     0.000261
      f+3     :     0.000001
      f-3     :     0.000001
      g0      :     0.000651  g :     0.001180
      g+1     :     0.000331
      g-1     :     0.000195
      g+2     :     0.000001
      g-2     :     0.000001
      g+3     :     0.000000
      g-3     :     0.000000
      g+4     :     0.000000
      g-4     :     0.000000
  1 O s       :     3.627353  s :     3.627353
      pz      :     1.708117  p :     4.488972
      px      :     1.727441
      py      :     1.053415
      dz2     :     0.104248  d :     0.185960
      dxz     :     0.036607
      dyz     :     0.038527
      dx2y2   :     0.003344
      dxy     :     0.003234
      f0      :     0.049637  f :     0.113128
      f+1     :     0.028724
      f-1     :     0.028104
      f+2     :     0.003289
      f-2     :     0.003276
      f+3     :     0.000048
      f-3     :     0.000049

SPIN
  0 Cus       :    -0.048292  s :    -0.048292
      pz      :    -0.000135  p :     0.033155
      px      :    -0.008339
      py      :     0.041629
      dz2     :     0.009892  d :     0.105360
      dxz     :     0.006247
      dyz     :     0.089175
      dx2y2   :     0.000032
      dxy     :     0.000014
      f0      :     0.001285  f :     0.014399
      f+1     :     0.001051
      f-1     :     0.012040
      f+2     :     0.000011
      f-2     :     0.000011
      f+3     :     0.000000
      f-3     :     0.000000
      g0      :     0.000024  g :     0.000195
      g+1     :     0.000015
      g-1     :     0.000156
      g+2     :     0.000000
      g-2     :     0.000000
      g+3     :     0.000000
      g-3     :     0.000000
      g+4     :     0.000000
      g-4     :     0.000000
  1 O s       :     0.006918  s :     0.006918
      pz      :     0.030001  p :     0.888339
      px      :     0.077621
      py      :     0.780718
      dz2     :    -0.000013  d :    -0.001300
      dxz     :    -0.000089
      dyz     :    -0.001350
      dx2y2   :     0.000109
      dxy     :     0.000044
      f0      :     0.000102  f :     0.001226
      f+1     :     0.000071
      f-1     :     0.000959
      f+2     :     0.000005
      f-2     :    -0.000007
      f+3     :     0.000047
      f-3     :     0.000047


                      *****************************
                      * MAYER POPULATION ANALYSIS *
                      *****************************

  NA   - Mulliken gross atomic population
  ZA   - Total nuclear charge
  QA   - Mulliken gross atomic charge
  VA   - Mayer's total valence
  BVA  - Mayer's bonded valence
  FA   - Mayer's free valence

  ATOM       NA         ZA         QA         VA         BVA        FA
  0 Cu    28.3677    29.0000     0.6323     0.9660     0.9387     0.0273
  1 O      8.6323     8.0000    -0.6323     1.7773     0.9387     0.8386

  Mayer bond orders larger than 0.100000
B(  0-Cu,  1-O ) :   0.9387 

-------
TIMINGS
-------

Total SCF time: 0 days 0 hours 5 min 4 sec 

Total time                  ....     304.767 sec
Sum of individual times     ....     304.330 sec  ( 99.9%)

Fock matrix formation       ....     303.911 sec  ( 99.7%)
  XC integration            ....       0.477 sec  (  0.2% of F)
    Basis function eval.    ....       0.096 sec  ( 20.2% of XC)
    Density eval.           ....       0.052 sec  ( 10.9% of XC)
    XC-Functional eval.     ....       0.024 sec  (  5.0% of XC)
    XC-Potential eval.      ....       0.122 sec  ( 25.7% of XC)
Diagonalization             ....       0.103 sec  (  0.0%)
Density matrix formation    ....       0.013 sec  (  0.0%)
Population analysis         ....       0.007 sec  (  0.0%)
Initial guess               ....       0.099 sec  (  0.0%)
Orbital Transformation      ....       0.000 sec  (  0.0%)
Orbital Orthonormalization  ....       0.000 sec  (  0.0%)
DIIS solution               ....       0.032 sec  (  0.0%)
Grid generation             ....       0.164 sec  (  0.1%)

-------------------------   --------------------
FINAL SINGLE POINT ENERGY     -1715.536736960416
-------------------------   --------------------


                            ***************************************
                            *     ORCA property calculations      *
                            ***************************************

                                    ---------------------
                                    Active property flags
                                    ---------------------
   (+) Dipole Moment


------------------------------------------------------------------------------
                       ORCA ELECTRIC PROPERTIES CALCULATION
------------------------------------------------------------------------------

Dipole Moment Calculation                       ... on
Quadrupole Moment Calculation                   ... off
Polarizability Calculation                      ... off
GBWName                                         ... 53_CuO.gbw
Electron density file                           ... 53_CuO.scfp
The origin for moment calculation is the CENTER OF MASS  = ( 0.000000,  0.000000  0.916815)

-------------
DIPOLE MOMENT
-------------
                                X             Y             Z
Electronic contribution:     -0.00000       0.00000      -3.79164
Nuclear contribution   :      0.00000       0.00000       1.81807
                        -----------------------------------------
Total Dipole Moment    :     -0.00000       0.00000      -1.97357
                        -----------------------------------------
Magnitude (a.u.)       :      1.97357
Magnitude (Debye)      :      5.01641



--------------------
Rotational spectrum 
--------------------
 
Rotational constants in cm-1:     0.000000     0.444492     0.444492 
Rotational constants in MHz :     0.000000 13325.547784 13325.547784 

 Dipole components along the rotational axes: 
x,y,z [a.u.] :    -1.973568     0.000000    -0.000000 
x,y,z [Debye]:    -5.016412     0.000000    -0.000000 

 

Timings for individual modules:

Sum of individual times         ...      308.514 sec (=   5.142 min)
GTO integral calculation        ...        3.145 sec (=   0.052 min)   1.0 %
SCF iterations                  ...      305.369 sec (=   5.089 min)  99.0 %
                             ****ORCA TERMINATED NORMALLY****
TOTAL RUN TIME: 0 days 0 hours 5 minutes 9 seconds 122 msec
