
                                 *****************
                                 * O   R   C   A *
                                 *****************

           --- An Ab Initio, DFT and Semiempirical electronic structure package ---

                  #######################################################
                  #                        -***-                        #
                  #          Department of theory and spectroscopy      #
                  #               Directorship: Frank Neese             #
                  #        Max Planck Institute fuer Kohlenforschung    #
                  #                Kaiser Wilhelm Platz 1               #
                  #                 D-45470 Muelheim/Ruhr               #
                  #                      Germany                        #
                  #                                                     #
                  #                  All rights reserved                #
                  #                        -***-                        #
                  #######################################################


                         Program Version 4.2.0 -  RELEASE  -


 With contributions from (in alphabetic order):
   Daniel Aravena         : Magnetic Suceptibility
   Michael Atanasov       : Ab Initio Ligand Field Theory (pilot matlab implementation)
   Alexander A. Auer      : GIAO ZORA, VPT2
   Ute Becker             : Parallelization
   Giovanni Bistoni       : ED, misc. LED, open-shell LED, HFLED
   Martin Brehm           : Molecular dynamics
   Dmytro Bykov           : SCF Hessian
   Vijay G. Chilkuri      : MRCI spin determinant printing, contributions to CSF-ICE
   Dipayan Datta          : RHF DLPNO-CCSD density
   Achintya Kumar Dutta   : EOM-CC, STEOM-CC
   Dmitry Ganyushin       : Spin-Orbit,Spin-Spin,Magnetic field MRCI
   Miquel Garcia          : C-PCM Hessian, Gaussian charge scheme
   Yang Guo               : DLPNO-NEVPT2, CIM, IAO-localization
   Andreas Hansen         : Spin unrestricted coupled pair/coupled cluster methods
   Benjamin Helmich-Paris : CASSCF linear response (MC-RPA)
   Lee Huntington         : MR-EOM, pCC
   Robert Izsak           : Overlap fitted RIJCOSX, COSX-SCS-MP3, EOM
   Christian Kollmar      : KDIIS, OOCD, Brueckner-CCSD(T), CCSD density
   Simone Kossmann        : Meta GGA functionals, TD-DFT gradient, OOMP2, MP2 Hessian
   Martin Krupicka        : AUTO-CI
   Lucas Lang             : DCDCAS
   Dagmar Lenk            : GEPOL surface, SMD
   Dimitrios Liakos       : Extrapolation schemes; Compound Job, initial MDCI parallelization
   Dimitrios Manganas     : Further ROCIS development; embedding schemes
   Dimitrios Pantazis     : SARC Basis sets
   Taras Petrenko         : DFT Hessian,TD-DFT gradient, ASA, ECA, R-Raman, ABS, FL, XAS/XES, NRVS
   Peter Pinski           : DLPNO-MP2, DLPNO-MP2 Gradient
   Christoph Reimann      : Effective Core Potentials
   Marius Retegan         : Local ZFS, SOC
   Christoph Riplinger    : Optimizer, TS searches, QM/MM, DLPNO-CCSD(T), (RO)-DLPNO pert. Triples
   Tobias Risthaus        : Range-separated hybrids, TD-DFT gradient, RPA, STAB
   Michael Roemelt        : Original ROCIS implementation
   Masaaki Saitow         : Open-shell DLPNO-CCSD energy and density
   Barbara Sandhoefer     : DKH picture change effects
   Avijit Sen             : IP-ROCIS
   Kantharuban Sivalingam : CASSCF convergence, NEVPT2, FIC-MRCI
   Bernardo de Souza      : ESD, SOC TD-DFT
   Georgi Stoychev        : AutoAux, RI-MP2 NMR
   Willem Van den Heuvel  : Paramagnetic NMR
   Boris Wezisla          : Elementary symmetry handling
   Frank Wennmohs         : Technical directorship


 We gratefully acknowledge several colleagues who have allowed us to
 interface, adapt or use parts of their codes:
   Stefan Grimme, W. Hujo, H. Kruse,             : VdW corrections, initial TS optimization,
                  C. Bannwarth                     DFT functionals, gCP, sTDA/sTD-DF
   Ed Valeev, F. Pavosevic, A. Kumar             : LibInt (2-el integral package), F12 methods
   Garnet Chan, S. Sharma, J. Yang, R. Olivares  : DMRG
   Ulf Ekstrom                                   : XCFun DFT Library
   Mihaly Kallay                                 : mrcc  (arbitrary order and MRCC methods)
   Andreas Klamt, Michael Diedenhofen            : otool_cosmo (COSMO solvation model)
   Jiri Pittner, Ondrej Demel                    : Mk-CCSD
   Frank Weinhold                                : gennbo (NPA and NBO analysis)
   Christopher J. Cramer and Donald G. Truhlar   : smd solvation model
   Lars Goerigk                                  : TD-DFT with DH, B97 family of functionals
   V. Asgeirsson, H. Jonsson                     : NEB implementation
   FAccTs GmbH                                   : IRC, NEB, NEB-TS, Multilevel, MM, QM/MM, CI optimization
   S Lehtola, MJT Oliveira, MAL Marques          : LibXC Library


 Your calculation uses the libint2 library for the computation of 2-el integrals
 For citations please refer to: http://libint.valeyev.net

 Your ORCA version has been built with support for libXC version: 4.2.3
 For citations please refer to: https://tddft.org/programs/libxc/

 This ORCA versions uses:
   CBLAS   interface :  Fast vector & matrix operations
   LAPACKE interface :  Fast linear algebra routines
   SCALAPACK package :  Parallel linear algebra routines


Your calculation utilizes the DFT-NL dispersion correction.
Cite in your paper:
Vydrov, O. A.; Van Voorhis, T. J. Chem. Phys. 2010, 133, 244103
Hujo, W.; Grimme, S. J. Chem. Theory Comput. 2011, 7, 3866 
   

----- Orbital basis set information -----
Your calculation utilizes the basis: aug-cc-pVTZ 
    H, B-Ne : Obtained from the ccRepo (grant-hill.group.shef.ac.uk/ccrepo) Feb. 2017
              R. A. Kendall, T. H. Dunning, Jr., R. J. Harrison, J. Chem. Phys. 96, 6796 (1992)
         He : Obtained from the ccRepo (grant-hill.group.shef.ac.uk/ccrepo) Feb. 2017
              D. E. Woon, T. H. Dunning, Jr., J. Chem. Phys. 100, 2975 (1994)
  Li-Be, Na : Obtained from the ccRepo (grant-hill.group.shef.ac.uk/ccrepo) Feb. 2017
              B. P. Prascher, D. E. Woon, K. A. Peterson, T. H. Dunning, Jr., A. K. Wilson, Theor. Chem. Acc. 128, 69 (2011)
         Mg : Obtained from the Peterson Research Group Website (tyr0.chem.wsu.edu/~kipeters) Feb. 2017
              B. P. Prascher, D. E. Woon, K. A. Peterson, T. H. Dunning, Jr., A. K. Wilson, Theor. Chem. Acc. 128, 69 (2011)
      Al-Ar : Obtained from the ccRepo (grant-hill.group.shef.ac.uk/ccrepo) Feb. 2017
              D. E. Woon, T. H. Dunning, Jr., J. Chem. Phys. 98, 1358 (1993)
      Sc-Zn : Obtained from the ccRepo (grant-hill.group.shef.ac.uk/ccrepo) Feb. 2017
              N. B. Balabanov, K. A. Peterson, J. Chem. Phys. 123, 064107 (2005)
              N. B. Balabanov, K. A. Peterson, J. Chem. Phys. 125, 074110 (2006)
      Ga-Kr : Obtained from the ccRepo (grant-hill.group.shef.ac.uk/ccrepo) Feb. 2017
              A. K. Wilson, D. E. Woon, K. A. Peterson, T. H. Dunning, Jr., J. Chem. Phys. 110, 7667 (1999)
     Ag, Au : Obtained from the Peterson Research Group Website (tyr0.chem.wsu.edu/~kipeters) Feb. 2017
              K. A. Peterson, C. Puzzarini, Theor. Chem. Acc. 114, 283 (2005)

----- AuxJK basis set information -----
Your calculation utilizes the auxiliary basis: def2/JK
   H-Ba, Hf-Rn: F. Weigend, J. Comput. Chem. 29, 167 (2008).

================================================================================
                                        WARNINGS
                       Please study these warnings very carefully!
================================================================================


WARNING: your system is open-shell and RHF/RKS was chosen
  ===> : WILL SWITCH to UHF/UKS


INFO   : the flag for use of LIBINT has been found!

================================================================================
                                       INPUT FILE
================================================================================
NAME = 54_CuS.in
|  1> #
|  2> # 54_CuS wb97x-v/aug-cc-pvtz
|  3> #
|  4> ! wb97x-v aug-cc-pvtz def2/jk grid4 nofinalgrid
|  5> 
|  6> *xyz 0 2
|  7>   Cu  0.00000000000000      0.00000000000000     -0.02892798555449
|  8>   S   0.00000000000000      0.00000000000000      2.02892798555449
|  9> *
| 10> 
| 11> %pal
| 12> nprocs 24
| 13> end
| 14> 
| 15> 
| 16>                          ****END OF INPUT****
================================================================================

                       ****************************
                       * Single Point Calculation *
                       ****************************

---------------------------------
CARTESIAN COORDINATES (ANGSTROEM)
---------------------------------
  Cu     0.000000    0.000000   -0.028928
  S      0.000000    0.000000    2.028928

----------------------------
CARTESIAN COORDINATES (A.U.)
----------------------------
  NO LB      ZA    FRAG     MASS         X           Y           Z
   0 Cu   29.0000    0    63.550    0.000000    0.000000   -0.054666
   1 S    16.0000    0    32.060    0.000000    0.000000    3.834118

--------------------------------
INTERNAL COORDINATES (ANGSTROEM)
--------------------------------
 Cu     0   0   0     0.000000000000     0.00000000     0.00000000
 S      1   0   0     2.057855971109     0.00000000     0.00000000

---------------------------
INTERNAL COORDINATES (A.U.)
---------------------------
 Cu     0   0   0     0.000000000000     0.00000000     0.00000000
 S      1   0   0     3.888784208451     0.00000000     0.00000000

---------------------
BASIS SET INFORMATION
---------------------
There are 2 groups of distinct atoms

 Group   1 Type Cu  : 116s77p23d3f2g contracted to 8s7p5d3f2g pattern {19191919191911/151515151511/77711/111/11}
 Group   2 Type S   : 42s17p3d2f contracted to 6s5p3d2f pattern {131313111/77111/111/11}

Atom   0Cu   basis set group =>   1
Atom   1S    basis set group =>   2
----------------------------------
AUXILIARY/JK BASIS SET INFORMATION
----------------------------------
There are 2 groups of distinct atoms

 Group   1 Type Cu  : 19s14p12d10f7g3h1i contracted to 16s13p11d9f5g3h1i pattern {4111111111111111/2111111111111/21111111111/211111111/31111/111/1}
 Group   2 Type S   : 16s12p10d4f1g contracted to 13s11p9d4f1g pattern {4111111111111/21111111111/211111111/1111/1}

Atom   0Cu   basis set group =>   1
Atom   1S    basis set group =>   2


           ************************************************************
           *        Program running with 24 parallel MPI-processes    *
           *              working on a common directory               *
           ************************************************************
------------------------------------------------------------------------------
                           ORCA GTO INTEGRAL CALCULATION
------------------------------------------------------------------------------

                         BASIS SET STATISTICS AND STARTUP INFO

 # of primitive gaussian shells          ...  285
 # of primitive gaussian functions       ...  623
 # of contracted shells                  ...   41
 # of contracted basis functions         ...  143
 Highest angular momentum                ...    4
 Maximum contraction depth               ...   19
 Integral package used                   ... LIBINT
 Integral threshhold            Thresh   ...  1.000e-10
 Primitive cut-off              TCut     ...  1.000e-11


------------------------------ INTEGRAL EVALUATION ----------------------------


 * One electron integrals 
 Pre-screening matrix                    ... done
 Shell pair data                         ... done (   0.001 sec)



           ************************************************************
           *        Program running with 24 parallel MPI-processes    *
           *              working on a common directory               *
           ************************************************************
-------------------------------------------------------------------------------
                                 ORCA SCF
-------------------------------------------------------------------------------

------------
SCF SETTINGS
------------
Hamiltonian:
 Density Functional     Method          .... DFT(GTOs)
 Exchange Functional    Exchange        .... WB97X-V
 Correlation Functional Correlation     .... WB97X-V
 Gradients option       PostSCFGGA      .... off
 Hybrid DFT is turned on
   Fraction HF Exchange ScalHFX         ....  0.167000
   Scaling of DF-GGA-X  ScalDFX         ....  0.000000
   Scaling of DF-GGA-C  ScalDFC         ....  1.000000
   Scaling of DF-LDA-C  ScalLDAC        ....  1.000000
   Perturbative correction              ....  0.000000
   Density functional embedding theory  .... OFF
 Long-range corrected/Screened/Range-Separated Hybrid DFT is turned on
   Amount of maximum screened exact exchange              ....  0.833000
   Range separation parameter mu (erf(mu*r12)/r12)        ....  0.300000
   NL short-range parameter             ....  6.000000
   NL long-range parameter              ....  0.010000


General Settings:
 Integral files         IntName         .... 54_CuS
 Hartree-Fock type      HFTyp           .... UHF
 Total Charge           Charge          ....    0
 Multiplicity           Mult            ....    2
 Number of Electrons    NEL             ....   45
 Basis Dimension        Dim             ....  143
 Nuclear Repulsion      ENuc            ....    119.3174974820 Eh

Convergence Acceleration:
 DIIS                   CNVDIIS         .... on
   Start iteration      DIISMaxIt       ....    12
   Startup error        DIISStart       ....  0.200000
   # of expansion vecs  DIISMaxEq       ....     5
   Bias factor          DIISBfac        ....   1.050
   Max. coefficient     DIISMaxC        ....  10.000
 Newton-Raphson         CNVNR           .... off
 SOSCF                  CNVSOSCF        .... off
 Level Shifting         CNVShift        .... on
   Level shift para.    LevelShift      ....    0.2500
   Turn off err/grad.   ShiftErr        ....    0.0010
 Zerner damping         CNVZerner       .... off
 Static damping         CNVDamp         .... on
   Fraction old density DampFac         ....    0.7000
   Max. Damping (<1)    DampMax         ....    0.9800
   Min. Damping (>=0)   DampMin         ....    0.0000
   Turn off err/grad.   DampErr         ....    0.1000
 Fernandez-Rico         CNVRico         .... off

SCF Procedure:
 Maximum # iterations   MaxIter         ....   125
 SCF integral mode      SCFMode         .... Direct
   Integral package                     .... LIBINT
 Reset frequency        DirectResetFreq ....    20
 Integral Threshold     Thresh          ....  1.000e-10 Eh
 Primitive CutOff       TCut            ....  1.000e-11 Eh

Convergence Tolerance:
 Convergence Check Mode ConvCheckMode   .... Total+1el-Energy
 Convergence forced     ConvForced      .... 0
 Energy Change          TolE            ....  1.000e-06 Eh
 1-El. energy change                    ....  1.000e-03 Eh
 DIIS Error             TolErr          ....  1.000e-06


Diagonalization of the overlap matrix:
Smallest eigenvalue                        ... 1.697e-04
Time for diagonalization                   ...    0.005 sec
Threshold for overlap eigenvalues          ... 1.000e-08
Number of eigenvalues below threshold      ... 0
Time for construction of square roots      ...    0.002 sec
Total time needed                          ...    0.008 sec

-------------------
DFT GRID GENERATION
-------------------

General Integration Accuracy     IntAcc      ...  4.670
Radial Grid Type                 RadialGrid  ... Gauss-Chebyshev
Angular Grid (max. acc.)         AngularGrid ... Lebedev-302
Angular grid pruning method      GridPruning ... 3 (G Style)
Weight generation scheme         WeightScheme... Becke
Basis function cutoff            BFCut       ...    1.0000e-10
Integration weight cutoff        WCut        ...    1.0000e-14
Grids for H and He will be reduced by one unit

# of grid points (after initial pruning)     ...  16402 (   0.0 sec)
# of grid points (after weights+screening)   ...  16374 (   0.0 sec)
nearest neighbour list constructed           ...    0.0 sec
Grid point re-assignment to atoms done       ...    0.0 sec
Grid point division into batches done        ...    0.1 sec
Reduced shell lists constructed in    0.1 sec

Total number of grid points                  ...    16374
Total number of batches                      ...      257
Average number of points per batch           ...       63
Average number of grid points per atom       ...     8187
Average number of shells per batch           ...    15.00 (36.59%)
Average number of basis functions per batch  ...    36.17 (25.29%)
Average number of large shells per batch     ...     7.58 (50.56%)
Average number of large basis fcns per batch ...    18.42 (50.92%)
Maximum spatial batch extension              ...  23.02, 23.02, 16.62 au
Average spatial batch extension              ...   0.79,  0.78,  0.61 au

Time for grid setup =    0.174 sec

------------------------------
INITIAL GUESS: MODEL POTENTIAL
------------------------------
Loading Hartree-Fock densities                     ... done
Calculating cut-offs                               ... done
Setting up the integral package                    ... done
Initializing the effective Hamiltonian             ... done
Starting the Coulomb interaction                   ... done (   0.0 sec)
Reading the grid                                   ... done
Mapping shells                                     ... done
Starting the XC term evaluation                    ... done (   0.0 sec)
  promolecular density results
     # of electrons  =     45.000028287
     EX              =    -68.886102853
     EC              =     -2.620276107
     EX+EC           =    -71.506378960
Transforming the Hamiltonian                       ... done (   0.0 sec)
Diagonalizing the Hamiltonian                      ... done (   0.0 sec)
Back transforming the eigenvectors                 ... done (   0.0 sec)
Now organizing SCF variables                       ... done
                      ------------------
                      INITIAL GUESS DONE (   0.3 sec)
                      ------------------
--------------
SCF ITERATIONS
--------------
ITER       Energy         Delta-E        Max-DP      RMS-DP      [F,P]     Damp
               ***  Starting incremental Fock matrix formation  ***
  0  -2034.7259882202   0.000000000000 0.23180752  0.00540262  1.9504761 0.7000
  1  -2036.7943487497  -2.068360529417 0.16857566  0.00204851  0.5056191 0.7000
  2  -2037.3397028167  -0.545354067085 0.11078704  0.00182266  0.4159737 0.7000
  3  -2037.7204973064  -0.380794489707 0.05252779  0.00131213  0.3518955 0.7000
  4  -2038.0084740987  -0.287976792293 0.03577231  0.00089348  0.2074527 0.7000
                               ***Turning on DIIS***
  5  -2038.2108828283  -0.202408729538 0.02778187  0.00064464  0.1195898 0.7000
  6  -2038.3549172406  -0.144034412316 0.08151014  0.00181216  0.0836036 0.0000
  7  -2038.7073585282  -0.352441287640 0.01885282  0.00046781  0.0234619 0.0000
  8  -2038.7105469248  -0.003188396566 0.01103048  0.00015223  0.0419839 0.0000
  9  -2038.7129351731  -0.002388248330 0.01553816  0.00018619  0.0128803 0.0000
 10  -2038.7144025778  -0.001467404720 0.01563975  0.00018818  0.0079324 0.0000
 11  -2038.7154487197  -0.001046141858 0.01155804  0.00013470  0.0057244 0.0000
 12  -2038.7158623317  -0.000413612029 0.00605046  0.00007143  0.0050329 0.0000
 13  -2038.7159942941  -0.000131962395 0.00346423  0.00003952  0.0027508 0.0000
 14  -2038.7160337799  -0.000039485802 0.00266351  0.00003126  0.0008821 0.0000
 15  -2038.7160448981  -0.000011118189 0.00039661  0.00000536  0.0002265 0.0000
                 **** Energy Check signals convergence ****

               *****************************************************
               *                     SUCCESS                       *
               *           SCF CONVERGED AFTER  16 CYCLES          *
               *****************************************************


Setting up the DFT-NL grid :

General Integration Accuracy     IntAcc      ...  4.340
Radial Grid Type                 RadialGrid  ... Gauss-Chebyshev
Angular Grid (max. acc.)         AngularGrid ... Lebedev-110
Angular grid pruning method      GridPruning ... 3 (G Style)
Weight generation scheme         WeightScheme... Becke
Basis function cutoff            BFCut       ...    1.0000e-10
Integration weight cutoff        WCut        ...    1.0000e-14
Grids for H and He will be reduced by one unit

# of grid points (after initial pruning)     ...   4718 (   0.0 sec)
# of grid points (after weights+screening)   ...   4694 (   0.0 sec)
nearest neighbour list constructed           ...    0.0 sec
Grid point re-assignment to atoms done       ...    0.0 sec
Grid point division into batches done        ...    0.0 sec
Reduced shell lists constructed in    0.0 sec

Total number of grid points                  ...     4694
Total number of batches                      ...       74
Average number of points per batch           ...       63
Average number of grid points per atom       ...     2347
Average number of shells per batch           ...    21.60 (52.68%)
Average number of basis functions per batch  ...    60.00 (41.96%)
Average number of large shells per batch     ...    16.00 (74.07%)
Average number of large basis fcns per batch ...    44.80 (74.67%)
Maximum spatial batch extension              ...  17.39, 26.34, 14.87 au
Average spatial batch extension              ...   0.86,  1.19,  0.80 au

Final grid set up in    0.0 sec

-------------------------------------------------------------------------------
                         DFT-NL dispersion correction                          
-------------------------------------------------------------------------------

SC Energy -2038.716045505 
NL    Energy 0.189282987 
SC+NL Energy -2038.526762517 
NL done in    0.0 sec
-------------------------------------------------------------------------------

----------------
TOTAL SCF ENERGY
----------------

Total Energy       :        -2038.52676252 Eh          -55471.13331 eV

Components:
Nuclear Repulsion  :          119.31749748 Eh            3246.79417 eV
Electronic Energy  :        -2157.84426000 Eh          -58717.92748 eV
One Electron Energy:        -3075.48000362 Eh          -83688.06552 eV
Two Electron Energy:          917.63574362 Eh           24970.13804 eV

Virial components:
Potential Energy   :        -4074.11608839 Eh         -110862.33490 eV
Kinetic Energy     :         2035.58932587 Eh           55391.20159 eV
Virial Ratio       :            2.00144304


DFT components:
N(Alpha)           :       23.000008884024 electrons
N(Beta)            :       22.000009149924 electrons
N(Total)           :       45.000018033947 electrons
E(X)               :      -69.000892249374 Eh       
E(C)               :       -2.626318330381 Eh       
NL Energy, E(C,NL) :        0.189282987197 Eh       
E(XC)              :      -71.437927592557 Eh       
DFET-embed. en.    :        0.000000000000 Eh       

---------------
SCF CONVERGENCE
---------------

  Last Energy change         ...   -6.0655e-07  Tolerance :   1.0000e-06
  Last MAX-Density change    ...    2.1725e-04  Tolerance :   1.0000e-05
  Last RMS-Density change    ...    2.5070e-06  Tolerance :   1.0000e-06
  Last DIIS Error            ...    1.2715e-04  Tolerance :   1.0000e-06

             **** THE GBW FILE WAS UPDATED (54_CuS.gbw) ****
             **** DENSITY FILE WAS UPDATED (54_CuS.scfp) ****
             **** ENERGY FILE WAS UPDATED (54_CuS.en.tmp) ****
----------------------
UHF SPIN CONTAMINATION
----------------------

Warning: in a DFT calculation there is little theoretical justification to 
         calculate <S**2> as in Hartree-Fock theory. We will do it anyways
         but you should keep in mind that the values have only limited relevance

Expectation value of <S**2>     :     0.755326
Ideal value S*(S+1) for S=0.5   :     0.750000
Deviation                       :     0.005326

             **** THE GBW FILE WAS UPDATED (54_CuS.gbw) ****
             **** DENSITY FILE WAS UPDATED (54_CuS.scfp) ****
----------------
ORBITAL ENERGIES
----------------
                 SPIN UP ORBITALS
  NO   OCC          E(Eh)            E(eV) 
   0   1.0000    -322.883122     -8786.0964 
   1   1.0000     -88.873498     -2418.3708 
   2   1.0000     -38.869737     -1057.6993 
   3   1.0000     -34.066284      -926.9907 
   4   1.0000     -34.065911      -926.9806 
   5   1.0000     -34.062439      -926.8861 
   6   1.0000      -8.027234      -218.4321 
   7   1.0000      -5.990772      -163.0172 
   8   1.0000      -5.978808      -162.6916 
   9   1.0000      -5.974452      -162.5731 
  10   1.0000      -4.439246      -120.7980 
  11   1.0000      -2.939088       -79.9767 
  12   1.0000      -2.933750       -79.8314 
  13   1.0000      -2.927250       -79.6545 
  14   1.0000      -0.792105       -21.5543 
  15   1.0000      -0.452231       -12.3058 
  16   1.0000      -0.451310       -12.2808 
  17   1.0000      -0.440571       -11.9885 
  18   1.0000      -0.422688       -11.5019 
  19   1.0000      -0.422667       -11.5014 
  20   1.0000      -0.362680        -9.8690 
  21   1.0000      -0.360062        -9.7978 
  22   1.0000      -0.327626        -8.9152 
  23   0.0000      -0.034854        -0.9484 
  24   0.0000       0.025518         0.6944 
  25   0.0000       0.027911         0.7595 
  26   0.0000       0.031644         0.8611 
  27   0.0000       0.041281         1.1233 
  28   0.0000       0.082055         2.2328 
  29   0.0000       0.085699         2.3320 
  30   0.0000       0.101964         2.7746 
  31   0.0000       0.121936         3.3181 
  32   0.0000       0.128094         3.4856 
  33   0.0000       0.144268         3.9257 
  34   0.0000       0.178896         4.8680 
  35   0.0000       0.179788         4.8923 
  36   0.0000       0.182672         4.9708 
  37   0.0000       0.225195         6.1279 
  38   0.0000       0.226867         6.1734 
  39   0.0000       0.230121         6.2619 
  40   0.0000       0.267159         7.2698 
  41   0.0000       0.272604         7.4179 
  42   0.0000       0.281998         7.6736 
  43   0.0000       0.297408         8.0929 
  44   0.0000       0.297741         8.1019 
  45   0.0000       0.363490         9.8911 
  46   0.0000       0.388577        10.5737 
  47   0.0000       0.398227        10.8363 
  48   0.0000       0.443395        12.0654 
  49   0.0000       0.577132        15.7046 
  50   0.0000       0.596031        16.2188 
  51   0.0000       0.627867        17.0851 
  52   0.0000       0.629857        17.1393 
  53   0.0000       0.644721        17.5438 
  54   0.0000       0.646176        17.5833 
  55   0.0000       0.656670        17.8689 
  56   0.0000       0.714918        19.4539 
  57   0.0000       0.715168        19.4607 
  58   0.0000       0.734092        19.9757 
  59   0.0000       0.775221        21.0948 
  60   0.0000       0.816244        22.2111 
  61   0.0000       0.816409        22.2156 
  62   0.0000       0.818133        22.2625 
  63   0.0000       0.832376        22.6501 
  64   0.0000       0.850022        23.1303 
  65   0.0000       0.871557        23.7163 
  66   0.0000       0.873170        23.7602 
  67   0.0000       1.006538        27.3893 
  68   0.0000       1.015059        27.6212 
  69   0.0000       1.037442        28.2302 
  70   0.0000       1.123810        30.5804 
  71   0.0000       1.133056        30.8320 
  72   0.0000       1.248377        33.9701 
  73   0.0000       1.522658        41.4336 
  74   0.0000       1.549087        42.1528 
  75   0.0000       1.549088        42.1528 
  76   0.0000       1.661662        45.2161 
  77   0.0000       1.661793        45.2197 
  78   0.0000       1.811644        49.2973 
  79   0.0000       1.825173        49.6655 
  80   0.0000       1.896617        51.6096 
  81   0.0000       1.897455        51.6324 
  82   0.0000       2.003319        54.5131 
  83   0.0000       2.026499        55.1438 
  84   0.0000       2.028916        55.2096 
  85   0.0000       2.121829        57.7379 
  86   0.0000       2.168105        58.9971 
  87   0.0000       2.185589        59.4729 
  88   0.0000       2.197730        59.8033 
  89   0.0000       2.199979        59.8645 
  90   0.0000       2.209117        60.1131 
  91   0.0000       2.209765        60.1308 
  92   0.0000       2.267030        61.6890 
  93   0.0000       2.267398        61.6990 
  94   0.0000       2.267675        61.7066 
  95   0.0000       2.286057        62.2068 
  96   0.0000       2.289841        62.3098 
  97   0.0000       2.373013        64.5730 
  98   0.0000       2.513821        68.4045 
  99   0.0000       2.534344        68.9630 
 100   0.0000       3.179555        86.5201 
 101   0.0000       4.016154       109.2851 
 102   0.0000       4.380604       119.2023 
 103   0.0000       4.386350       119.3587 
 104   0.0000       4.469091       121.6102 
 105   0.0000       4.469094       121.6102 
 106   0.0000       4.526951       123.1846 
 107   0.0000       4.526981       123.1854 
 108   0.0000       4.694005       127.7304 
 109   0.0000       4.700786       127.9149 
 110   0.0000       4.705984       128.0563 
 111   0.0000       4.987199       135.7086 
 112   0.0000       5.117769       139.2616 
 113   0.0000       6.166926       167.8106 
 114   0.0000       6.166927       167.8106 
 115   0.0000       6.170490       167.9076 
 116   0.0000       6.170503       167.9079 
 117   0.0000       6.171738       167.9415 
 118   0.0000       6.171742       167.9416 
 119   0.0000       6.237490       169.7307 
 120   0.0000       6.241969       169.8526 
 121   0.0000       6.378424       173.5658 
 122   0.0000       8.031753       218.5551 
 123   0.0000       8.031754       218.5551 
 124   0.0000       8.083715       219.9691 
 125   0.0000       8.089798       220.1346 
 126   0.0000       8.564930       233.0636 
 127   0.0000      14.122276       384.2867 
 128   0.0000      14.122277       384.2867 
 129   0.0000      14.150321       385.0498 
 130   0.0000      14.150408       385.0522 
 131   0.0000      14.241193       387.5226 
 132   0.0000      14.247468       387.6933 
 133   0.0000      14.294619       388.9764 
 134   0.0000      16.597539       451.6420 
 135   0.0000      16.597568       451.6428 
 136   0.0000      16.598946       451.6803 
 137   0.0000      16.599252       451.6886 
 138   0.0000      16.601750       451.7566 
 139   0.0000      16.601769       451.7571 
 140   0.0000      16.628394       452.4816 
 141   0.0000      16.633809       452.6289 
 142   0.0000      16.680368       453.8959 

                 SPIN DOWN ORBITALS
  NO   OCC          E(Eh)            E(eV) 
   0   1.0000    -322.883102     -8786.0959 
   1   1.0000     -88.869105     -2418.2513 
   2   1.0000     -38.867707     -1057.6441 
   3   1.0000     -34.064082      -926.9308 
   4   1.0000     -34.063706      -926.9206 
   5   1.0000     -34.061866      -926.8705 
   6   1.0000      -8.023053      -218.3184 
   7   1.0000      -5.976223      -162.6213 
   8   1.0000      -5.975704      -162.6072 
   9   1.0000      -5.971430      -162.4909 
  10   1.0000      -4.435423      -120.6940 
  11   1.0000      -2.933540       -79.8257 
  12   1.0000      -2.928256       -79.6819 
  13   1.0000      -2.925843       -79.6162 
  14   1.0000      -0.746370       -20.3098 
  15   1.0000      -0.444354       -12.0915 
  16   1.0000      -0.437729       -11.9112 
  17   1.0000      -0.424276       -11.5451 
  18   1.0000      -0.420673       -11.4471 
  19   1.0000      -0.420600       -11.4451 
  20   1.0000      -0.352018        -9.5789 
  21   1.0000      -0.315772        -8.5926 
  22   0.0000      -0.056486        -1.5371 
  23   0.0000      -0.033033        -0.8989 
  24   0.0000       0.027902         0.7592 
  25   0.0000       0.029651         0.8068 
  26   0.0000       0.032036         0.8717 
  27   0.0000       0.042284         1.1506 
  28   0.0000       0.085424         2.3245 
  29   0.0000       0.087361         2.3772 
  30   0.0000       0.102653         2.7933 
  31   0.0000       0.129096         3.5129 
  32   0.0000       0.132368         3.6019 
  33   0.0000       0.145744         3.9659 
  34   0.0000       0.181509         4.9391 
  35   0.0000       0.181515         4.9393 
  36   0.0000       0.182855         4.9757 
  37   0.0000       0.228673         6.2225 
  38   0.0000       0.230237         6.2651 
  39   0.0000       0.230294         6.2666 
  40   0.0000       0.271982         7.4010 
  41   0.0000       0.272391         7.4121 
  42   0.0000       0.284097         7.7307 
  43   0.0000       0.306726         8.3464 
  44   0.0000       0.306863         8.3502 
  45   0.0000       0.367597        10.0028 
  46   0.0000       0.398670        10.8484 
  47   0.0000       0.399491        10.8707 
  48   0.0000       0.447175        12.1682 
  49   0.0000       0.596280        16.2256 
  50   0.0000       0.599610        16.3162 
  51   0.0000       0.637514        17.3476 
  52   0.0000       0.637711        17.3530 
  53   0.0000       0.649217        17.6661 
  54   0.0000       0.656651        17.8684 
  55   0.0000       0.658502        17.9188 
  56   0.0000       0.737961        20.0809 
  57   0.0000       0.738131        20.0856 
  58   0.0000       0.741085        20.1659 
  59   0.0000       0.780216        21.2308 
  60   0.0000       0.820030        22.3142 
  61   0.0000       0.820993        22.3403 
  62   0.0000       0.833604        22.6835 
  63   0.0000       0.835525        22.7358 
  64   0.0000       0.853109        23.2143 
  65   0.0000       0.875417        23.8213 
  66   0.0000       0.875832        23.8326 
  67   0.0000       1.010537        27.4981 
  68   0.0000       1.015572        27.6351 
  69   0.0000       1.040546        28.3147 
  70   0.0000       1.126964        30.6662 
  71   0.0000       1.133561        30.8458 
  72   0.0000       1.251153        34.0456 
  73   0.0000       1.535164        41.7739 
  74   0.0000       1.548940        42.1488 
  75   0.0000       1.548960        42.1493 
  76   0.0000       1.663416        45.2639 
  77   0.0000       1.663435        45.2644 
  78   0.0000       1.823945        49.6321 
  79   0.0000       1.827416        49.7265 
  80   0.0000       1.920961        52.2720 
  81   0.0000       1.921694        52.2919 
  82   0.0000       2.025765        55.1239 
  83   0.0000       2.031600        55.2826 
  84   0.0000       2.033452        55.3330 
  85   0.0000       2.131508        58.0013 
  86   0.0000       2.189370        59.5758 
  87   0.0000       2.193393        59.6853 
  88   0.0000       2.225806        60.5673 
  89   0.0000       2.226414        60.5838 
  90   0.0000       2.228341        60.6363 
  91   0.0000       2.229053        60.6556 
  92   0.0000       2.273808        61.8735 
  93   0.0000       2.274080        61.8809 
  94   0.0000       2.287598        62.2487 
  95   0.0000       2.290898        62.3385 
  96   0.0000       2.294634        62.4402 
  97   0.0000       2.380122        64.7664 
  98   0.0000       2.534816        68.9758 
  99   0.0000       2.538876        69.0863 
 100   0.0000       3.186372        86.7056 
 101   0.0000       4.018197       109.3407 
 102   0.0000       4.383058       119.2691 
 103   0.0000       4.386879       119.3731 
 104   0.0000       4.469712       121.6270 
 105   0.0000       4.469714       121.6271 
 106   0.0000       4.529504       123.2541 
 107   0.0000       4.529526       123.2547 
 108   0.0000       4.695792       127.7790 
 109   0.0000       4.704413       128.0136 
 110   0.0000       4.706520       128.0709 
 111   0.0000       4.996945       135.9738 
 112   0.0000       5.121340       139.3587 
 113   0.0000       6.167943       167.8383 
 114   0.0000       6.167944       167.8383 
 115   0.0000       6.170857       167.9176 
 116   0.0000       6.170862       167.9177 
 117   0.0000       6.172341       167.9579 
 118   0.0000       6.172347       167.9581 
 119   0.0000       6.239329       169.7808 
 120   0.0000       6.241907       169.8509 
 121   0.0000       6.379554       173.5965 
 122   0.0000       8.033432       218.6008 
 123   0.0000       8.033435       218.6009 
 124   0.0000       8.091116       220.1705 
 125   0.0000       8.091448       220.1795 
 126   0.0000       8.567247       233.1267 
 127   0.0000      14.124254       384.3405 
 128   0.0000      14.124255       384.3405 
 129   0.0000      14.155872       385.2009 
 130   0.0000      14.155972       385.2036 
 131   0.0000      14.248078       387.7099 
 132   0.0000      14.249165       387.7395 
 133   0.0000      14.297809       389.0632 
 134   0.0000      16.600988       451.7358 
 135   0.0000      16.601007       451.7364 
 136   0.0000      16.601621       451.7531 
 137   0.0000      16.601825       451.7586 
 138   0.0000      16.603557       451.8058 
 139   0.0000      16.603709       451.8099 
 140   0.0000      16.632619       452.5966 
 141   0.0000      16.634805       452.6561 
 142   0.0000      16.682524       453.9545 

                    ********************************
                    * MULLIKEN POPULATION ANALYSIS *
                    ********************************

--------------------------------------------
MULLIKEN ATOMIC CHARGES AND SPIN POPULATIONS
--------------------------------------------
   0 Cu:    0.435189    0.031936
   1 S :   -0.435189    0.968064
Sum of atomic charges         :   -0.0000000
Sum of atomic spin populations:    1.0000000

-----------------------------------------------------
MULLIKEN REDUCED ORBITAL CHARGES AND SPIN POPULATIONS
-----------------------------------------------------
CHARGE
  0 Cus       :     6.536155  s :     6.536155
      pz      :     4.078529  p :    12.177357
      px      :     4.070613
      py      :     4.028215
      dz2     :     1.911226  d :     9.845887
      dxz     :     1.989480
      dyz     :     1.947440
      dx2y2   :     1.998871
      dxy     :     1.998870
      f0      :     0.001987  f :     0.005343
      f+1     :     0.002104
      f-1     :     0.001149
      f+2     :     0.000052
      f-2     :     0.000050
      f+3     :     0.000001
      f-3     :     0.000001
      g0      :     0.000033  g :     0.000070
      g+1     :     0.000019
      g-1     :     0.000015
      g+2     :     0.000001
      g-2     :     0.000001
      g+3     :     0.000000
      g-3     :     0.000000
      g+4     :     0.000000
      g-4     :     0.000000
  1 S s       :     5.967214  s :     5.967214
      pz      :     3.493420  p :    10.430625
      px      :     3.860671
      py      :     3.076534
      dz2     :     0.010090  d :     0.033538
      dxz     :     0.010004
      dyz     :     0.011034
      dx2y2   :     0.001428
      dxy     :     0.000982
      f0      :     0.000360  f :     0.003811
      f+1     :     0.001023
      f-1     :     0.001347
      f+2     :     0.000391
      f-2     :     0.000340
      f+3     :     0.000175
      f-3     :     0.000174

SPIN
  0 Cus       :    -0.028461  s :    -0.028461
      pz      :    -0.002751  p :     0.013100
      px      :    -0.003811
      py      :     0.019661
      dz2     :     0.000864  d :     0.046356
      dxz     :     0.002835
      dyz     :     0.042909
      dx2y2   :    -0.000119
      dxy     :    -0.000133
      f0      :    -0.000011  f :     0.000939
      f+1     :     0.000040
      f-1     :     0.000903
      f+2     :     0.000004
      f-2     :     0.000003
      f+3     :     0.000000
      f-3     :     0.000000
      g0      :    -0.000000  g :     0.000003
      g+1     :     0.000000
      g-1     :     0.000003
      g+2     :     0.000000
      g-2     :     0.000000
      g+3     :     0.000000
      g-3     :     0.000000
      g+4     :     0.000000
      g-4     :     0.000000
  1 S s       :     0.008307  s :     0.008307
      pz      :     0.021291  p :     0.959794
      px      :     0.066870
      py      :     0.871633
      dz2     :     0.000267  d :    -0.000018
      dxz     :    -0.000119
      dyz     :    -0.000854
      dx2y2   :     0.000461
      dxy     :     0.000226
      f0      :    -0.000082  f :    -0.000019
      f+1     :    -0.000081
      f-1     :    -0.000322
      f+2     :     0.000088
      f-2     :     0.000046
      f+3     :     0.000166
      f-3     :     0.000166


                     *******************************
                     * LOEWDIN POPULATION ANALYSIS *
                     *******************************

-------------------------------------------
LOEWDIN ATOMIC CHARGES AND SPIN POPULATIONS
-------------------------------------------
   0 Cu:   -0.028711    0.143749
   1 S :    0.028711    0.856251

----------------------------------------------------
LOEWDIN REDUCED ORBITAL CHARGES AND SPIN POPULATIONS
----------------------------------------------------
CHARGE
  0 Cus       :     6.464459  s :     6.464459
      pz      :     4.261694  p :    12.446962
      px      :     4.137125
      py      :     4.048144
      dz2     :     2.054026  d :    10.078390
      dxz     :     2.063810
      dyz     :     1.976069
      dx2y2   :     1.992245
      dxy     :     1.992241
      f0      :     0.017856  f :     0.038611
      f+1     :     0.012982
      f-1     :     0.007538
      f+2     :     0.000118
      f-2     :     0.000115
      f+3     :     0.000001
      f-3     :     0.000001
      g0      :     0.000158  g :     0.000289
      g+1     :     0.000080
      g-1     :     0.000050
      g+2     :     0.000000
      g-2     :     0.000000
      g+3     :     0.000000
      g-3     :     0.000000
      g+4     :     0.000000
      g-4     :     0.000000
  1 S s       :     5.536933  s :     5.536933
      pz      :     3.495674  p :    10.131047
      px      :     3.662486
      py      :     2.972888
      dz2     :     0.101319  d :     0.166080
      dxz     :     0.027757
      dyz     :     0.030821
      dx2y2   :     0.003313
      dxy     :     0.002870
      f0      :     0.066895  f :     0.137228
      f+1     :     0.029676
      f-1     :     0.030226
      f+2     :     0.005066
      f-2     :     0.005016
      f+3     :     0.000175
      f-3     :     0.000174

SPIN
  0 Cus       :    -0.020519  s :    -0.020519
      pz      :     0.001620  p :     0.059258
      px      :    -0.002805
      py      :     0.060443
      dz2     :     0.002399  d :     0.097942
      dxz     :     0.005680
      dyz     :     0.090026
      dx2y2   :    -0.000076
      dxy     :    -0.000088
      f0      :     0.000300  f :     0.007026
      f+1     :     0.000521
      f-1     :     0.006194
      f+2     :     0.000006
      f-2     :     0.000005
      f+3     :     0.000000
      f-3     :     0.000000
      g0      :     0.000001  g :     0.000041
      g+1     :     0.000003
      g-1     :     0.000036
      g+2     :     0.000000
      g-2     :     0.000000
      g+3     :     0.000000
      g-3     :     0.000000
      g+4     :     0.000000
      g-4     :     0.000000
  1 S s       :     0.003947  s :     0.003947
      pz      :     0.011536  p :     0.853009
      px      :     0.062402
      py      :     0.779070
      dz2     :     0.000128  d :    -0.001358
      dxz     :    -0.000100
      dyz     :    -0.002031
      dx2y2   :     0.000441
      dxy     :     0.000204
      f0      :     0.000011  f :     0.000653
      f+1     :     0.000033
      f-1     :     0.000195
      f+2     :     0.000063
      f-2     :     0.000020
      f+3     :     0.000166
      f-3     :     0.000166


                      *****************************
                      * MAYER POPULATION ANALYSIS *
                      *****************************

  NA   - Mulliken gross atomic population
  ZA   - Total nuclear charge
  QA   - Mulliken gross atomic charge
  VA   - Mayer's total valence
  BVA  - Mayer's bonded valence
  FA   - Mayer's free valence

  ATOM       NA         ZA         QA         VA         BVA        FA
  0 Cu    28.5648    29.0000     0.4352     1.1974     1.1815     0.0158
  1 S     16.4352    16.0000    -0.4352     2.0587     1.1815     0.8772

  Mayer bond orders larger than 0.100000
B(  0-Cu,  1-S ) :   1.1815 

-------
TIMINGS
-------

Total SCF time: 0 days 0 hours 4 min 43 sec 

Total time                  ....     283.789 sec
Sum of individual times     ....     283.393 sec  ( 99.9%)

Fock matrix formation       ....     282.965 sec  ( 99.7%)
  XC integration            ....       0.392 sec  (  0.1% of F)
    Basis function eval.    ....       0.087 sec  ( 22.1% of XC)
    Density eval.           ....       0.046 sec  ( 11.7% of XC)
    XC-Functional eval.     ....       0.020 sec  (  5.1% of XC)
    XC-Potential eval.      ....       0.109 sec  ( 27.9% of XC)
Diagonalization             ....       0.088 sec  (  0.0%)
Density matrix formation    ....       0.011 sec  (  0.0%)
Population analysis         ....       0.007 sec  (  0.0%)
Initial guess               ....       0.106 sec  (  0.0%)
Orbital Transformation      ....       0.000 sec  (  0.0%)
Orbital Orthonormalization  ....       0.000 sec  (  0.0%)
DIIS solution               ....       0.026 sec  (  0.0%)
Grid generation             ....       0.190 sec  (  0.1%)

-------------------------   --------------------
FINAL SINGLE POINT ENERGY     -2038.526762517471
-------------------------   --------------------


                            ***************************************
                            *     ORCA property calculations      *
                            ***************************************

                                    ---------------------
                                    Active property flags
                                    ---------------------
   (+) Dipole Moment


------------------------------------------------------------------------------
                       ORCA ELECTRIC PROPERTIES CALCULATION
------------------------------------------------------------------------------

Dipole Moment Calculation                       ... on
Quadrupole Moment Calculation                   ... off
Polarizability Calculation                      ... off
GBWName                                         ... 54_CuS.gbw
Electron density file                           ... 54_CuS.scfp
The origin for moment calculation is the CENTER OF MASS  = ( 0.000000,  0.000000  1.249323)

-------------
DIPOLE MOMENT
-------------
                                X             Y             Z
Electronic contribution:     -0.00000       0.00000      -5.42450
Nuclear contribution   :      0.00000       0.00000       3.54103
                        -----------------------------------------
Total Dipole Moment    :     -0.00000       0.00000      -1.88347
                        -----------------------------------------
Magnitude (a.u.)       :      1.88347
Magnitude (Debye)      :      4.78740



--------------------
Rotational spectrum 
--------------------
 
Rotational constants in cm-1:     0.000000     0.186806     0.186806 
Rotational constants in MHz :     0.000000  5600.307820  5600.307820 

 Dipole components along the rotational axes: 
x,y,z [a.u.] :    -1.883471     0.000000    -0.000000 
x,y,z [Debye]:    -4.787404     0.000000    -0.000000 

 

Timings for individual modules:

Sum of individual times         ...      287.916 sec (=   4.799 min)
GTO integral calculation        ...        3.512 sec (=   0.059 min)   1.2 %
SCF iterations                  ...      284.404 sec (=   4.740 min)  98.8 %
                             ****ORCA TERMINATED NORMALLY****
TOTAL RUN TIME: 0 days 0 hours 4 minutes 48 seconds 578 msec
