
                                 *****************
                                 * O   R   C   A *
                                 *****************

           --- An Ab Initio, DFT and Semiempirical electronic structure package ---

                  #######################################################
                  #                        -***-                        #
                  #          Department of theory and spectroscopy      #
                  #               Directorship: Frank Neese             #
                  #        Max Planck Institute fuer Kohlenforschung    #
                  #                Kaiser Wilhelm Platz 1               #
                  #                 D-45470 Muelheim/Ruhr               #
                  #                      Germany                        #
                  #                                                     #
                  #                  All rights reserved                #
                  #                        -***-                        #
                  #######################################################


                         Program Version 4.2.0 -  RELEASE  -


 With contributions from (in alphabetic order):
   Daniel Aravena         : Magnetic Suceptibility
   Michael Atanasov       : Ab Initio Ligand Field Theory (pilot matlab implementation)
   Alexander A. Auer      : GIAO ZORA, VPT2
   Ute Becker             : Parallelization
   Giovanni Bistoni       : ED, misc. LED, open-shell LED, HFLED
   Martin Brehm           : Molecular dynamics
   Dmytro Bykov           : SCF Hessian
   Vijay G. Chilkuri      : MRCI spin determinant printing, contributions to CSF-ICE
   Dipayan Datta          : RHF DLPNO-CCSD density
   Achintya Kumar Dutta   : EOM-CC, STEOM-CC
   Dmitry Ganyushin       : Spin-Orbit,Spin-Spin,Magnetic field MRCI
   Miquel Garcia          : C-PCM Hessian, Gaussian charge scheme
   Yang Guo               : DLPNO-NEVPT2, CIM, IAO-localization
   Andreas Hansen         : Spin unrestricted coupled pair/coupled cluster methods
   Benjamin Helmich-Paris : CASSCF linear response (MC-RPA)
   Lee Huntington         : MR-EOM, pCC
   Robert Izsak           : Overlap fitted RIJCOSX, COSX-SCS-MP3, EOM
   Christian Kollmar      : KDIIS, OOCD, Brueckner-CCSD(T), CCSD density
   Simone Kossmann        : Meta GGA functionals, TD-DFT gradient, OOMP2, MP2 Hessian
   Martin Krupicka        : AUTO-CI
   Lucas Lang             : DCDCAS
   Dagmar Lenk            : GEPOL surface, SMD
   Dimitrios Liakos       : Extrapolation schemes; Compound Job, initial MDCI parallelization
   Dimitrios Manganas     : Further ROCIS development; embedding schemes
   Dimitrios Pantazis     : SARC Basis sets
   Taras Petrenko         : DFT Hessian,TD-DFT gradient, ASA, ECA, R-Raman, ABS, FL, XAS/XES, NRVS
   Peter Pinski           : DLPNO-MP2, DLPNO-MP2 Gradient
   Christoph Reimann      : Effective Core Potentials
   Marius Retegan         : Local ZFS, SOC
   Christoph Riplinger    : Optimizer, TS searches, QM/MM, DLPNO-CCSD(T), (RO)-DLPNO pert. Triples
   Tobias Risthaus        : Range-separated hybrids, TD-DFT gradient, RPA, STAB
   Michael Roemelt        : Original ROCIS implementation
   Masaaki Saitow         : Open-shell DLPNO-CCSD energy and density
   Barbara Sandhoefer     : DKH picture change effects
   Avijit Sen             : IP-ROCIS
   Kantharuban Sivalingam : CASSCF convergence, NEVPT2, FIC-MRCI
   Bernardo de Souza      : ESD, SOC TD-DFT
   Georgi Stoychev        : AutoAux, RI-MP2 NMR
   Willem Van den Heuvel  : Paramagnetic NMR
   Boris Wezisla          : Elementary symmetry handling
   Frank Wennmohs         : Technical directorship


 We gratefully acknowledge several colleagues who have allowed us to
 interface, adapt or use parts of their codes:
   Stefan Grimme, W. Hujo, H. Kruse,             : VdW corrections, initial TS optimization,
                  C. Bannwarth                     DFT functionals, gCP, sTDA/sTD-DF
   Ed Valeev, F. Pavosevic, A. Kumar             : LibInt (2-el integral package), F12 methods
   Garnet Chan, S. Sharma, J. Yang, R. Olivares  : DMRG
   Ulf Ekstrom                                   : XCFun DFT Library
   Mihaly Kallay                                 : mrcc  (arbitrary order and MRCC methods)
   Andreas Klamt, Michael Diedenhofen            : otool_cosmo (COSMO solvation model)
   Jiri Pittner, Ondrej Demel                    : Mk-CCSD
   Frank Weinhold                                : gennbo (NPA and NBO analysis)
   Christopher J. Cramer and Donald G. Truhlar   : smd solvation model
   Lars Goerigk                                  : TD-DFT with DH, B97 family of functionals
   V. Asgeirsson, H. Jonsson                     : NEB implementation
   FAccTs GmbH                                   : IRC, NEB, NEB-TS, Multilevel, MM, QM/MM, CI optimization
   S Lehtola, MJT Oliveira, MAL Marques          : LibXC Library


 Your calculation uses the libint2 library for the computation of 2-el integrals
 For citations please refer to: http://libint.valeyev.net

 Your ORCA version has been built with support for libXC version: 4.2.3
 For citations please refer to: https://tddft.org/programs/libxc/

 This ORCA versions uses:
   CBLAS   interface :  Fast vector & matrix operations
   LAPACKE interface :  Fast linear algebra routines
   SCALAPACK package :  Parallel linear algebra routines


Your calculation utilizes the DFT-NL dispersion correction.
Cite in your paper:
Vydrov, O. A.; Van Voorhis, T. J. Chem. Phys. 2010, 133, 244103
Hujo, W.; Grimme, S. J. Chem. Theory Comput. 2011, 7, 3866 
   

----- Orbital basis set information -----
Your calculation utilizes the basis: aug-cc-pVTZ 
    H, B-Ne : Obtained from the ccRepo (grant-hill.group.shef.ac.uk/ccrepo) Feb. 2017
              R. A. Kendall, T. H. Dunning, Jr., R. J. Harrison, J. Chem. Phys. 96, 6796 (1992)
         He : Obtained from the ccRepo (grant-hill.group.shef.ac.uk/ccrepo) Feb. 2017
              D. E. Woon, T. H. Dunning, Jr., J. Chem. Phys. 100, 2975 (1994)
  Li-Be, Na : Obtained from the ccRepo (grant-hill.group.shef.ac.uk/ccrepo) Feb. 2017
              B. P. Prascher, D. E. Woon, K. A. Peterson, T. H. Dunning, Jr., A. K. Wilson, Theor. Chem. Acc. 128, 69 (2011)
         Mg : Obtained from the Peterson Research Group Website (tyr0.chem.wsu.edu/~kipeters) Feb. 2017
              B. P. Prascher, D. E. Woon, K. A. Peterson, T. H. Dunning, Jr., A. K. Wilson, Theor. Chem. Acc. 128, 69 (2011)
      Al-Ar : Obtained from the ccRepo (grant-hill.group.shef.ac.uk/ccrepo) Feb. 2017
              D. E. Woon, T. H. Dunning, Jr., J. Chem. Phys. 98, 1358 (1993)
      Sc-Zn : Obtained from the ccRepo (grant-hill.group.shef.ac.uk/ccrepo) Feb. 2017
              N. B. Balabanov, K. A. Peterson, J. Chem. Phys. 123, 064107 (2005)
              N. B. Balabanov, K. A. Peterson, J. Chem. Phys. 125, 074110 (2006)
      Ga-Kr : Obtained from the ccRepo (grant-hill.group.shef.ac.uk/ccrepo) Feb. 2017
              A. K. Wilson, D. E. Woon, K. A. Peterson, T. H. Dunning, Jr., J. Chem. Phys. 110, 7667 (1999)
     Ag, Au : Obtained from the Peterson Research Group Website (tyr0.chem.wsu.edu/~kipeters) Feb. 2017
              K. A. Peterson, C. Puzzarini, Theor. Chem. Acc. 114, 283 (2005)

----- AuxJK basis set information -----
Your calculation utilizes the auxiliary basis: def2/JK
   H-Ba, Hf-Rn: F. Weigend, J. Comput. Chem. 29, 167 (2008).

================================================================================
                                        WARNINGS
                       Please study these warnings very carefully!
================================================================================


WARNING: your system is open-shell and RHF/RKS was chosen
  ===> : WILL SWITCH to UHF/UKS


INFO   : the flag for use of LIBINT has been found!

================================================================================
                                       INPUT FILE
================================================================================
NAME = 55_ZnH.in
|  1> #
|  2> # 55_ZnH wb97x-v/aug-cc-pvtz
|  3> #
|  4> ! wb97x-v aug-cc-pvtz def2/jk grid4 nofinalgrid
|  5> 
|  6> *xyz 0 2
|  7>   Zn  0.00000000000000      0.00000000000000      0.19402109306576
|  8>   H   0.00000000000000      0.00000000000000      1.80597890693424
|  9> *
| 10> 
| 11> %pal
| 12> nprocs 24
| 13> end
| 14> 
| 15> 
| 16>                          ****END OF INPUT****
================================================================================

                       ****************************
                       * Single Point Calculation *
                       ****************************

---------------------------------
CARTESIAN COORDINATES (ANGSTROEM)
---------------------------------
  Zn     0.000000    0.000000    0.194021
  H      0.000000    0.000000    1.805979

----------------------------
CARTESIAN COORDINATES (A.U.)
----------------------------
  NO LB      ZA    FRAG     MASS         X           Y           Z
   0 Zn   30.0000    0    65.380    0.000000    0.000000    0.366647
   1 H     1.0000    0     1.008    0.000000    0.000000    3.412806

--------------------------------
INTERNAL COORDINATES (ANGSTROEM)
--------------------------------
 Zn     0   0   0     0.000000000000     0.00000000     0.00000000
 H      1   0   0     1.611957813868     0.00000000     0.00000000

---------------------------
INTERNAL COORDINATES (A.U.)
---------------------------
 Zn     0   0   0     0.000000000000     0.00000000     0.00000000
 H      1   0   0     3.046158807646     0.00000000     0.00000000

---------------------
BASIS SET INFORMATION
---------------------
There are 2 groups of distinct atoms

 Group   1 Type Zn  : 116s77p23d3f2g contracted to 8s7p5d3f2g pattern {19191919191911/151515151511/77711/111/11}
 Group   2 Type H   : 6s3p2d contracted to 4s3p2d pattern {3111/111/11}

Atom   0Zn   basis set group =>   1
Atom   1H    basis set group =>   2
----------------------------------
AUXILIARY/JK BASIS SET INFORMATION
----------------------------------
There are 2 groups of distinct atoms

 Group   1 Type Zn  : 19s14p12d10f7g3h1i contracted to 16s13p11d9f5g3h1i pattern {4111111111111111/2111111111111/21111111111/211111111/31111/111/1}
 Group   2 Type H   : 4s2p2d contracted to 2s2p2d pattern {31/11/11}

Atom   0Zn   basis set group =>   1
Atom   1H    basis set group =>   2


           ************************************************************
           *        Program running with 24 parallel MPI-processes    *
           *              working on a common directory               *
           ************************************************************
------------------------------------------------------------------------------
                           ORCA GTO INTEGRAL CALCULATION
------------------------------------------------------------------------------

                         BASIS SET STATISTICS AND STARTUP INFO

 # of primitive gaussian shells          ...  232
 # of primitive gaussian functions       ...  526
 # of contracted shells                  ...   34
 # of contracted basis functions         ...  116
 Highest angular momentum                ...    4
 Maximum contraction depth               ...   19
 Integral package used                   ... LIBINT
 Integral threshhold            Thresh   ...  1.000e-10
 Primitive cut-off              TCut     ...  1.000e-11


------------------------------ INTEGRAL EVALUATION ----------------------------


 * One electron integrals 
 Pre-screening matrix                    ... done
 Shell pair data                         ... done (   0.001 sec)



           ************************************************************
           *        Program running with 24 parallel MPI-processes    *
           *              working on a common directory               *
           ************************************************************
-------------------------------------------------------------------------------
                                 ORCA SCF
-------------------------------------------------------------------------------

------------
SCF SETTINGS
------------
Hamiltonian:
 Density Functional     Method          .... DFT(GTOs)
 Exchange Functional    Exchange        .... WB97X-V
 Correlation Functional Correlation     .... WB97X-V
 Gradients option       PostSCFGGA      .... off
 Hybrid DFT is turned on
   Fraction HF Exchange ScalHFX         ....  0.167000
   Scaling of DF-GGA-X  ScalDFX         ....  0.000000
   Scaling of DF-GGA-C  ScalDFC         ....  1.000000
   Scaling of DF-LDA-C  ScalLDAC        ....  1.000000
   Perturbative correction              ....  0.000000
   Density functional embedding theory  .... OFF
 Long-range corrected/Screened/Range-Separated Hybrid DFT is turned on
   Amount of maximum screened exact exchange              ....  0.833000
   Range separation parameter mu (erf(mu*r12)/r12)        ....  0.300000
   NL short-range parameter             ....  6.000000
   NL long-range parameter              ....  0.010000


General Settings:
 Integral files         IntName         .... 55_ZnH
 Hartree-Fock type      HFTyp           .... UHF
 Total Charge           Charge          ....    0
 Multiplicity           Mult            ....    2
 Number of Electrons    NEL             ....   31
 Basis Dimension        Dim             ....  116
 Nuclear Repulsion      ENuc            ....      9.8484688076 Eh

Convergence Acceleration:
 DIIS                   CNVDIIS         .... on
   Start iteration      DIISMaxIt       ....    12
   Startup error        DIISStart       ....  0.200000
   # of expansion vecs  DIISMaxEq       ....     5
   Bias factor          DIISBfac        ....   1.050
   Max. coefficient     DIISMaxC        ....  10.000
 Newton-Raphson         CNVNR           .... off
 SOSCF                  CNVSOSCF        .... off
 Level Shifting         CNVShift        .... on
   Level shift para.    LevelShift      ....    0.2500
   Turn off err/grad.   ShiftErr        ....    0.0010
 Zerner damping         CNVZerner       .... off
 Static damping         CNVDamp         .... on
   Fraction old density DampFac         ....    0.7000
   Max. Damping (<1)    DampMax         ....    0.9800
   Min. Damping (>=0)   DampMin         ....    0.0000
   Turn off err/grad.   DampErr         ....    0.1000
 Fernandez-Rico         CNVRico         .... off

SCF Procedure:
 Maximum # iterations   MaxIter         ....   125
 SCF integral mode      SCFMode         .... Direct
   Integral package                     .... LIBINT
 Reset frequency        DirectResetFreq ....    20
 Integral Threshold     Thresh          ....  1.000e-10 Eh
 Primitive CutOff       TCut            ....  1.000e-11 Eh

Convergence Tolerance:
 Convergence Check Mode ConvCheckMode   .... Total+1el-Energy
 Convergence forced     ConvForced      .... 0
 Energy Change          TolE            ....  1.000e-06 Eh
 1-El. energy change                    ....  1.000e-03 Eh
 DIIS Error             TolErr          ....  1.000e-06


Diagonalization of the overlap matrix:
Smallest eigenvalue                        ... 2.258e-04
Time for diagonalization                   ...    0.004 sec
Threshold for overlap eigenvalues          ... 1.000e-08
Number of eigenvalues below threshold      ... 0
Time for construction of square roots      ...    0.002 sec
Total time needed                          ...    0.006 sec

-------------------
DFT GRID GENERATION
-------------------

General Integration Accuracy     IntAcc      ...  4.670
Radial Grid Type                 RadialGrid  ... Gauss-Chebyshev
Angular Grid (max. acc.)         AngularGrid ... Lebedev-302
Angular grid pruning method      GridPruning ... 3 (G Style)
Weight generation scheme         WeightScheme... Becke
Basis function cutoff            BFCut       ...    1.0000e-10
Integration weight cutoff        WCut        ...    1.0000e-14
Grids for H and He will be reduced by one unit

# of grid points (after initial pruning)     ...  13034 (   0.0 sec)
# of grid points (after weights+screening)   ...  12999 (   0.0 sec)
nearest neighbour list constructed           ...    0.0 sec
Grid point re-assignment to atoms done       ...    0.0 sec
Grid point division into batches done        ...    0.1 sec
Reduced shell lists constructed in    0.1 sec

Total number of grid points                  ...    12999
Total number of batches                      ...      204
Average number of points per batch           ...       63
Average number of grid points per atom       ...     6500
Average number of shells per batch           ...    13.50 (39.71%)
Average number of basis functions per batch  ...    27.70 (23.88%)
Average number of large shells per batch     ...     7.10 (52.59%)
Average number of large basis fcns per batch ...    14.70 (53.07%)
Maximum spatial batch extension              ...  28.79, 26.18, 17.31 au
Average spatial batch extension              ...   0.92,  0.87,  0.66 au

Time for grid setup =    0.124 sec

------------------------------
INITIAL GUESS: MODEL POTENTIAL
------------------------------
Loading Hartree-Fock densities                     ... done
Calculating cut-offs                               ... done
Setting up the integral package                    ... done
Initializing the effective Hamiltonian             ... done
Starting the Coulomb interaction                   ... done (   0.0 sec)
Reading the grid                                   ... done
Mapping shells                                     ... done
Starting the XC term evaluation                    ... done (   0.0 sec)
  promolecular density results
     # of electrons  =     30.999520931
     EX              =    -53.710232259
     EC              =     -1.904484055
     EX+EC           =    -55.614716314
Transforming the Hamiltonian                       ... done (   0.0 sec)
Diagonalizing the Hamiltonian                      ... done (   0.0 sec)
Back transforming the eigenvectors                 ... done (   0.0 sec)
Now organizing SCF variables                       ... done
                      ------------------
                      INITIAL GUESS DONE (   0.2 sec)
                      ------------------
--------------
SCF ITERATIONS
--------------
ITER       Energy         Delta-E        Max-DP      RMS-DP      [F,P]     Damp
               ***  Starting incremental Fock matrix formation  ***
  0  -1776.8160104089   0.000000000000 0.29122696  0.00623324  1.8397240 0.7000
  1  -1778.3607253122  -1.544714903257 0.14632242  0.00265049  0.6082165 0.7000
  2  -1778.8903899765  -0.529664664295 0.10315371  0.00219101  0.3002582 0.7000
  3  -1779.1982792906  -0.307889314155 0.07283816  0.00166150  0.2918573 0.7000
  4  -1779.4134729404  -0.215193649751 0.06383648  0.00116271  0.2100839 0.7000
                               ***Turning on DIIS***
  5  -1779.5654488219  -0.151975881505 0.04936676  0.00081725  0.1405435 0.7000
  6  -1779.6729922117  -0.107543389777 0.12627888  0.00212912  0.0925794 0.0000
  7  -1779.9319953719  -0.259003160196 0.04278217  0.00058987  0.0238092 0.0000
  8  -1779.9341105098  -0.002115137893 0.01636404  0.00020321  0.0118251 0.0000
  9  -1779.9346123729  -0.000501863105 0.01188223  0.00017243  0.0163836 0.0000
 10  -1779.9350820389  -0.000469666067 0.01151563  0.00011954  0.0041679 0.0000
 11  -1779.9352859992  -0.000203960259 0.00744962  0.00007424  0.0026032 0.0000
 12  -1779.9353667048  -0.000080705628 0.00464407  0.00004553  0.0015211 0.0000
 13  -1779.9353948663  -0.000028161482 0.00374281  0.00003983  0.0008546 0.0000
 14  -1779.9354045267  -0.000009660406 0.00056440  0.00000929  0.0002009 0.0000
 15  -1779.9354050990  -0.000000572266 0.00023422  0.00000413  0.0000990 0.0000
                 **** Energy Check signals convergence ****

               *****************************************************
               *                     SUCCESS                       *
               *           SCF CONVERGED AFTER  16 CYCLES          *
               *****************************************************


Setting up the DFT-NL grid :

General Integration Accuracy     IntAcc      ...  4.340
Radial Grid Type                 RadialGrid  ... Gauss-Chebyshev
Angular Grid (max. acc.)         AngularGrid ... Lebedev-110
Angular grid pruning method      GridPruning ... 3 (G Style)
Weight generation scheme         WeightScheme... Becke
Basis function cutoff            BFCut       ...    1.0000e-10
Integration weight cutoff        WCut        ...    1.0000e-14
Grids for H and He will be reduced by one unit

# of grid points (after initial pruning)     ...   3706 (   0.0 sec)
# of grid points (after weights+screening)   ...   3682 (   0.0 sec)
nearest neighbour list constructed           ...    0.0 sec
Grid point re-assignment to atoms done       ...    0.0 sec
Grid point division into batches done        ...    0.0 sec
Reduced shell lists constructed in    0.0 sec

Total number of grid points                  ...     3682
Total number of batches                      ...       59
Average number of points per batch           ...       62
Average number of grid points per atom       ...     1841
Average number of shells per batch           ...    18.00 (52.94%)
Average number of basis functions per batch  ...    45.00 (38.79%)
Average number of large shells per batch     ...    13.50 (75.00%)
Average number of large basis fcns per batch ...    33.00 (73.33%)
Maximum spatial batch extension              ...  34.10, 26.34, 18.50 au
Average spatial batch extension              ...   1.19,  1.20,  0.81 au

Final grid set up in    0.0 sec

-------------------------------------------------------------------------------
                         DFT-NL dispersion correction                          
-------------------------------------------------------------------------------

SC Energy -1779.935405205 
NL    Energy 0.131927574 
SC+NL Energy -1779.803477631 
NL done in    0.0 sec
-------------------------------------------------------------------------------

----------------
TOTAL SCF ENERGY
----------------

Total Energy       :        -1779.80347763 Eh          -48430.91481 eV

Components:
Nuclear Repulsion  :            9.84846881 Eh             267.99046 eV
Electronic Energy  :        -1789.65194644 Eh          -48698.90527 eV
One Electron Energy:        -2502.37732473 Eh          -68093.14879 eV
Two Electron Energy:          712.72537829 Eh           19394.24353 eV

Virial components:
Potential Energy   :        -3557.63077046 Eh          -96808.05489 eV
Kinetic Energy     :         1777.82729283 Eh           48377.14008 eV
Virial Ratio       :            2.00111157


DFT components:
N(Alpha)           :       16.000007685674 electrons
N(Beta)            :       15.000007929511 electrons
N(Total)           :       31.000015615185 electrons
E(X)               :      -53.658450763152 Eh       
E(C)               :       -1.894841185752 Eh       
NL Energy, E(C,NL) :        0.131927573847 Eh       
E(XC)              :      -55.421364375058 Eh       
DFET-embed. en.    :        0.000000000000 Eh       

---------------
SCF CONVERGENCE
---------------

  Last Energy change         ...   -1.0589e-07  Tolerance :   1.0000e-06
  Last MAX-Density change    ...    7.4988e-05  Tolerance :   1.0000e-05
  Last RMS-Density change    ...    1.2428e-06  Tolerance :   1.0000e-06
  Last DIIS Error            ...    2.9423e-05  Tolerance :   1.0000e-06

             **** THE GBW FILE WAS UPDATED (55_ZnH.gbw) ****
             **** DENSITY FILE WAS UPDATED (55_ZnH.scfp) ****
             **** ENERGY FILE WAS UPDATED (55_ZnH.en.tmp) ****
----------------------
UHF SPIN CONTAMINATION
----------------------

Warning: in a DFT calculation there is little theoretical justification to 
         calculate <S**2> as in Hartree-Fock theory. We will do it anyways
         but you should keep in mind that the values have only limited relevance

Expectation value of <S**2>     :     0.757190
Ideal value S*(S+1) for S=0.5   :     0.750000
Deviation                       :     0.007190

             **** THE GBW FILE WAS UPDATED (55_ZnH.gbw) ****
             **** DENSITY FILE WAS UPDATED (55_ZnH.scfp) ****
----------------
ORBITAL ENERGIES
----------------
                 SPIN UP ORBITALS
  NO   OCC          E(Eh)            E(eV) 
   0   1.0000    -347.111264     -9445.3777 
   1   1.0000     -42.254246     -1149.7965 
   2   1.0000     -37.224028     -1012.9173 
   3   1.0000     -37.224028     -1012.9173 
   4   1.0000     -37.222509     -1012.8760 
   5   1.0000      -4.944448      -134.5453 
   6   1.0000      -3.336659       -90.7951 
   7   1.0000      -3.336659       -90.7951 
   8   1.0000      -3.331561       -90.6564 
   9   1.0000      -0.625133       -17.0107 
  10   1.0000      -0.618914       -16.8415 
  11   1.0000      -0.618914       -16.8415 
  12   1.0000      -0.614789       -16.7293 
  13   1.0000      -0.614789       -16.7293 
  14   1.0000      -0.443793       -12.0762 
  15   1.0000      -0.276690        -7.5291 
  16   0.0000       0.015010         0.4084 
  17   0.0000       0.015010         0.4084 
  18   0.0000       0.028534         0.7765 
  19   0.0000       0.037194         1.0121 
  20   0.0000       0.066180         1.8008 
  21   0.0000       0.066180         1.8008 
  22   0.0000       0.084594         2.3019 
  23   0.0000       0.151049         4.1103 
  24   0.0000       0.176095         4.7918 
  25   0.0000       0.223250         6.0749 
  26   0.0000       0.223250         6.0749 
  27   0.0000       0.240375         6.5409 
  28   0.0000       0.240375         6.5409 
  29   0.0000       0.250468         6.8156 
  30   0.0000       0.270935         7.3725 
  31   0.0000       0.270935         7.3725 
  32   0.0000       0.344034         9.3616 
  33   0.0000       0.358119         9.7449 
  34   0.0000       0.358119         9.7449 
  35   0.0000       0.505092        13.7443 
  36   0.0000       0.579079        15.7576 
  37   0.0000       0.793317        21.5873 
  38   0.0000       0.793317        21.5873 
  39   0.0000       0.797388        21.6980 
  40   0.0000       0.797388        21.6980 
  41   0.0000       0.848116        23.0784 
  42   0.0000       0.858423        23.3589 
  43   0.0000       0.858425        23.3589 
  44   0.0000       0.913560        24.8592 
  45   0.0000       0.997930        27.1551 
  46   0.0000       0.997930        27.1551 
  47   0.0000       1.055880        28.7320 
  48   0.0000       1.055880        28.7320 
  49   0.0000       1.110423        30.2161 
  50   0.0000       1.163101        31.6496 
  51   0.0000       1.163101        31.6496 
  52   0.0000       1.272317        34.6215 
  53   0.0000       1.636395        44.5286 
  54   0.0000       1.743349        47.4389 
  55   0.0000       1.743349        47.4389 
  56   0.0000       1.829538        49.7843 
  57   0.0000       1.829545        49.7844 
  58   0.0000       2.119542        57.6757 
  59   0.0000       2.119542        57.6757 
  60   0.0000       2.321562        63.1729 
  61   0.0000       2.814762        76.5936 
  62   0.0000       2.877496        78.3007 
  63   0.0000       2.877509        78.3010 
  64   0.0000       2.907948        79.1293 
  65   0.0000       2.907948        79.1293 
  66   0.0000       3.010342        81.9156 
  67   0.0000       3.739236       101.7498 
  68   0.0000       3.739288       101.7512 
  69   0.0000       3.864729       105.1646 
  70   0.0000       3.864729       105.1646 
  71   0.0000       4.048024       110.1523 
  72   0.0000       4.048024       110.1523 
  73   0.0000       4.251753       115.6961 
  74   0.0000       4.330598       117.8416 
  75   0.0000       4.433732       120.6480 
  76   0.0000       4.433732       120.6480 
  77   0.0000       4.595890       125.0605 
  78   0.0000       5.040987       137.1722 
  79   0.0000       5.040987       137.1722 
  80   0.0000       5.087974       138.4508 
  81   0.0000       5.088003       138.4516 
  82   0.0000       5.282616       143.7473 
  83   0.0000       5.284635       143.8022 
  84   0.0000       5.284635       143.8022 
  85   0.0000       5.668870       154.2578 
  86   0.0000       7.467203       203.1929 
  87   0.0000       7.467243       203.1940 
  88   0.0000       7.472294       203.3315 
  89   0.0000       7.472294       203.3315 
  90   0.0000       7.479618       203.5308 
  91   0.0000       7.479638       203.5313 
  92   0.0000       7.554499       205.5684 
  93   0.0000       7.554499       205.5684 
  94   0.0000       7.840403       213.3482 
  95   0.0000      10.282998       279.8146 
  96   0.0000      10.283007       279.8149 
  97   0.0000      10.335492       281.2430 
  98   0.0000      10.335492       281.2430 
  99   0.0000      10.797201       293.8068 
 100   0.0000      15.973757       434.6680 
 101   0.0000      15.973757       434.6680 
 102   0.0000      15.998969       435.3541 
 103   0.0000      15.998981       435.3544 
 104   0.0000      16.097677       438.0401 
 105   0.0000      16.097677       438.0401 
 106   0.0000      16.180679       440.2987 
 107   0.0000      19.710379       536.3467 
 108   0.0000      19.710393       536.3471 
 109   0.0000      19.713910       536.4428 
 110   0.0000      19.713910       536.4428 
 111   0.0000      19.718224       536.5601 
 112   0.0000      19.718238       536.5605 
 113   0.0000      19.750288       537.4327 
 114   0.0000      19.750288       537.4327 
 115   0.0000      19.866245       540.5880 

                 SPIN DOWN ORBITALS
  NO   OCC          E(Eh)            E(eV) 
   0   1.0000    -347.110388     -9445.3538 
   1   1.0000     -42.253629     -1149.7797 
   2   1.0000     -37.223772     -1012.9103 
   3   1.0000     -37.223772     -1012.9103 
   4   1.0000     -37.221074     -1012.8369 
   5   1.0000      -4.942857      -134.5020 
   6   1.0000      -3.335480       -90.7630 
   7   1.0000      -3.335480       -90.7630 
   8   1.0000      -3.329829       -90.6092 
   9   1.0000      -0.617062       -16.7911 
  10   1.0000      -0.617039       -16.7905 
  11   1.0000      -0.617039       -16.7905 
  12   1.0000      -0.612347       -16.6628 
  13   1.0000      -0.612347       -16.6628 
  14   1.0000      -0.409023       -11.1301 
  15   0.0000      -0.020685        -0.5629 
  16   0.0000       0.024017         0.6535 
  17   0.0000       0.024017         0.6535 
  18   0.0000       0.032301         0.8790 
  19   0.0000       0.049862         1.3568 
  20   0.0000       0.073638         2.0038 
  21   0.0000       0.073639         2.0038 
  22   0.0000       0.092128         2.5069 
  23   0.0000       0.162632         4.4254 
  24   0.0000       0.199332         5.4241 
  25   0.0000       0.234121         6.3708 
  26   0.0000       0.234121         6.3708 
  27   0.0000       0.242710         6.6045 
  28   0.0000       0.242711         6.6045 
  29   0.0000       0.272758         7.4221 
  30   0.0000       0.280533         7.6337 
  31   0.0000       0.280533         7.6337 
  32   0.0000       0.354263         9.6400 
  33   0.0000       0.365964         9.9584 
  34   0.0000       0.365964         9.9584 
  35   0.0000       0.526954        14.3392 
  36   0.0000       0.583332        15.8733 
  37   0.0000       0.798920        21.7397 
  38   0.0000       0.798921        21.7398 
  39   0.0000       0.806163        21.9368 
  40   0.0000       0.806163        21.9368 
  41   0.0000       0.865620        23.5547 
  42   0.0000       0.865621        23.5547 
  43   0.0000       0.866923        23.5902 
  44   0.0000       0.929716        25.2989 
  45   0.0000       1.001266        27.2458 
  46   0.0000       1.001266        27.2458 
  47   0.0000       1.067681        29.0531 
  48   0.0000       1.067681        29.0531 
  49   0.0000       1.121042        30.5051 
  50   0.0000       1.173159        31.9233 
  51   0.0000       1.173159        31.9233 
  52   0.0000       1.279177        34.8082 
  53   0.0000       1.649128        44.8751 
  54   0.0000       1.752223        47.6804 
  55   0.0000       1.752223        47.6804 
  56   0.0000       1.841992        50.1232 
  57   0.0000       1.841998        50.1233 
  58   0.0000       2.131725        58.0072 
  59   0.0000       2.131725        58.0072 
  60   0.0000       2.344279        63.7911 
  61   0.0000       2.841407        77.3186 
  62   0.0000       2.881325        78.4048 
  63   0.0000       2.881335        78.4051 
  64   0.0000       2.916804        79.3703 
  65   0.0000       2.916804        79.3703 
  66   0.0000       3.029932        82.4486 
  67   0.0000       3.762906       102.3939 
  68   0.0000       3.762960       102.3953 
  69   0.0000       3.885829       105.7388 
  70   0.0000       3.885829       105.7388 
  71   0.0000       4.083598       111.1204 
  72   0.0000       4.083598       111.1204 
  73   0.0000       4.273584       116.2901 
  74   0.0000       4.343879       118.2030 
  75   0.0000       4.437402       120.7478 
  76   0.0000       4.437402       120.7478 
  77   0.0000       4.617363       125.6448 
  78   0.0000       5.042478       137.2128 
  79   0.0000       5.042478       137.2128 
  80   0.0000       5.090643       138.5234 
  81   0.0000       5.090671       138.5242 
  82   0.0000       5.289304       143.9293 
  83   0.0000       5.289304       143.9293 
  84   0.0000       5.290782       143.9695 
  85   0.0000       5.679049       154.5348 
  86   0.0000       7.468826       203.2371 
  87   0.0000       7.468866       203.2382 
  88   0.0000       7.475158       203.4094 
  89   0.0000       7.475158       203.4094 
  90   0.0000       7.483552       203.6378 
  91   0.0000       7.483572       203.6383 
  92   0.0000       7.559202       205.6963 
  93   0.0000       7.559202       205.6963 
  94   0.0000       7.846225       213.5066 
  95   0.0000      10.284283       279.8496 
  96   0.0000      10.284292       279.8498 
  97   0.0000      10.337466       281.2968 
  98   0.0000      10.337466       281.2968 
  99   0.0000      10.800425       293.8945 
 100   0.0000      15.975656       434.7197 
 101   0.0000      15.975656       434.7197 
 102   0.0000      16.000127       435.3856 
 103   0.0000      16.000139       435.3859 
 104   0.0000      16.099404       438.0871 
 105   0.0000      16.099404       438.0871 
 106   0.0000      16.182926       440.3598 
 107   0.0000      19.711577       536.3793 
 108   0.0000      19.711591       536.3797 
 109   0.0000      19.714806       536.4671 
 110   0.0000      19.714806       536.4671 
 111   0.0000      19.719373       536.5914 
 112   0.0000      19.719387       536.5918 
 113   0.0000      19.751778       537.4732 
 114   0.0000      19.751778       537.4732 
 115   0.0000      19.867968       540.6349 

                    ********************************
                    * MULLIKEN POPULATION ANALYSIS *
                    ********************************

--------------------------------------------
MULLIKEN ATOMIC CHARGES AND SPIN POPULATIONS
--------------------------------------------
   0 Zn:    0.181773    0.762199
   1 H :   -0.181773    0.237801
Sum of atomic charges         :   -0.0000000
Sum of atomic spin populations:    1.0000000

-----------------------------------------------------
MULLIKEN REDUCED ORBITAL CHARGES AND SPIN POPULATIONS
-----------------------------------------------------
CHARGE
  0 Zns       :     7.355007  s :     7.355007
      pz      :     4.476278  p :    12.476644
      px      :     4.000183
      py      :     4.000183
      dz2     :     1.988366  d :     9.985415
      dxz     :     1.998505
      dyz     :     1.998505
      dx2y2   :     2.000019
      dxy     :     2.000019
      f0      :     0.001130  f :     0.001151
      f+1     :     0.000006
      f-1     :     0.000006
      f+2     :     0.000005
      f-2     :     0.000005
      f+3     :     0.000000
      f-3     :     0.000000
      g0      :     0.000009  g :     0.000010
      g+1     :     0.000000
      g-1     :     0.000000
      g+2     :     0.000000
      g-2     :     0.000000
      g+3     :     0.000000
      g-3     :     0.000000
      g+4     :     0.000000
      g-4     :     0.000000
  1 H s       :     1.171461  s :     1.171461
      pz      :     0.008439  p :     0.011136
      px      :     0.001349
      py      :     0.001349
      dz2     :    -0.000689  d :    -0.000825
      dxz     :    -0.000043
      dyz     :    -0.000043
      dx2y2   :    -0.000024
      dxy     :    -0.000024

SPIN
  0 Zns       :     0.429656  s :     0.429656
      pz      :     0.322573  p :     0.322601
      px      :     0.000014
      py      :     0.000014
      dz2     :     0.009057  d :     0.009636
      dxz     :     0.000269
      dyz     :     0.000269
      dx2y2   :     0.000020
      dxy     :     0.000020
      f0      :     0.000302  f :     0.000304
      f+1     :    -0.000003
      f-1     :    -0.000003
      f+2     :     0.000004
      f-2     :     0.000004
      f+3     :     0.000000
      f-3     :     0.000000
      g0      :     0.000002  g :     0.000002
      g+1     :    -0.000000
      g-1     :    -0.000000
      g+2     :    -0.000000
      g-2     :    -0.000000
      g+3     :    -0.000000
      g-3     :    -0.000000
      g+4     :    -0.000000
      g-4     :     0.000000
  1 H s       :     0.244706  s :     0.244706
      pz      :    -0.006022  p :    -0.006333
      px      :    -0.000156
      py      :    -0.000156
      dz2     :    -0.000275  d :    -0.000571
      dxz     :    -0.000124
      dyz     :    -0.000124
      dx2y2   :    -0.000024
      dxy     :    -0.000024


                     *******************************
                     * LOEWDIN POPULATION ANALYSIS *
                     *******************************

-------------------------------------------
LOEWDIN ATOMIC CHARGES AND SPIN POPULATIONS
-------------------------------------------
   0 Zn:    0.529072    0.801744
   1 H :   -0.529072    0.198256

----------------------------------------------------
LOEWDIN REDUCED ORBITAL CHARGES AND SPIN POPULATIONS
----------------------------------------------------
CHARGE
  0 Zns       :     6.914671  s :     6.914671
      pz      :     4.613966  p :    12.576759
      px      :     3.981396
      py      :     3.981396
      dz2     :     2.017207  d :     9.973479
      dxz     :     1.980009
      dyz     :     1.980009
      dx2y2   :     1.998127
      dxy     :     1.998127
      f0      :     0.005602  f :     0.005974
      f+1     :     0.000176
      f-1     :     0.000176
      f+2     :     0.000010
      f-2     :     0.000010
      f+3     :     0.000000
      f-3     :     0.000000
      g0      :     0.000040  g :     0.000045
      g+1     :     0.000002
      g-1     :     0.000002
      g+2     :     0.000000
      g-2     :     0.000000
      g+3     :     0.000000
      g-3     :     0.000000
      g+4     :     0.000000
      g-4     :     0.000000
  1 H s       :     1.128983  s :     1.128983
      pz      :     0.223282  p :     0.246648
      px      :     0.011683
      py      :     0.011683
      dz2     :     0.096250  d :     0.153442
      dxz     :     0.026734
      dyz     :     0.026734
      dx2y2   :     0.001862
      dxy     :     0.001862

SPIN
  0 Zns       :     0.287566  s :     0.287566
      pz      :     0.480351  p :     0.481077
      px      :     0.000363
      py      :     0.000363
      dz2     :     0.030039  d :     0.030465
      dxz     :     0.000208
      dyz     :     0.000208
      dx2y2   :     0.000005
      dxy     :     0.000005
      f0      :     0.002545  f :     0.002620
      f+1     :     0.000029
      f-1     :     0.000029
      f+2     :     0.000008
      f-2     :     0.000008
      f+3     :     0.000000
      f-3     :     0.000000
      g0      :     0.000015  g :     0.000015
      g+1     :    -0.000000
      g-1     :    -0.000000
      g+2     :    -0.000000
      g-2     :    -0.000000
      g+3     :    -0.000000
      g-3     :    -0.000000
      g+4     :    -0.000000
      g-4     :     0.000000
  1 H s       :     0.140336  s :     0.140336
      pz      :     0.054916  p :     0.054487
      px      :    -0.000215
      py      :    -0.000215
      dz2     :     0.004231  d :     0.003434
      dxz     :    -0.000386
      dyz     :    -0.000386
      dx2y2   :    -0.000013
      dxy     :    -0.000013


                      *****************************
                      * MAYER POPULATION ANALYSIS *
                      *****************************

  NA   - Mulliken gross atomic population
  ZA   - Total nuclear charge
  QA   - Mulliken gross atomic charge
  VA   - Mayer's total valence
  BVA  - Mayer's bonded valence
  FA   - Mayer's free valence

  ATOM       NA         ZA         QA         VA         BVA        FA
  0 Zn    29.8182    30.0000     0.1818     1.5986     0.8602     0.7384
  1 H      1.1818     1.0000    -0.1818     0.9304     0.8602     0.0702

  Mayer bond orders larger than 0.100000
B(  0-Zn,  1-H ) :   0.8602 

-------
TIMINGS
-------

Total SCF time: 0 days 0 hours 3 min 28 sec 

Total time                  ....     208.926 sec
Sum of individual times     ....     208.600 sec  ( 99.8%)

Fock matrix formation       ....     208.280 sec  ( 99.7%)
  XC integration            ....       0.298 sec  (  0.1% of F)
    Basis function eval.    ....       0.069 sec  ( 23.0% of XC)
    Density eval.           ....       0.030 sec  ( 10.1% of XC)
    XC-Functional eval.     ....       0.016 sec  (  5.4% of XC)
    XC-Potential eval.      ....       0.073 sec  ( 24.5% of XC)
Diagonalization             ....       0.058 sec  (  0.0%)
Density matrix formation    ....       0.009 sec  (  0.0%)
Population analysis         ....       0.006 sec  (  0.0%)
Initial guess               ....       0.093 sec  (  0.0%)
Orbital Transformation      ....       0.000 sec  (  0.0%)
Orbital Orthonormalization  ....       0.000 sec  (  0.0%)
DIIS solution               ....       0.019 sec  (  0.0%)
Grid generation             ....       0.136 sec  (  0.1%)

-------------------------   --------------------
FINAL SINGLE POINT ENERGY     -1779.803477631026
-------------------------   --------------------


                            ***************************************
                            *     ORCA property calculations      *
                            ***************************************

                                    ---------------------
                                    Active property flags
                                    ---------------------
   (+) Dipole Moment


------------------------------------------------------------------------------
                       ORCA ELECTRIC PROPERTIES CALCULATION
------------------------------------------------------------------------------

Dipole Moment Calculation                       ... on
Quadrupole Moment Calculation                   ... off
Polarizability Calculation                      ... off
GBWName                                         ... 55_ZnH.gbw
Electron density file                           ... 55_ZnH.scfp
The origin for moment calculation is the CENTER OF MASS  = ( 0.000000,  0.000000  0.412898)

-------------
DIPOLE MOMENT
-------------
                                X             Y             Z
Electronic contribution:      0.00000       0.00000      -1.86562
Nuclear contribution   :      0.00000       0.00000       1.61237
                        -----------------------------------------
Total Dipole Moment    :      0.00000       0.00000      -0.25325
                        -----------------------------------------
Magnitude (a.u.)       :      0.25325
Magnitude (Debye)      :      0.64371



--------------------
Rotational spectrum 
--------------------
 
Rotational constants in cm-1:     0.000000     6.535423     6.535423 
Rotational constants in MHz :     0.000000 195927.048997 195927.048997 

 Dipole components along the rotational axes: 
x,y,z [a.u.] :    -0.253248     0.000000     0.000000 
x,y,z [Debye]:    -0.643706     0.000000     0.000000 

 

Timings for individual modules:

Sum of individual times         ...      212.347 sec (=   3.539 min)
GTO integral calculation        ...        2.908 sec (=   0.048 min)   1.4 %
SCF iterations                  ...      209.439 sec (=   3.491 min)  98.6 %
                             ****ORCA TERMINATED NORMALLY****
TOTAL RUN TIME: 0 days 0 hours 3 minutes 32 seconds 951 msec
