
                                 *****************
                                 * O   R   C   A *
                                 *****************

           --- An Ab Initio, DFT and Semiempirical electronic structure package ---

                  #######################################################
                  #                        -***-                        #
                  #          Department of theory and spectroscopy      #
                  #               Directorship: Frank Neese             #
                  #        Max Planck Institute fuer Kohlenforschung    #
                  #                Kaiser Wilhelm Platz 1               #
                  #                 D-45470 Muelheim/Ruhr               #
                  #                      Germany                        #
                  #                                                     #
                  #                  All rights reserved                #
                  #                        -***-                        #
                  #######################################################


                         Program Version 4.2.0 -  RELEASE  -


 With contributions from (in alphabetic order):
   Daniel Aravena         : Magnetic Suceptibility
   Michael Atanasov       : Ab Initio Ligand Field Theory (pilot matlab implementation)
   Alexander A. Auer      : GIAO ZORA, VPT2
   Ute Becker             : Parallelization
   Giovanni Bistoni       : ED, misc. LED, open-shell LED, HFLED
   Martin Brehm           : Molecular dynamics
   Dmytro Bykov           : SCF Hessian
   Vijay G. Chilkuri      : MRCI spin determinant printing, contributions to CSF-ICE
   Dipayan Datta          : RHF DLPNO-CCSD density
   Achintya Kumar Dutta   : EOM-CC, STEOM-CC
   Dmitry Ganyushin       : Spin-Orbit,Spin-Spin,Magnetic field MRCI
   Miquel Garcia          : C-PCM Hessian, Gaussian charge scheme
   Yang Guo               : DLPNO-NEVPT2, CIM, IAO-localization
   Andreas Hansen         : Spin unrestricted coupled pair/coupled cluster methods
   Benjamin Helmich-Paris : CASSCF linear response (MC-RPA)
   Lee Huntington         : MR-EOM, pCC
   Robert Izsak           : Overlap fitted RIJCOSX, COSX-SCS-MP3, EOM
   Christian Kollmar      : KDIIS, OOCD, Brueckner-CCSD(T), CCSD density
   Simone Kossmann        : Meta GGA functionals, TD-DFT gradient, OOMP2, MP2 Hessian
   Martin Krupicka        : AUTO-CI
   Lucas Lang             : DCDCAS
   Dagmar Lenk            : GEPOL surface, SMD
   Dimitrios Liakos       : Extrapolation schemes; Compound Job, initial MDCI parallelization
   Dimitrios Manganas     : Further ROCIS development; embedding schemes
   Dimitrios Pantazis     : SARC Basis sets
   Taras Petrenko         : DFT Hessian,TD-DFT gradient, ASA, ECA, R-Raman, ABS, FL, XAS/XES, NRVS
   Peter Pinski           : DLPNO-MP2, DLPNO-MP2 Gradient
   Christoph Reimann      : Effective Core Potentials
   Marius Retegan         : Local ZFS, SOC
   Christoph Riplinger    : Optimizer, TS searches, QM/MM, DLPNO-CCSD(T), (RO)-DLPNO pert. Triples
   Tobias Risthaus        : Range-separated hybrids, TD-DFT gradient, RPA, STAB
   Michael Roemelt        : Original ROCIS implementation
   Masaaki Saitow         : Open-shell DLPNO-CCSD energy and density
   Barbara Sandhoefer     : DKH picture change effects
   Avijit Sen             : IP-ROCIS
   Kantharuban Sivalingam : CASSCF convergence, NEVPT2, FIC-MRCI
   Bernardo de Souza      : ESD, SOC TD-DFT
   Georgi Stoychev        : AutoAux, RI-MP2 NMR
   Willem Van den Heuvel  : Paramagnetic NMR
   Boris Wezisla          : Elementary symmetry handling
   Frank Wennmohs         : Technical directorship


 We gratefully acknowledge several colleagues who have allowed us to
 interface, adapt or use parts of their codes:
   Stefan Grimme, W. Hujo, H. Kruse,             : VdW corrections, initial TS optimization,
                  C. Bannwarth                     DFT functionals, gCP, sTDA/sTD-DF
   Ed Valeev, F. Pavosevic, A. Kumar             : LibInt (2-el integral package), F12 methods
   Garnet Chan, S. Sharma, J. Yang, R. Olivares  : DMRG
   Ulf Ekstrom                                   : XCFun DFT Library
   Mihaly Kallay                                 : mrcc  (arbitrary order and MRCC methods)
   Andreas Klamt, Michael Diedenhofen            : otool_cosmo (COSMO solvation model)
   Jiri Pittner, Ondrej Demel                    : Mk-CCSD
   Frank Weinhold                                : gennbo (NPA and NBO analysis)
   Christopher J. Cramer and Donald G. Truhlar   : smd solvation model
   Lars Goerigk                                  : TD-DFT with DH, B97 family of functionals
   V. Asgeirsson, H. Jonsson                     : NEB implementation
   FAccTs GmbH                                   : IRC, NEB, NEB-TS, Multilevel, MM, QM/MM, CI optimization
   S Lehtola, MJT Oliveira, MAL Marques          : LibXC Library


 Your calculation uses the libint2 library for the computation of 2-el integrals
 For citations please refer to: http://libint.valeyev.net

 Your ORCA version has been built with support for libXC version: 4.2.3
 For citations please refer to: https://tddft.org/programs/libxc/

 This ORCA versions uses:
   CBLAS   interface :  Fast vector & matrix operations
   LAPACKE interface :  Fast linear algebra routines
   SCALAPACK package :  Parallel linear algebra routines


Your calculation utilizes the DFT-NL dispersion correction.
Cite in your paper:
Vydrov, O. A.; Van Voorhis, T. J. Chem. Phys. 2010, 133, 244103
Hujo, W.; Grimme, S. J. Chem. Theory Comput. 2011, 7, 3866 
   

----- Orbital basis set information -----
Your calculation utilizes the basis: aug-cc-pVTZ 
    H, B-Ne : Obtained from the ccRepo (grant-hill.group.shef.ac.uk/ccrepo) Feb. 2017
              R. A. Kendall, T. H. Dunning, Jr., R. J. Harrison, J. Chem. Phys. 96, 6796 (1992)
         He : Obtained from the ccRepo (grant-hill.group.shef.ac.uk/ccrepo) Feb. 2017
              D. E. Woon, T. H. Dunning, Jr., J. Chem. Phys. 100, 2975 (1994)
  Li-Be, Na : Obtained from the ccRepo (grant-hill.group.shef.ac.uk/ccrepo) Feb. 2017
              B. P. Prascher, D. E. Woon, K. A. Peterson, T. H. Dunning, Jr., A. K. Wilson, Theor. Chem. Acc. 128, 69 (2011)
         Mg : Obtained from the Peterson Research Group Website (tyr0.chem.wsu.edu/~kipeters) Feb. 2017
              B. P. Prascher, D. E. Woon, K. A. Peterson, T. H. Dunning, Jr., A. K. Wilson, Theor. Chem. Acc. 128, 69 (2011)
      Al-Ar : Obtained from the ccRepo (grant-hill.group.shef.ac.uk/ccrepo) Feb. 2017
              D. E. Woon, T. H. Dunning, Jr., J. Chem. Phys. 98, 1358 (1993)
      Sc-Zn : Obtained from the ccRepo (grant-hill.group.shef.ac.uk/ccrepo) Feb. 2017
              N. B. Balabanov, K. A. Peterson, J. Chem. Phys. 123, 064107 (2005)
              N. B. Balabanov, K. A. Peterson, J. Chem. Phys. 125, 074110 (2006)
      Ga-Kr : Obtained from the ccRepo (grant-hill.group.shef.ac.uk/ccrepo) Feb. 2017
              A. K. Wilson, D. E. Woon, K. A. Peterson, T. H. Dunning, Jr., J. Chem. Phys. 110, 7667 (1999)
     Ag, Au : Obtained from the Peterson Research Group Website (tyr0.chem.wsu.edu/~kipeters) Feb. 2017
              K. A. Peterson, C. Puzzarini, Theor. Chem. Acc. 114, 283 (2005)

----- AuxJK basis set information -----
Your calculation utilizes the auxiliary basis: def2/JK
   H-Ba, Hf-Rn: F. Weigend, J. Comput. Chem. 29, 167 (2008).

================================================================================
                                        WARNINGS
                       Please study these warnings very carefully!
================================================================================


WARNING: your system is open-shell and RHF/RKS was chosen
  ===> : WILL SWITCH to UHF/UKS


INFO   : the flag for use of LIBINT has been found!

================================================================================
                                       INPUT FILE
================================================================================
NAME = 57_ZnCl.in
|  1> #
|  2> # 57_ZnCl wb97x-v/aug-cc-pvtz
|  3> #
|  4> ! wb97x-v aug-cc-pvtz def2/jk grid4 nofinalgrid
|  5> 
|  6> *xyz 0 2
|  7>   Zn  0.00000000000000      0.00000000000000     -0.08307444970280
|  8>   Cl  0.00000000000000      0.00000000000000      2.08307444970280
|  9> *
| 10> 
| 11> %pal
| 12> nprocs 24
| 13> end
| 14> 
| 15> 
| 16>                          ****END OF INPUT****
================================================================================

                       ****************************
                       * Single Point Calculation *
                       ****************************

---------------------------------
CARTESIAN COORDINATES (ANGSTROEM)
---------------------------------
  Zn     0.000000    0.000000   -0.083074
  Cl     0.000000    0.000000    2.083074

----------------------------
CARTESIAN COORDINATES (A.U.)
----------------------------
  NO LB      ZA    FRAG     MASS         X           Y           Z
   0 Zn   30.0000    0    65.380    0.000000    0.000000   -0.156988
   1 Cl   17.0000    0    35.453    0.000000    0.000000    3.936440

--------------------------------
INTERNAL COORDINATES (ANGSTROEM)
--------------------------------
 Zn     0   0   0     0.000000000000     0.00000000     0.00000000
 Cl     1   0   0     2.166148899406     0.00000000     0.00000000

---------------------------
INTERNAL COORDINATES (A.U.)
---------------------------
 Zn     0   0   0     0.000000000000     0.00000000     0.00000000
 Cl     1   0   0     4.093428185172     0.00000000     0.00000000

---------------------
BASIS SET INFORMATION
---------------------
There are 2 groups of distinct atoms

 Group   1 Type Zn  : 116s77p23d3f2g contracted to 8s7p5d3f2g pattern {19191919191911/151515151511/77711/111/11}
 Group   2 Type Cl  : 42s17p3d2f contracted to 6s5p3d2f pattern {131313111/77111/111/11}

Atom   0Zn   basis set group =>   1
Atom   1Cl   basis set group =>   2
----------------------------------
AUXILIARY/JK BASIS SET INFORMATION
----------------------------------
There are 2 groups of distinct atoms

 Group   1 Type Zn  : 19s14p12d10f7g3h1i contracted to 16s13p11d9f5g3h1i pattern {4111111111111111/2111111111111/21111111111/211111111/31111/111/1}
 Group   2 Type Cl  : 16s12p10d4f1g contracted to 13s11p9d4f1g pattern {4111111111111/21111111111/211111111/1111/1}

Atom   0Zn   basis set group =>   1
Atom   1Cl   basis set group =>   2


           ************************************************************
           *        Program running with 24 parallel MPI-processes    *
           *              working on a common directory               *
           ************************************************************
------------------------------------------------------------------------------
                           ORCA GTO INTEGRAL CALCULATION
------------------------------------------------------------------------------

                         BASIS SET STATISTICS AND STARTUP INFO

 # of primitive gaussian shells          ...  285
 # of primitive gaussian functions       ...  623
 # of contracted shells                  ...   41
 # of contracted basis functions         ...  143
 Highest angular momentum                ...    4
 Maximum contraction depth               ...   19
 Integral package used                   ... LIBINT
 Integral threshhold            Thresh   ...  1.000e-10
 Primitive cut-off              TCut     ...  1.000e-11


------------------------------ INTEGRAL EVALUATION ----------------------------


 * One electron integrals 
 Pre-screening matrix                    ... done
 Shell pair data                         ... done (   0.001 sec)



           ************************************************************
           *        Program running with 24 parallel MPI-processes    *
           *              working on a common directory               *
           ************************************************************
-------------------------------------------------------------------------------
                                 ORCA SCF
-------------------------------------------------------------------------------

------------
SCF SETTINGS
------------
Hamiltonian:
 Density Functional     Method          .... DFT(GTOs)
 Exchange Functional    Exchange        .... WB97X-V
 Correlation Functional Correlation     .... WB97X-V
 Gradients option       PostSCFGGA      .... off
 Hybrid DFT is turned on
   Fraction HF Exchange ScalHFX         ....  0.167000
   Scaling of DF-GGA-X  ScalDFX         ....  0.000000
   Scaling of DF-GGA-C  ScalDFC         ....  1.000000
   Scaling of DF-LDA-C  ScalLDAC        ....  1.000000
   Perturbative correction              ....  0.000000
   Density functional embedding theory  .... OFF
 Long-range corrected/Screened/Range-Separated Hybrid DFT is turned on
   Amount of maximum screened exact exchange              ....  0.833000
   Range separation parameter mu (erf(mu*r12)/r12)        ....  0.300000
   NL short-range parameter             ....  6.000000
   NL long-range parameter              ....  0.010000


General Settings:
 Integral files         IntName         .... 57_ZnCl
 Hartree-Fock type      HFTyp           .... UHF
 Total Charge           Charge          ....    0
 Multiplicity           Mult            ....    2
 Number of Electrons    NEL             ....   47
 Basis Dimension        Dim             ....  143
 Nuclear Repulsion      ENuc            ....    124.5899468439 Eh

Convergence Acceleration:
 DIIS                   CNVDIIS         .... on
   Start iteration      DIISMaxIt       ....    12
   Startup error        DIISStart       ....  0.200000
   # of expansion vecs  DIISMaxEq       ....     5
   Bias factor          DIISBfac        ....   1.050
   Max. coefficient     DIISMaxC        ....  10.000
 Newton-Raphson         CNVNR           .... off
 SOSCF                  CNVSOSCF        .... off
 Level Shifting         CNVShift        .... on
   Level shift para.    LevelShift      ....    0.2500
   Turn off err/grad.   ShiftErr        ....    0.0010
 Zerner damping         CNVZerner       .... off
 Static damping         CNVDamp         .... on
   Fraction old density DampFac         ....    0.7000
   Max. Damping (<1)    DampMax         ....    0.9800
   Min. Damping (>=0)   DampMin         ....    0.0000
   Turn off err/grad.   DampErr         ....    0.1000
 Fernandez-Rico         CNVRico         .... off

SCF Procedure:
 Maximum # iterations   MaxIter         ....   125
 SCF integral mode      SCFMode         .... Direct
   Integral package                     .... LIBINT
 Reset frequency        DirectResetFreq ....    20
 Integral Threshold     Thresh          ....  1.000e-10 Eh
 Primitive CutOff       TCut            ....  1.000e-11 Eh

Convergence Tolerance:
 Convergence Check Mode ConvCheckMode   .... Total+1el-Energy
 Convergence forced     ConvForced      .... 0
 Energy Change          TolE            ....  1.000e-06 Eh
 1-El. energy change                    ....  1.000e-03 Eh
 DIIS Error             TolErr          ....  1.000e-06


Diagonalization of the overlap matrix:
Smallest eigenvalue                        ... 2.608e-04
Time for diagonalization                   ...    0.006 sec
Threshold for overlap eigenvalues          ... 1.000e-08
Number of eigenvalues below threshold      ... 0
Time for construction of square roots      ...    0.003 sec
Total time needed                          ...    0.009 sec

-------------------
DFT GRID GENERATION
-------------------

General Integration Accuracy     IntAcc      ...  4.670
Radial Grid Type                 RadialGrid  ... Gauss-Chebyshev
Angular Grid (max. acc.)         AngularGrid ... Lebedev-302
Angular grid pruning method      GridPruning ... 3 (G Style)
Weight generation scheme         WeightScheme... Becke
Basis function cutoff            BFCut       ...    1.0000e-10
Integration weight cutoff        WCut        ...    1.0000e-14
Grids for H and He will be reduced by one unit

# of grid points (after initial pruning)     ...  16378 (   0.0 sec)
# of grid points (after weights+screening)   ...  16351 (   0.0 sec)
nearest neighbour list constructed           ...    0.0 sec
Grid point re-assignment to atoms done       ...    0.0 sec
Grid point division into batches done        ...    0.1 sec
Reduced shell lists constructed in    0.1 sec

Total number of grid points                  ...    16351
Total number of batches                      ...      256
Average number of points per batch           ...       63
Average number of grid points per atom       ...     8176
Average number of shells per batch           ...    14.00 (34.15%)
Average number of basis functions per batch  ...    31.50 (22.03%)
Average number of large shells per batch     ...     6.83 (48.81%)
Average number of large basis fcns per batch ...    16.17 (51.32%)
Maximum spatial batch extension              ...  23.02, 23.02, 16.62 au
Average spatial batch extension              ...   0.80,  0.78,  0.61 au

Time for grid setup =    0.158 sec

------------------------------
INITIAL GUESS: MODEL POTENTIAL
------------------------------
Loading Hartree-Fock densities                     ... done
Calculating cut-offs                               ... done
Setting up the integral package                    ... done
Initializing the effective Hamiltonian             ... done
Starting the Coulomb interaction                   ... done (   0.0 sec)
Reading the grid                                   ... done
Mapping shells                                     ... done
Starting the XC term evaluation                    ... done (   0.0 sec)
  promolecular density results
     # of electrons  =     46.999999447
     EX              =    -74.060779223
     EC              =     -2.774888379
     EX+EC           =    -76.835667602
Transforming the Hamiltonian                       ... done (   0.0 sec)
Diagonalizing the Hamiltonian                      ... done (   0.0 sec)
Back transforming the eigenvectors                 ... done (   0.0 sec)
Now organizing SCF variables                       ... done
                      ------------------
                      INITIAL GUESS DONE (   0.3 sec)
                      ------------------
--------------
SCF ITERATIONS
--------------
ITER       Energy         Delta-E        Max-DP      RMS-DP      [F,P]     Damp
               ***  Starting incremental Fock matrix formation  ***
  0  -2235.8617928185   0.000000000000 0.33931908  0.00549203  1.9604668 0.7000
  1  -2237.7151091698  -1.853316351328 0.16611563  0.00208072  0.6334977 0.7000
  2  -2238.3563876989  -0.641278529160 0.11902433  0.00169930  0.3307031 0.7000
  3  -2238.7334700428  -0.377082343818 0.07927284  0.00136461  0.3205013 0.7000
  4  -2238.9971342353  -0.263664192526 0.07019590  0.00100797  0.2330326 0.7000
                               ***Turning on DIIS***
  5  -2239.1831048789  -0.185970643598 0.05837953  0.00074583  0.1577650 0.7000
  6  -2239.3146160875  -0.131511208647 0.05021590  0.00062703  0.1051111 0.7000
  7  -2239.4079931871  -0.093377099555 0.14653699  0.00176093  0.0759245 0.0000
  8  -2239.6334694845  -0.225476297404 0.03254606  0.00030163  0.0123997 0.0000
  9  -2239.6345596310  -0.001090146513 0.01967852  0.00020037  0.0083558 0.0000
 10  -2239.6350959078  -0.000536276770 0.01182598  0.00013641  0.0064965 0.0000
 11  -2239.6354159125  -0.000320004723 0.00667068  0.00008716  0.0041458 0.0000
 12  -2239.6355445288  -0.000128616312 0.00394173  0.00004512  0.0018992 0.0000
 13  -2239.6355824061  -0.000037877303 0.00208160  0.00002070  0.0010643 0.0000
 14  -2239.6355918723  -0.000009466180 0.00166879  0.00001714  0.0004625 0.0000
 15  -2239.6355944938  -0.000002621507 0.00028478  0.00000296  0.0001002 0.0000
 16  -2239.6355945721  -0.000000078342 0.00007732  0.00000086  0.0000364 0.0000
                 **** Energy Check signals convergence ****

               *****************************************************
               *                     SUCCESS                       *
               *           SCF CONVERGED AFTER  17 CYCLES          *
               *****************************************************


Setting up the DFT-NL grid :

General Integration Accuracy     IntAcc      ...  4.340
Radial Grid Type                 RadialGrid  ... Gauss-Chebyshev
Angular Grid (max. acc.)         AngularGrid ... Lebedev-110
Angular grid pruning method      GridPruning ... 3 (G Style)
Weight generation scheme         WeightScheme... Becke
Basis function cutoff            BFCut       ...    1.0000e-10
Integration weight cutoff        WCut        ...    1.0000e-14
Grids for H and He will be reduced by one unit

# of grid points (after initial pruning)     ...   4756 (   0.0 sec)
# of grid points (after weights+screening)   ...   4732 (   0.0 sec)
nearest neighbour list constructed           ...    0.0 sec
Grid point re-assignment to atoms done       ...    0.0 sec
Grid point division into batches done        ...    0.0 sec
Reduced shell lists constructed in    0.0 sec

Total number of grid points                  ...     4732
Total number of batches                      ...       75
Average number of points per batch           ...       63
Average number of grid points per atom       ...     2366
Average number of shells per batch           ...    20.00 (48.78%)
Average number of basis functions per batch  ...    53.60 (37.48%)
Average number of large shells per batch     ...    14.40 (72.00%)
Average number of large basis fcns per batch ...    35.20 (65.67%)
Maximum spatial batch extension              ...  17.39, 26.34, 15.08 au
Average spatial batch extension              ...   0.85,  1.17,  0.80 au

Final grid set up in    0.0 sec

-------------------------------------------------------------------------------
                         DFT-NL dispersion correction                          
-------------------------------------------------------------------------------

SC Energy -2239.635594579 
NL    Energy 0.198155762 
SC+NL Energy -2239.437438816 
NL done in    0.0 sec
-------------------------------------------------------------------------------

----------------
TOTAL SCF ENERGY
----------------

Total Energy       :        -2239.43743882 Eh          -60938.19075 eV

Components:
Nuclear Repulsion  :          124.58994684 Eh            3390.26481 eV
Electronic Energy  :        -2364.02738566 Eh          -64328.45556 eV
One Electron Energy:        -3366.39861578 Eh          -91604.36341 eV
Two Electron Energy:         1002.37123012 Eh           27275.90785 eV

Virial components:
Potential Energy   :        -4475.70344062 Eh         -121790.08231 eV
Kinetic Energy     :         2236.26600180 Eh           60851.89156 eV
Virial Ratio       :            2.00141818


DFT components:
N(Alpha)           :       24.000005327271 electrons
N(Beta)            :       23.000005357780 electrons
N(Total)           :       47.000010685051 electrons
E(X)               :      -74.008100486898 Eh       
E(C)               :       -2.767685705103 Eh       
NL Energy, E(C,NL) :        0.198155762161 Eh       
E(XC)              :      -76.577630429840 Eh       
DFET-embed. en.    :        0.000000000000 Eh       

---------------
SCF CONVERGENCE
---------------

  Last Energy change         ...   -6.4801e-09  Tolerance :   1.0000e-06
  Last MAX-Density change    ...    4.6772e-05  Tolerance :   1.0000e-05
  Last RMS-Density change    ...    5.1319e-07  Tolerance :   1.0000e-06
  Last DIIS Error            ...    3.7957e-05  Tolerance :   1.0000e-06

             **** THE GBW FILE WAS UPDATED (57_ZnCl.gbw) ****
             **** DENSITY FILE WAS UPDATED (57_ZnCl.scfp) ****
             **** ENERGY FILE WAS UPDATED (57_ZnCl.en.tmp) ****
----------------------
UHF SPIN CONTAMINATION
----------------------

Warning: in a DFT calculation there is little theoretical justification to 
         calculate <S**2> as in Hartree-Fock theory. We will do it anyways
         but you should keep in mind that the values have only limited relevance

Expectation value of <S**2>     :     0.752846
Ideal value S*(S+1) for S=0.5   :     0.750000
Deviation                       :     0.002846

             **** THE GBW FILE WAS UPDATED (57_ZnCl.gbw) ****
             **** DENSITY FILE WAS UPDATED (57_ZnCl.scfp) ****
----------------
ORBITAL ENERGIES
----------------
                 SPIN UP ORBITALS
  NO   OCC          E(Eh)            E(eV) 
   0   1.0000    -347.144668     -9446.2867 
   1   1.0000    -101.517381     -2762.4284 
   2   1.0000     -42.285358     -1150.6431 
   3   1.0000     -37.255392     -1013.7707 
   4   1.0000     -37.255392     -1013.7707 
   5   1.0000     -37.253594     -1013.7218 
   6   1.0000      -9.533009      -259.4064 
   7   1.0000      -7.286821      -198.2845 
   8   1.0000      -7.281421      -198.1375 
   9   1.0000      -7.281421      -198.1375 
  10   1.0000      -4.978126      -135.4617 
  11   1.0000      -3.370429       -91.7140 
  12   1.0000      -3.370429       -91.7140 
  13   1.0000      -3.365692       -91.5851 
  14   1.0000      -0.914823       -24.8936 
  15   1.0000      -0.653159       -17.7734 
  16   1.0000      -0.652783       -17.7631 
  17   1.0000      -0.652777       -17.7630 
  18   1.0000      -0.651550       -17.7296 
  19   1.0000      -0.651550       -17.7296 
  20   1.0000      -0.476421       -12.9641 
  21   1.0000      -0.410627       -11.1737 
  22   1.0000      -0.410627       -11.1737 
  23   1.0000      -0.321103        -8.7377 
  24   0.0000       0.013559         0.3690 
  25   0.0000       0.013559         0.3690 
  26   0.0000       0.025821         0.7026 
  27   0.0000       0.036404         0.9906 
  28   0.0000       0.059748         1.6258 
  29   0.0000       0.059748         1.6258 
  30   0.0000       0.109273         2.9735 
  31   0.0000       0.128607         3.4996 
  32   0.0000       0.140993         3.8366 
  33   0.0000       0.140993         3.8366 
  34   0.0000       0.162902         4.4328 
  35   0.0000       0.219649         5.9769 
  36   0.0000       0.219649         5.9770 
  37   0.0000       0.248660         6.7664 
  38   0.0000       0.248660         6.7664 
  39   0.0000       0.251706         6.8493 
  40   0.0000       0.276353         7.5200 
  41   0.0000       0.277420         7.5490 
  42   0.0000       0.277420         7.5490 
  43   0.0000       0.359588         9.7849 
  44   0.0000       0.359588         9.7849 
  45   0.0000       0.400620        10.9014 
  46   0.0000       0.448762        12.2114 
  47   0.0000       0.448762        12.2114 
  48   0.0000       0.469740        12.7823 
  49   0.0000       0.641316        17.4511 
  50   0.0000       0.641316        17.4511 
  51   0.0000       0.730238        19.8708 
  52   0.0000       0.791957        21.5502 
  53   0.0000       0.791957        21.5502 
  54   0.0000       0.794321        21.6146 
  55   0.0000       0.794324        21.6147 
  56   0.0000       0.816584        22.2204 
  57   0.0000       0.842210        22.9177 
  58   0.0000       0.869259        23.6537 
  59   0.0000       0.869260        23.6538 
  60   0.0000       0.950190        25.8560 
  61   0.0000       0.970287        26.4029 
  62   0.0000       0.970287        26.4029 
  63   0.0000       1.029303        28.0088 
  64   0.0000       1.029303        28.0088 
  65   0.0000       1.113133        30.2899 
  66   0.0000       1.113133        30.2899 
  67   0.0000       1.114987        30.3403 
  68   0.0000       1.114988        30.3404 
  69   0.0000       1.132949        30.8291 
  70   0.0000       1.309151        35.6238 
  71   0.0000       1.311597        35.6904 
  72   0.0000       1.311597        35.6904 
  73   0.0000       1.710289        46.5393 
  74   0.0000       1.714925        46.6655 
  75   0.0000       1.714925        46.6655 
  76   0.0000       1.811680        49.2983 
  77   0.0000       1.811683        49.2984 
  78   0.0000       2.023334        55.0577 
  79   0.0000       2.023334        55.0577 
  80   0.0000       2.148052        58.4515 
  81   0.0000       2.337937        63.6185 
  82   0.0000       2.338002        63.6203 
  83   0.0000       2.448358        66.6232 
  84   0.0000       2.448358        66.6232 
  85   0.0000       2.452125        66.7257 
  86   0.0000       2.550632        69.4062 
  87   0.0000       2.550632        69.4062 
  88   0.0000       2.829184        76.9860 
  89   0.0000       2.850150        77.5565 
  90   0.0000       2.850184        77.5574 
  91   0.0000       2.862164        77.8834 
  92   0.0000       2.862164        77.8834 
  93   0.0000       2.889298        78.6218 
  94   0.0000       2.889301        78.6219 
  95   0.0000       2.925375        79.6035 
  96   0.0000       2.925375        79.6035 
  97   0.0000       2.972583        80.8881 
  98   0.0000       2.972583        80.8881 
  99   0.0000       3.067538        83.4719 
 100   0.0000       3.224248        87.7362 
 101   0.0000       4.316706       117.4635 
 102   0.0000       4.392054       119.5139 
 103   0.0000       4.392054       119.5139 
 104   0.0000       4.915898       133.7684 
 105   0.0000       5.008310       136.2830 
 106   0.0000       5.008310       136.2830 
 107   0.0000       5.054741       137.5465 
 108   0.0000       5.054757       137.5469 
 109   0.0000       5.213504       141.8667 
 110   0.0000       5.213504       141.8667 
 111   0.0000       5.514110       150.0466 
 112   0.0000       5.918290       161.0449 
 113   0.0000       7.430680       202.1991 
 114   0.0000       7.430980       202.2073 
 115   0.0000       7.434767       202.3103 
 116   0.0000       7.434767       202.3103 
 117   0.0000       7.441809       202.5019 
 118   0.0000       7.441882       202.5039 
 119   0.0000       7.463580       203.0943 
 120   0.0000       7.463580       203.0943 
 121   0.0000       7.525704       204.7848 
 122   0.0000      10.255289       279.0606 
 123   0.0000      10.255299       279.0609 
 124   0.0000      10.320697       280.8405 
 125   0.0000      10.320697       280.8405 
 126   0.0000      10.486784       285.3599 
 127   0.0000      15.941595       433.7929 
 128   0.0000      15.941595       433.7929 
 129   0.0000      15.965945       434.4554 
 130   0.0000      15.965986       434.4566 
 131   0.0000      16.048851       436.7114 
 132   0.0000      16.048851       436.7114 
 133   0.0000      16.147714       439.4016 
 134   0.0000      19.676478       535.4242 
 135   0.0000      19.676562       535.4265 
 136   0.0000      19.679789       535.5143 
 137   0.0000      19.679789       535.5143 
 138   0.0000      19.684153       535.6330 
 139   0.0000      19.684425       535.6404 
 140   0.0000      19.696484       535.9686 
 141   0.0000      19.696484       535.9686 
 142   0.0000      19.718306       536.5624 

                 SPIN DOWN ORBITALS
  NO   OCC          E(Eh)            E(eV) 
   0   1.0000    -347.143451     -9446.2535 
   1   1.0000    -101.516296     -2762.3988 
   2   1.0000     -42.284588     -1150.6221 
   3   1.0000     -37.255072     -1013.7620 
   4   1.0000     -37.255072     -1013.7620 
   5   1.0000     -37.252317     -1013.6871 
   6   1.0000      -9.531975      -259.3782 
   7   1.0000      -7.283428      -198.1922 
   8   1.0000      -7.280706      -198.1181 
   9   1.0000      -7.280706      -198.1181 
  10   1.0000      -4.976079      -135.4060 
  11   1.0000      -3.368812       -91.6700 
  12   1.0000      -3.368812       -91.6700 
  13   1.0000      -3.364516       -91.5531 
  14   1.0000      -0.906780       -24.6747 
  15   1.0000      -0.649871       -17.6839 
  16   1.0000      -0.649865       -17.6837 
  17   1.0000      -0.648788       -17.6544 
  18   1.0000      -0.648788       -17.6544 
  19   1.0000      -0.647421       -17.6172 
  20   1.0000      -0.454076       -12.3560 
  21   1.0000      -0.408204       -11.1078 
  22   1.0000      -0.408204       -11.1078 
  23   0.0000      -0.061243        -1.6665 
  24   0.0000       0.027787         0.7561 
  25   0.0000       0.027787         0.7561 
  26   0.0000       0.037556         1.0220 
  27   0.0000       0.041044         1.1169 
  28   0.0000       0.072447         1.9714 
  29   0.0000       0.072448         1.9714 
  30   0.0000       0.119649         3.2558 
  31   0.0000       0.140994         3.8366 
  32   0.0000       0.142948         3.8898 
  33   0.0000       0.142948         3.8898 
  34   0.0000       0.182389         4.9631 
  35   0.0000       0.223826         6.0906 
  36   0.0000       0.223826         6.0906 
  37   0.0000       0.258837         7.0433 
  38   0.0000       0.260446         7.0871 
  39   0.0000       0.260446         7.0871 
  40   0.0000       0.293004         7.9730 
  41   0.0000       0.293004         7.9730 
  42   0.0000       0.300184         8.1684 
  43   0.0000       0.361400         9.8342 
  44   0.0000       0.361400         9.8342 
  45   0.0000       0.413150        11.2424 
  46   0.0000       0.456410        12.4196 
  47   0.0000       0.456410        12.4196 
  48   0.0000       0.479397        13.0450 
  49   0.0000       0.643676        17.5153 
  50   0.0000       0.643676        17.5153 
  51   0.0000       0.739483        20.1224 
  52   0.0000       0.798841        21.7376 
  53   0.0000       0.798841        21.7376 
  54   0.0000       0.801534        21.8109 
  55   0.0000       0.801534        21.8109 
  56   0.0000       0.820774        22.3344 
  57   0.0000       0.853020        23.2118 
  58   0.0000       0.872707        23.7476 
  59   0.0000       0.872708        23.7476 
  60   0.0000       0.971757        26.4429 
  61   0.0000       0.982563        26.7369 
  62   0.0000       0.982563        26.7369 
  63   0.0000       1.037691        28.2370 
  64   0.0000       1.037691        28.2370 
  65   0.0000       1.113099        30.2890 
  66   0.0000       1.113099        30.2890 
  67   0.0000       1.117770        30.4161 
  68   0.0000       1.117770        30.4161 
  69   0.0000       1.143322        31.1114 
  70   0.0000       1.317993        35.8644 
  71   0.0000       1.318015        35.8650 
  72   0.0000       1.318015        35.8650 
  73   0.0000       1.716240        46.7013 
  74   0.0000       1.729125        47.0519 
  75   0.0000       1.729125        47.0519 
  76   0.0000       1.827052        49.7166 
  77   0.0000       1.827060        49.7168 
  78   0.0000       2.035472        55.3880 
  79   0.0000       2.035472        55.3880 
  80   0.0000       2.156767        58.6886 
  81   0.0000       2.339314        63.6560 
  82   0.0000       2.339379        63.6577 
  83   0.0000       2.450707        66.6871 
  84   0.0000       2.450707        66.6871 
  85   0.0000       2.459134        66.9164 
  86   0.0000       2.555825        69.5475 
  87   0.0000       2.555825        69.5475 
  88   0.0000       2.840170        77.2850 
  89   0.0000       2.856311        77.7242 
  90   0.0000       2.856349        77.7252 
  91   0.0000       2.863119        77.9094 
  92   0.0000       2.863119        77.9094 
  93   0.0000       2.893989        78.7494 
  94   0.0000       2.893991        78.7495 
  95   0.0000       2.936073        79.8946 
  96   0.0000       2.936073        79.8946 
  97   0.0000       2.978826        81.0580 
  98   0.0000       2.978826        81.0580 
  99   0.0000       3.078548        83.7716 
 100   0.0000       3.229698        87.8845 
 101   0.0000       4.329073       117.8001 
 102   0.0000       4.396878       119.6451 
 103   0.0000       4.396879       119.6451 
 104   0.0000       4.918004       133.8257 
 105   0.0000       5.010820       136.3513 
 106   0.0000       5.010820       136.3513 
 107   0.0000       5.058276       137.6427 
 108   0.0000       5.058295       137.6432 
 109   0.0000       5.218122       141.9923 
 110   0.0000       5.218122       141.9923 
 111   0.0000       5.520255       150.2138 
 112   0.0000       5.920484       161.1046 
 113   0.0000       7.434298       202.2975 
 114   0.0000       7.434598       202.3057 
 115   0.0000       7.439658       202.4434 
 116   0.0000       7.439658       202.4434 
 117   0.0000       7.447736       202.6632 
 118   0.0000       7.447809       202.6652 
 119   0.0000       7.470015       203.2695 
 120   0.0000       7.470015       203.2695 
 121   0.0000       7.532075       204.9582 
 122   0.0000      10.257243       279.1138 
 123   0.0000      10.257258       279.1142 
 124   0.0000      10.323051       280.9045 
 125   0.0000      10.323051       280.9045 
 126   0.0000      10.489908       285.4449 
 127   0.0000      15.944254       433.8652 
 128   0.0000      15.944254       433.8652 
 129   0.0000      15.967412       434.4954 
 130   0.0000      15.967453       434.4965 
 131   0.0000      16.050393       436.7534 
 132   0.0000      16.050393       436.7534 
 133   0.0000      16.149471       439.4494 
 134   0.0000      19.678312       535.4741 
 135   0.0000      19.678395       535.4764 
 136   0.0000      19.681137       535.5510 
 137   0.0000      19.681137       535.5510 
 138   0.0000      19.685533       535.6706 
 139   0.0000      19.685805       535.6780 
 140   0.0000      19.698010       536.0101 
 141   0.0000      19.698010       536.0101 
 142   0.0000      19.719889       536.6055 

                    ********************************
                    * MULLIKEN POPULATION ANALYSIS *
                    ********************************

--------------------------------------------
MULLIKEN ATOMIC CHARGES AND SPIN POPULATIONS
--------------------------------------------
   0 Zn:    0.531390    0.889071
   1 Cl:   -0.531390    0.110929
Sum of atomic charges         :   -0.0000000
Sum of atomic spin populations:    1.0000000

-----------------------------------------------------
MULLIKEN REDUCED ORBITAL CHARGES AND SPIN POPULATIONS
-----------------------------------------------------
CHARGE
  0 Zns       :     7.103135  s :     7.103135
      pz      :     4.277212  p :    12.358996
      px      :     4.040892
      py      :     4.040892
      dz2     :     1.991705  d :    10.002029
      dxz     :     2.005378
      dyz     :     2.005378
      dx2y2   :     1.999784
      dxy     :     1.999784
      f0      :     0.001915  f :     0.004433
      f+1     :     0.001257
      f-1     :     0.001257
      f+2     :     0.000003
      f-2     :     0.000003
      f+3     :     0.000000
      f-3     :     0.000000
      g0      :     0.000007  g :     0.000017
      g+1     :     0.000005
      g-1     :     0.000005
      g+2     :     0.000000
      g-2     :     0.000000
      g+3     :     0.000000
      g-3     :     0.000000
      g+4     :     0.000000
      g-4     :     0.000000
  1 Cls       :     5.980734  s :     5.980734
      pz      :     3.632767  p :    11.523155
      px      :     3.945194
      py      :     3.945194
      dz2     :     0.011994  d :     0.024998
      dxz     :     0.006359
      dyz     :     0.006359
      dx2y2   :     0.000143
      dxy     :     0.000143
      f0      :     0.000532  f :     0.002504
      f+1     :     0.000915
      f-1     :     0.000915
      f+2     :     0.000071
      f-2     :     0.000071
      f+3     :     0.000000
      f-3     :     0.000000

SPIN
  0 Zns       :     0.701828  s :     0.701828
      pz      :     0.179160  p :     0.184718
      px      :     0.002779
      py      :     0.002779
      dz2     :     0.005454  d :     0.002403
      dxz     :    -0.001548
      dyz     :    -0.001548
      dx2y2   :     0.000022
      dxy     :     0.000022
      f0      :     0.000138  f :     0.000121
      f+1     :    -0.000010
      f-1     :    -0.000010
      f+2     :     0.000002
      f-2     :     0.000002
      f+3     :    -0.000000
      f-3     :    -0.000000
      g0      :     0.000001  g :     0.000000
      g+1     :    -0.000000
      g-1     :    -0.000000
      g+2     :    -0.000000
      g-2     :    -0.000000
      g+3     :     0.000000
      g-3     :     0.000000
      g+4     :     0.000000
      g-4     :    -0.000000
  1 Cls       :    -0.001047  s :    -0.001047
      pz      :     0.116851  p :     0.114351
      px      :    -0.001250
      py      :    -0.001250
      dz2     :    -0.002246  d :    -0.002175
      dxz     :     0.000049
      dyz     :     0.000049
      dx2y2   :    -0.000014
      dxy     :    -0.000014
      f0      :    -0.000139  f :    -0.000200
      f+1     :    -0.000020
      f-1     :    -0.000020
      f+2     :    -0.000010
      f-2     :    -0.000010
      f+3     :     0.000000
      f-3     :     0.000000


                     *******************************
                     * LOEWDIN POPULATION ANALYSIS *
                     *******************************

-------------------------------------------
LOEWDIN ATOMIC CHARGES AND SPIN POPULATIONS
-------------------------------------------
   0 Zn:    0.233466    0.811518
   1 Cl:   -0.233466    0.188482

----------------------------------------------------
LOEWDIN REDUCED ORBITAL CHARGES AND SPIN POPULATIONS
----------------------------------------------------
CHARGE
  0 Zns       :     6.840263  s :     6.840263
      pz      :     4.503512  p :    12.655731
      px      :     4.076110
      py      :     4.076110
      dz2     :     2.118363  d :    10.247998
      dxz     :     2.065922
      dyz     :     2.065922
      dx2y2   :     1.998895
      dxy     :     1.998895
      f0      :     0.012190  f :     0.022457
      f+1     :     0.005129
      f-1     :     0.005129
      f+2     :     0.000004
      f-2     :     0.000004
      f+3     :     0.000000
      f-3     :     0.000000
      g0      :     0.000049  g :     0.000085
      g+1     :     0.000018
      g-1     :     0.000018
      g+2     :     0.000000
      g-2     :     0.000000
      g+3     :     0.000000
      g-3     :     0.000000
      g+4     :     0.000000
      g-4     :     0.000000
  1 Cls       :     5.717942  s :     5.717942
      pz      :     3.682091  p :    11.345532
      px      :     3.831721
      py      :     3.831721
      dz2     :     0.096033  d :     0.119601
      dxz     :     0.011280
      dyz     :     0.011280
      dx2y2   :     0.000504
      dxy     :     0.000504
      f0      :     0.029557  f :     0.050391
      f+1     :     0.009820
      f-1     :     0.009820
      f+2     :     0.000597
      f-2     :     0.000597
      f+3     :     0.000000
      f-3     :     0.000000

SPIN
  0 Zns       :     0.520295  s :     0.520295
      pz      :     0.273489  p :     0.279505
      px      :     0.003008
      py      :     0.003008
      dz2     :     0.013387  d :     0.009784
      dxz     :    -0.001803
      dyz     :    -0.001803
      dx2y2   :     0.000001
      dxy     :     0.000001
      f0      :     0.001856  f :     0.001926
      f+1     :     0.000031
      f-1     :     0.000031
      f+2     :     0.000004
      f-2     :     0.000004
      f+3     :    -0.000000
      f-3     :    -0.000000
      g0      :     0.000008  g :     0.000007
      g+1     :    -0.000000
      g-1     :    -0.000000
      g+2     :    -0.000000
      g-2     :    -0.000000
      g+3     :     0.000000
      g-3     :     0.000000
      g+4     :     0.000000
      g-4     :    -0.000000
  1 Cls       :     0.032561  s :     0.032561
      pz      :     0.136113  p :     0.134061
      px      :    -0.001026
      py      :    -0.001026
      dz2     :     0.021334  d :     0.021120
      dxz     :    -0.000104
      dyz     :    -0.000104
      dx2y2   :    -0.000003
      dxy     :    -0.000003
      f0      :     0.000956  f :     0.000740
      f+1     :    -0.000106
      f-1     :    -0.000106
      f+2     :    -0.000002
      f-2     :    -0.000002
      f+3     :     0.000000
      f-3     :     0.000000


                      *****************************
                      * MAYER POPULATION ANALYSIS *
                      *****************************

  NA   - Mulliken gross atomic population
  ZA   - Total nuclear charge
  QA   - Mulliken gross atomic charge
  VA   - Mayer's total valence
  BVA  - Mayer's bonded valence
  FA   - Mayer's free valence

  ATOM       NA         ZA         QA         VA         BVA        FA
  0 Zn    29.4686    30.0000     0.5314     1.6034     0.7518     0.8516
  1 Cl    17.5314    17.0000    -0.5314     0.7687     0.7518     0.0169

  Mayer bond orders larger than 0.100000
B(  0-Zn,  1-Cl) :   0.7518 

-------
TIMINGS
-------

Total SCF time: 0 days 0 hours 4 min 50 sec 

Total time                  ....     290.074 sec
Sum of individual times     ....     289.726 sec  ( 99.9%)

Fock matrix formation       ....     289.311 sec  ( 99.7%)
  XC integration            ....       0.421 sec  (  0.1% of F)
    Basis function eval.    ....       0.089 sec  ( 21.3% of XC)
    Density eval.           ....       0.045 sec  ( 10.8% of XC)
    XC-Functional eval.     ....       0.020 sec  (  4.9% of XC)
    XC-Potential eval.      ....       0.107 sec  ( 25.4% of XC)
Diagonalization             ....       0.092 sec  (  0.0%)
Density matrix formation    ....       0.012 sec  (  0.0%)
Population analysis         ....       0.007 sec  (  0.0%)
Initial guess               ....       0.101 sec  (  0.0%)
Orbital Transformation      ....       0.000 sec  (  0.0%)
Orbital Orthonormalization  ....       0.000 sec  (  0.0%)
DIIS solution               ....       0.030 sec  (  0.0%)
Grid generation             ....       0.173 sec  (  0.1%)

-------------------------   --------------------
FINAL SINGLE POINT ENERGY     -2239.437438816462
-------------------------   --------------------


                            ***************************************
                            *     ORCA property calculations      *
                            ***************************************

                                    ---------------------
                                    Active property flags
                                    ---------------------
   (+) Dipole Moment


------------------------------------------------------------------------------
                       ORCA ELECTRIC PROPERTIES CALCULATION
------------------------------------------------------------------------------

Dipole Moment Calculation                       ... on
Quadrupole Moment Calculation                   ... off
Polarizability Calculation                      ... off
GBWName                                         ... 57_ZnCl.gbw
Electron density file                           ... 57_ZnCl.scfp
The origin for moment calculation is the CENTER OF MASS  = ( 0.000000,  0.000000  1.282266)

-------------
DIPOLE MOMENT
-------------
                                X             Y             Z
Electronic contribution:      0.00000      -0.00000      -3.11653
Nuclear contribution   :      0.00000       0.00000       1.94334
                        -----------------------------------------
Total Dipole Moment    :      0.00000      -0.00000      -1.17319
                        -----------------------------------------
Magnitude (a.u.)       :      1.17319
Magnitude (Debye)      :      2.98201



--------------------
Rotational spectrum 
--------------------
 
Rotational constants in cm-1:     0.000000     0.156288     0.156288 
Rotational constants in MHz :     0.000000  4685.390286  4685.390286 

 Dipole components along the rotational axes: 
x,y,z [a.u.] :    -1.173189    -0.000000     0.000000 
x,y,z [Debye]:    -2.982010    -0.000000     0.000000 

 

Timings for individual modules:

Sum of individual times         ...      294.201 sec (=   4.903 min)
GTO integral calculation        ...        3.541 sec (=   0.059 min)   1.2 %
SCF iterations                  ...      290.661 sec (=   4.844 min)  98.8 %
                             ****ORCA TERMINATED NORMALLY****
TOTAL RUN TIME: 0 days 0 hours 4 minutes 54 seconds 816 msec
