
                                 *****************
                                 * O   R   C   A *
                                 *****************

           --- An Ab Initio, DFT and Semiempirical electronic structure package ---

                  #######################################################
                  #                        -***-                        #
                  #          Department of theory and spectroscopy      #
                  #               Directorship: Frank Neese             #
                  #        Max Planck Institute fuer Kohlenforschung    #
                  #                Kaiser Wilhelm Platz 1               #
                  #                 D-45470 Muelheim/Ruhr               #
                  #                      Germany                        #
                  #                                                     #
                  #                  All rights reserved                #
                  #                        -***-                        #
                  #######################################################


                         Program Version 4.2.0 -  RELEASE  -


 With contributions from (in alphabetic order):
   Daniel Aravena         : Magnetic Suceptibility
   Michael Atanasov       : Ab Initio Ligand Field Theory (pilot matlab implementation)
   Alexander A. Auer      : GIAO ZORA, VPT2
   Ute Becker             : Parallelization
   Giovanni Bistoni       : ED, misc. LED, open-shell LED, HFLED
   Martin Brehm           : Molecular dynamics
   Dmytro Bykov           : SCF Hessian
   Vijay G. Chilkuri      : MRCI spin determinant printing, contributions to CSF-ICE
   Dipayan Datta          : RHF DLPNO-CCSD density
   Achintya Kumar Dutta   : EOM-CC, STEOM-CC
   Dmitry Ganyushin       : Spin-Orbit,Spin-Spin,Magnetic field MRCI
   Miquel Garcia          : C-PCM Hessian, Gaussian charge scheme
   Yang Guo               : DLPNO-NEVPT2, CIM, IAO-localization
   Andreas Hansen         : Spin unrestricted coupled pair/coupled cluster methods
   Benjamin Helmich-Paris : CASSCF linear response (MC-RPA)
   Lee Huntington         : MR-EOM, pCC
   Robert Izsak           : Overlap fitted RIJCOSX, COSX-SCS-MP3, EOM
   Christian Kollmar      : KDIIS, OOCD, Brueckner-CCSD(T), CCSD density
   Simone Kossmann        : Meta GGA functionals, TD-DFT gradient, OOMP2, MP2 Hessian
   Martin Krupicka        : AUTO-CI
   Lucas Lang             : DCDCAS
   Dagmar Lenk            : GEPOL surface, SMD
   Dimitrios Liakos       : Extrapolation schemes; Compound Job, initial MDCI parallelization
   Dimitrios Manganas     : Further ROCIS development; embedding schemes
   Dimitrios Pantazis     : SARC Basis sets
   Taras Petrenko         : DFT Hessian,TD-DFT gradient, ASA, ECA, R-Raman, ABS, FL, XAS/XES, NRVS
   Peter Pinski           : DLPNO-MP2, DLPNO-MP2 Gradient
   Christoph Reimann      : Effective Core Potentials
   Marius Retegan         : Local ZFS, SOC
   Christoph Riplinger    : Optimizer, TS searches, QM/MM, DLPNO-CCSD(T), (RO)-DLPNO pert. Triples
   Tobias Risthaus        : Range-separated hybrids, TD-DFT gradient, RPA, STAB
   Michael Roemelt        : Original ROCIS implementation
   Masaaki Saitow         : Open-shell DLPNO-CCSD energy and density
   Barbara Sandhoefer     : DKH picture change effects
   Avijit Sen             : IP-ROCIS
   Kantharuban Sivalingam : CASSCF convergence, NEVPT2, FIC-MRCI
   Bernardo de Souza      : ESD, SOC TD-DFT
   Georgi Stoychev        : AutoAux, RI-MP2 NMR
   Willem Van den Heuvel  : Paramagnetic NMR
   Boris Wezisla          : Elementary symmetry handling
   Frank Wennmohs         : Technical directorship


 We gratefully acknowledge several colleagues who have allowed us to
 interface, adapt or use parts of their codes:
   Stefan Grimme, W. Hujo, H. Kruse,             : VdW corrections, initial TS optimization,
                  C. Bannwarth                     DFT functionals, gCP, sTDA/sTD-DF
   Ed Valeev, F. Pavosevic, A. Kumar             : LibInt (2-el integral package), F12 methods
   Garnet Chan, S. Sharma, J. Yang, R. Olivares  : DMRG
   Ulf Ekstrom                                   : XCFun DFT Library
   Mihaly Kallay                                 : mrcc  (arbitrary order and MRCC methods)
   Andreas Klamt, Michael Diedenhofen            : otool_cosmo (COSMO solvation model)
   Jiri Pittner, Ondrej Demel                    : Mk-CCSD
   Frank Weinhold                                : gennbo (NPA and NBO analysis)
   Christopher J. Cramer and Donald G. Truhlar   : smd solvation model
   Lars Goerigk                                  : TD-DFT with DH, B97 family of functionals
   V. Asgeirsson, H. Jonsson                     : NEB implementation
   FAccTs GmbH                                   : IRC, NEB, NEB-TS, Multilevel, MM, QM/MM, CI optimization
   S Lehtola, MJT Oliveira, MAL Marques          : LibXC Library


 Your calculation uses the libint2 library for the computation of 2-el integrals
 For citations please refer to: http://libint.valeyev.net

 Your ORCA version has been built with support for libXC version: 4.2.3
 For citations please refer to: https://tddft.org/programs/libxc/

 This ORCA versions uses:
   CBLAS   interface :  Fast vector & matrix operations
   LAPACKE interface :  Fast linear algebra routines
   SCALAPACK package :  Parallel linear algebra routines


Your calculation utilizes the DFT-NL dispersion correction.
Cite in your paper:
Vydrov, O. A.; Van Voorhis, T. J. Chem. Phys. 2010, 133, 244103
Hujo, W.; Grimme, S. J. Chem. Theory Comput. 2011, 7, 3866 
   

----- Orbital basis set information -----
Your calculation utilizes the basis: aug-cc-pVTZ 
    H, B-Ne : Obtained from the ccRepo (grant-hill.group.shef.ac.uk/ccrepo) Feb. 2017
              R. A. Kendall, T. H. Dunning, Jr., R. J. Harrison, J. Chem. Phys. 96, 6796 (1992)
         He : Obtained from the ccRepo (grant-hill.group.shef.ac.uk/ccrepo) Feb. 2017
              D. E. Woon, T. H. Dunning, Jr., J. Chem. Phys. 100, 2975 (1994)
  Li-Be, Na : Obtained from the ccRepo (grant-hill.group.shef.ac.uk/ccrepo) Feb. 2017
              B. P. Prascher, D. E. Woon, K. A. Peterson, T. H. Dunning, Jr., A. K. Wilson, Theor. Chem. Acc. 128, 69 (2011)
         Mg : Obtained from the Peterson Research Group Website (tyr0.chem.wsu.edu/~kipeters) Feb. 2017
              B. P. Prascher, D. E. Woon, K. A. Peterson, T. H. Dunning, Jr., A. K. Wilson, Theor. Chem. Acc. 128, 69 (2011)
      Al-Ar : Obtained from the ccRepo (grant-hill.group.shef.ac.uk/ccrepo) Feb. 2017
              D. E. Woon, T. H. Dunning, Jr., J. Chem. Phys. 98, 1358 (1993)
      Sc-Zn : Obtained from the ccRepo (grant-hill.group.shef.ac.uk/ccrepo) Feb. 2017
              N. B. Balabanov, K. A. Peterson, J. Chem. Phys. 123, 064107 (2005)
              N. B. Balabanov, K. A. Peterson, J. Chem. Phys. 125, 074110 (2006)
      Ga-Kr : Obtained from the ccRepo (grant-hill.group.shef.ac.uk/ccrepo) Feb. 2017
              A. K. Wilson, D. E. Woon, K. A. Peterson, T. H. Dunning, Jr., J. Chem. Phys. 110, 7667 (1999)
     Ag, Au : Obtained from the Peterson Research Group Website (tyr0.chem.wsu.edu/~kipeters) Feb. 2017
              K. A. Peterson, C. Puzzarini, Theor. Chem. Acc. 114, 283 (2005)

----- AuxJK basis set information -----
Your calculation utilizes the auxiliary basis: def2/JK
   H-Ba, Hf-Rn: F. Weigend, J. Comput. Chem. 29, 167 (2008).

================================================================================
                                        WARNINGS
                       Please study these warnings very carefully!
================================================================================


INFO   : the flag for use of LIBINT has been found!

================================================================================
                                       INPUT FILE
================================================================================
NAME = 59_ZnO.in
|  1> #
|  2> # 59_ZnO wb97x-v/aug-cc-pvtz
|  3> #
|  4> ! wb97x-v aug-cc-pvtz def2/jk grid4 nofinalgrid
|  5> 
|  6> *xyz 0 1
|  7>   Zn  0.00000000000000      0.00000000000000      0.14991809043900
|  8>   O   0.00000000000000      0.00000000000000      1.85008190956100
|  9> *
| 10> 
| 11> %pal
| 12> nprocs 24
| 13> end
| 14> 
| 15> 
| 16>                          ****END OF INPUT****
================================================================================

                       ****************************
                       * Single Point Calculation *
                       ****************************

---------------------------------
CARTESIAN COORDINATES (ANGSTROEM)
---------------------------------
  Zn     0.000000    0.000000    0.149918
  O      0.000000    0.000000    1.850082

----------------------------
CARTESIAN COORDINATES (A.U.)
----------------------------
  NO LB      ZA    FRAG     MASS         X           Y           Z
   0 Zn   30.0000    0    65.380    0.000000    0.000000    0.283304
   1 O     8.0000    0    15.999    0.000000    0.000000    3.496148

--------------------------------
INTERNAL COORDINATES (ANGSTROEM)
--------------------------------
 Zn     0   0   0     0.000000000000     0.00000000     0.00000000
 O      1   0   0     1.700163819122     0.00000000     0.00000000

---------------------------
INTERNAL COORDINATES (A.U.)
---------------------------
 Zn     0   0   0     0.000000000000     0.00000000     0.00000000
 O      1   0   0     3.212844000942     0.00000000     0.00000000

---------------------
BASIS SET INFORMATION
---------------------
There are 2 groups of distinct atoms

 Group   1 Type Zn  : 116s77p23d3f2g contracted to 8s7p5d3f2g pattern {19191919191911/151515151511/77711/111/11}
 Group   2 Type O   : 19s6p3d2f contracted to 5s4p3d2f pattern {88111/3111/111/11}

Atom   0Zn   basis set group =>   1
Atom   1O    basis set group =>   2
----------------------------------
AUXILIARY/JK BASIS SET INFORMATION
----------------------------------
There are 2 groups of distinct atoms

 Group   1 Type Zn  : 19s14p12d10f7g3h1i contracted to 16s13p11d9f5g3h1i pattern {4111111111111111/2111111111111/21111111111/211111111/31111/111/1}
 Group   2 Type O   : 14s10p6d2f1g contracted to 10s8p4d2f1g pattern {5111111111/31111111/3111/11/1}

Atom   0Zn   basis set group =>   1
Atom   1O    basis set group =>   2


           ************************************************************
           *        Program running with 24 parallel MPI-processes    *
           *              working on a common directory               *
           ************************************************************
------------------------------------------------------------------------------
                           ORCA GTO INTEGRAL CALCULATION
------------------------------------------------------------------------------

                         BASIS SET STATISTICS AND STARTUP INFO

 # of primitive gaussian shells          ...  251
 # of primitive gaussian functions       ...  567
 # of contracted shells                  ...   39
 # of contracted basis functions         ...  139
 Highest angular momentum                ...    4
 Maximum contraction depth               ...   19
 Integral package used                   ... LIBINT
 Integral threshhold            Thresh   ...  1.000e-10
 Primitive cut-off              TCut     ...  1.000e-11


------------------------------ INTEGRAL EVALUATION ----------------------------


 * One electron integrals 
 Pre-screening matrix                    ... done
 Shell pair data                         ... done (   0.001 sec)



           ************************************************************
           *        Program running with 24 parallel MPI-processes    *
           *              working on a common directory               *
           ************************************************************
-------------------------------------------------------------------------------
                                 ORCA SCF
-------------------------------------------------------------------------------

------------
SCF SETTINGS
------------
Hamiltonian:
 Density Functional     Method          .... DFT(GTOs)
 Exchange Functional    Exchange        .... WB97X-V
 Correlation Functional Correlation     .... WB97X-V
 Gradients option       PostSCFGGA      .... off
 Hybrid DFT is turned on
   Fraction HF Exchange ScalHFX         ....  0.167000
   Scaling of DF-GGA-X  ScalDFX         ....  0.000000
   Scaling of DF-GGA-C  ScalDFC         ....  1.000000
   Scaling of DF-LDA-C  ScalLDAC        ....  1.000000
   Perturbative correction              ....  0.000000
   Density functional embedding theory  .... OFF
 Long-range corrected/Screened/Range-Separated Hybrid DFT is turned on
   Amount of maximum screened exact exchange              ....  0.833000
   Range separation parameter mu (erf(mu*r12)/r12)        ....  0.300000
   NL short-range parameter             ....  6.000000
   NL long-range parameter              ....  0.010000


General Settings:
 Integral files         IntName         .... 59_ZnO
 Hartree-Fock type      HFTyp           .... RHF
 Total Charge           Charge          ....    0
 Multiplicity           Mult            ....    1
 Number of Electrons    NEL             ....   38
 Basis Dimension        Dim             ....  139
 Nuclear Repulsion      ENuc            ....     74.7001721620 Eh

Convergence Acceleration:
 DIIS                   CNVDIIS         .... on
   Start iteration      DIISMaxIt       ....    12
   Startup error        DIISStart       ....  0.200000
   # of expansion vecs  DIISMaxEq       ....     5
   Bias factor          DIISBfac        ....   1.050
   Max. coefficient     DIISMaxC        ....  10.000
 Newton-Raphson         CNVNR           .... off
 SOSCF                  CNVSOSCF        .... off
 Level Shifting         CNVShift        .... on
   Level shift para.    LevelShift      ....    0.2500
   Turn off err/grad.   ShiftErr        ....    0.0010
 Zerner damping         CNVZerner       .... off
 Static damping         CNVDamp         .... on
   Fraction old density DampFac         ....    0.7000
   Max. Damping (<1)    DampMax         ....    0.9800
   Min. Damping (>=0)   DampMin         ....    0.0000
   Turn off err/grad.   DampErr         ....    0.1000
 Fernandez-Rico         CNVRico         .... off

SCF Procedure:
 Maximum # iterations   MaxIter         ....   125
 SCF integral mode      SCFMode         .... Direct
   Integral package                     .... LIBINT
 Reset frequency        DirectResetFreq ....    20
 Integral Threshold     Thresh          ....  1.000e-10 Eh
 Primitive CutOff       TCut            ....  1.000e-11 Eh

Convergence Tolerance:
 Convergence Check Mode ConvCheckMode   .... Total+1el-Energy
 Convergence forced     ConvForced      .... 0
 Energy Change          TolE            ....  1.000e-06 Eh
 1-El. energy change                    ....  1.000e-03 Eh
 DIIS Error             TolErr          ....  1.000e-06


Diagonalization of the overlap matrix:
Smallest eigenvalue                        ... 2.738e-04
Time for diagonalization                   ...    0.004 sec
Threshold for overlap eigenvalues          ... 1.000e-08
Number of eigenvalues below threshold      ... 0
Time for construction of square roots      ...    0.002 sec
Total time needed                          ...    0.007 sec

-------------------
DFT GRID GENERATION
-------------------

General Integration Accuracy     IntAcc      ...  4.670
Radial Grid Type                 RadialGrid  ... Gauss-Chebyshev
Angular Grid (max. acc.)         AngularGrid ... Lebedev-302
Angular grid pruning method      GridPruning ... 3 (G Style)
Weight generation scheme         WeightScheme... Becke
Basis function cutoff            BFCut       ...    1.0000e-10
Integration weight cutoff        WCut        ...    1.0000e-14
Grids for H and He will be reduced by one unit

# of grid points (after initial pruning)     ...  15852 (   0.0 sec)
# of grid points (after weights+screening)   ...  15815 (   0.0 sec)
nearest neighbour list constructed           ...    0.0 sec
Grid point re-assignment to atoms done       ...    0.0 sec
Grid point division into batches done        ...    0.1 sec
Reduced shell lists constructed in    0.1 sec

Total number of grid points                  ...    15815
Total number of batches                      ...      248
Average number of points per batch           ...       63
Average number of grid points per atom       ...     7908
Average number of shells per batch           ...    13.58 (34.83%)
Average number of basis functions per batch  ...    29.75 (21.40%)
Average number of large shells per batch     ...     7.50 (55.21%)
Average number of large basis fcns per batch ...    17.17 (57.70%)
Maximum spatial batch extension              ...  22.45, 22.17, 15.93 au
Average spatial batch extension              ...   0.81,  0.79,  0.61 au

Time for grid setup =    0.154 sec

------------------------------
INITIAL GUESS: MODEL POTENTIAL
------------------------------
Loading Hartree-Fock densities                     ... done
Calculating cut-offs                               ... done
Setting up the integral package                    ... done
Initializing the effective Hamiltonian             ... done
Starting the Coulomb interaction                   ... done (   0.0 sec)
Reading the grid                                   ... done
Mapping shells                                     ... done
Starting the XC term evaluation                    ... done (   0.0 sec)
  promolecular density results
     # of electrons  =     38.000009506
     EX              =    -59.258459711
     EC              =     -2.231177979
     EX+EC           =    -61.489637690
Transforming the Hamiltonian                       ... done (   0.0 sec)
Diagonalizing the Hamiltonian                      ... done (   0.0 sec)
Back transforming the eigenvectors                 ... done (   0.0 sec)
Now organizing SCF variables                       ... done
                      ------------------
                      INITIAL GUESS DONE (   0.3 sec)
                      ------------------
--------------
SCF ITERATIONS
--------------
ITER       Energy         Delta-E        Max-DP      RMS-DP      [F,P]     Damp
               ***  Starting incremental Fock matrix formation  ***
  0  -1847.2304847654   0.000000000000 1.55531523  0.02528191  2.9894623 0.7000
  1  -1850.7066236478  -3.476138882387 0.30809805  0.00556740  1.0722213 0.7000
  2  -1852.0135351790  -1.306911531241 0.35142276  0.00672744  0.4829355 0.7000
  3  -1852.7889111792  -0.775376000222 0.29487947  0.00543275  0.4499141 0.7000
  4  -1853.3053394899  -0.516428310662 0.22622190  0.00405117  0.3283726 0.7000
  5  -1853.6680390390  -0.362699549139 0.16985616  0.00299000  0.2295892 0.7000
                               ***Turning on DIIS***
  6  -1853.9246143849  -0.256575345905 0.12526328  0.00219642  0.1565755 0.7000
  7  -1854.1057216087  -0.181107223824 0.09354886  0.00169980  0.1067296 0.7000
  8  -1854.2335988932  -0.127877284477 0.22504355  0.00427428  0.0755438 0.0000
  9  -1854.5377692206  -0.304170327357 0.00831699  0.00021373  0.0071411 0.0000
 10  -1854.5380492872  -0.000280066636 0.00576019  0.00010621  0.0042058 0.0000
 11  -1854.5381334303  -0.000084143058 0.00367281  0.00006733  0.0022483 0.0000
 12  -1854.5381577126  -0.000024282309 0.00201888  0.00003718  0.0019581 0.0000
 13  -1854.5381677331  -0.000010020541 0.00158991  0.00003056  0.0004785 0.0000
 14  -1854.5381705117  -0.000002778559 0.00062338  0.00000741  0.0001565 0.0000
 15  -1854.5381707441  -0.000000232442 0.00045039  0.00000458  0.0000744 0.0000
                 **** Energy Check signals convergence ****

               *****************************************************
               *                     SUCCESS                       *
               *           SCF CONVERGED AFTER  16 CYCLES          *
               *****************************************************


Setting up the DFT-NL grid :

General Integration Accuracy     IntAcc      ...  4.340
Radial Grid Type                 RadialGrid  ... Gauss-Chebyshev
Angular Grid (max. acc.)         AngularGrid ... Lebedev-110
Angular grid pruning method      GridPruning ... 3 (G Style)
Weight generation scheme         WeightScheme... Becke
Basis function cutoff            BFCut       ...    1.0000e-10
Integration weight cutoff        WCut        ...    1.0000e-14
Grids for H and He will be reduced by one unit

# of grid points (after initial pruning)     ...   4628 (   0.0 sec)
# of grid points (after weights+screening)   ...   4603 (   0.0 sec)
nearest neighbour list constructed           ...    0.0 sec
Grid point re-assignment to atoms done       ...    0.0 sec
Grid point division into batches done        ...    0.0 sec
Reduced shell lists constructed in    0.0 sec

Total number of grid points                  ...     4603
Total number of batches                      ...       72
Average number of points per batch           ...       63
Average number of grid points per atom       ...     2302
Average number of shells per batch           ...    18.00 (46.15%)
Average number of basis functions per batch  ...    49.50 (35.61%)
Average number of large shells per batch     ...    13.75 (76.39%)
Average number of large basis fcns per batch ...    34.75 (70.20%)
Maximum spatial batch extension              ...  17.92, 26.34, 14.62 au
Average spatial batch extension              ...   0.72,  0.98,  0.61 au

Final grid set up in    0.0 sec

-------------------------------------------------------------------------------
                         DFT-NL dispersion correction                          
-------------------------------------------------------------------------------

SC Energy -1854.538170812 
NL    Energy 0.160578709 
SC+NL Energy -1854.377592103 
NL done in    0.0 sec
-------------------------------------------------------------------------------

----------------
TOTAL SCF ENERGY
----------------

Total Energy       :        -1854.37759210 Eh          -50460.17963 eV

Components:
Nuclear Repulsion  :           74.70017216 Eh            2032.69502 eV
Electronic Energy  :        -1929.07776427 Eh          -52492.87465 eV
One Electron Energy:        -2734.76828241 Eh          -74416.82824 eV
Two Electron Energy:          805.69051814 Eh           21923.95359 eV

Virial components:
Potential Energy   :        -3706.42057143 Eh         -100856.83121 eV
Kinetic Energy     :         1852.04297933 Eh           50396.65158 eV
Virial Ratio       :            2.00126056


DFT components:
N(Alpha)           :       19.000006906301 electrons
N(Beta)            :       19.000006906301 electrons
N(Total)           :       38.000013812602 electrons
E(X)               :      -59.265411852924 Eh       
E(C)               :       -2.236694307048 Eh       
NL Energy, E(C,NL) :        0.160578708800 Eh       
E(XC)              :      -61.341527451172 Eh       
DFET-embed. en.    :        0.000000000000 Eh       

---------------
SCF CONVERGENCE
---------------

  Last Energy change         ...   -6.7879e-08  Tolerance :   1.0000e-06
  Last MAX-Density change    ...    9.6655e-05  Tolerance :   1.0000e-05
  Last RMS-Density change    ...    1.8464e-06  Tolerance :   1.0000e-06
  Last DIIS Error            ...    4.0199e-05  Tolerance :   1.0000e-06

             **** THE GBW FILE WAS UPDATED (59_ZnO.gbw) ****
             **** DENSITY FILE WAS UPDATED (59_ZnO.scfp) ****
             **** ENERGY FILE WAS UPDATED (59_ZnO.en.tmp) ****
             **** THE GBW FILE WAS UPDATED (59_ZnO.gbw) ****
             **** DENSITY FILE WAS UPDATED (59_ZnO.scfp) ****
----------------
ORBITAL ENERGIES
----------------

  NO   OCC          E(Eh)            E(eV) 
   0   2.0000    -347.149192     -9446.4098 
   1   2.0000     -42.292522     -1150.8380 
   2   2.0000     -37.261949     -1013.9492 
   3   2.0000     -37.261949     -1013.9492 
   4   2.0000     -37.261116     -1013.9265 
   5   2.0000     -19.170992      -521.6692 
   6   2.0000      -4.984418      -135.6329 
   7   2.0000      -3.375519       -91.8526 
   8   2.0000      -3.374402       -91.8222 
   9   2.0000      -3.374402       -91.8222 
  10   2.0000      -0.978484       -26.6259 
  11   2.0000      -0.660031       -17.9603 
  12   2.0000      -0.660031       -17.9603 
  13   2.0000      -0.654235       -17.8026 
  14   2.0000      -0.654235       -17.8026 
  15   2.0000      -0.650869       -17.7111 
  16   2.0000      -0.393692       -10.7129 
  17   2.0000      -0.349977        -9.5234 
  18   2.0000      -0.349977        -9.5234 
  19   0.0000      -0.084499        -2.2993 
  20   0.0000       0.022069         0.6005 
  21   0.0000       0.022826         0.6211 
  22   0.0000       0.022826         0.6211 
  23   0.0000       0.044500         1.2109 
  24   0.0000       0.072911         1.9840 
  25   0.0000       0.072911         1.9840 
  26   0.0000       0.121133         3.2962 
  27   0.0000       0.166890         4.5413 
  28   0.0000       0.214792         5.8448 
  29   0.0000       0.221183         6.0187 
  30   0.0000       0.221183         6.0187 
  31   0.0000       0.231239         6.2923 
  32   0.0000       0.231239         6.2923 
  33   0.0000       0.268594         7.3088 
  34   0.0000       0.268594         7.3088 
  35   0.0000       0.289514         7.8781 
  36   0.0000       0.313760         8.5379 
  37   0.0000       0.313760         8.5379 
  38   0.0000       0.363193         9.8830 
  39   0.0000       0.543287        14.7836 
  40   0.0000       0.698213        18.9993 
  41   0.0000       0.698213        18.9993 
  42   0.0000       0.764500        20.8031 
  43   0.0000       0.809016        22.0144 
  44   0.0000       0.809016        22.0144 
  45   0.0000       0.826606        22.4931 
  46   0.0000       0.826607        22.4931 
  47   0.0000       0.830578        22.6012 
  48   0.0000       0.898332        24.4449 
  49   0.0000       0.898332        24.4449 
  50   0.0000       0.977235        26.5919 
  51   0.0000       1.012400        27.5488 
  52   0.0000       1.012400        27.5488 
  53   0.0000       1.078283        29.3416 
  54   0.0000       1.078283        29.3416 
  55   0.0000       1.226028        33.3619 
  56   0.0000       1.240409        33.7532 
  57   0.0000       1.675488        45.5924 
  58   0.0000       1.675490        45.5924 
  59   0.0000       1.702488        46.3270 
  60   0.0000       1.702488        46.3270 
  61   0.0000       1.837642        50.0048 
  62   0.0000       1.837642        50.0048 
  63   0.0000       1.936248        52.6880 
  64   0.0000       2.022045        55.0226 
  65   0.0000       2.039298        55.4921 
  66   0.0000       2.039298        55.4921 
  67   0.0000       2.110629        57.4331 
  68   0.0000       2.110631        57.4332 
  69   0.0000       2.288352        62.2692 
  70   0.0000       2.288352        62.2692 
  71   0.0000       2.322674        63.2032 
  72   0.0000       2.322682        63.2034 
  73   0.0000       2.483585        67.5818 
  74   0.0000       2.621229        71.3273 
  75   0.0000       2.662971        72.4631 
  76   0.0000       2.662971        72.4631 
  77   0.0000       2.849840        77.5481 
  78   0.0000       2.849842        77.5481 
  79   0.0000       3.121935        84.9522 
  80   0.0000       3.121935        84.9522 
  81   0.0000       3.668676        99.8297 
  82   0.0000       3.992953       108.6538 
  83   0.0000       3.992953       108.6538 
  84   0.0000       4.290819       116.7591 
  85   0.0000       4.401153       119.7615 
  86   0.0000       4.423045       120.3572 
  87   0.0000       4.423045       120.3572 
  88   0.0000       5.013948       136.4365 
  89   0.0000       5.013948       136.4365 
  90   0.0000       5.099948       138.7766 
  91   0.0000       5.099951       138.7767 
  92   0.0000       5.163388       140.5029 
  93   0.0000       5.299575       144.2088 
  94   0.0000       5.299575       144.2088 
  95   0.0000       5.708779       155.3438 
  96   0.0000       6.242351       169.8630 
  97   0.0000       6.242351       169.8630 
  98   0.0000       6.284420       171.0078 
  99   0.0000       6.284443       171.0084 
 100   0.0000       6.393884       173.9864 
 101   0.0000       6.428779       174.9360 
 102   0.0000       6.428779       174.9360 
 103   0.0000       6.716531       182.7661 
 104   0.0000       6.716586       182.7676 
 105   0.0000       6.761184       183.9812 
 106   0.0000       6.761184       183.9812 
 107   0.0000       7.028289       191.2495 
 108   0.0000       7.436171       202.3485 
 109   0.0000       7.436174       202.3486 
 110   0.0000       7.440171       202.4573 
 111   0.0000       7.440171       202.4573 
 112   0.0000       7.489691       203.8049 
 113   0.0000       7.489696       203.8050 
 114   0.0000       7.736123       210.5106 
 115   0.0000       7.736123       210.5106 
 116   0.0000       8.065227       219.4660 
 117   0.0000      10.248431       278.8740 
 118   0.0000      10.248433       278.8740 
 119   0.0000      10.394474       282.8480 
 120   0.0000      10.394474       282.8480 
 121   0.0000      10.449629       284.3489 
 122   0.0000      11.551655       314.3365 
 123   0.0000      15.940197       433.7548 
 124   0.0000      15.940197       433.7548 
 125   0.0000      15.985986       435.0008 
 126   0.0000      15.986002       435.0012 
 127   0.0000      16.099333       438.0851 
 128   0.0000      16.099333       438.0851 
 129   0.0000      16.144055       439.3021 
 130   0.0000      19.675164       535.3884 
 131   0.0000      19.675175       535.3887 
 132   0.0000      19.677172       535.4431 
 133   0.0000      19.677172       535.4431 
 134   0.0000      19.698860       536.0332 
 135   0.0000      19.698889       536.0340 
 136   0.0000      19.783893       538.3471 
 137   0.0000      19.783893       538.3471 
 138   0.0000      19.893933       541.3414 

                    ********************************
                    * MULLIKEN POPULATION ANALYSIS *
                    ********************************

-----------------------
MULLIKEN ATOMIC CHARGES
-----------------------
   0 Zn:    0.853845
   1 O :   -0.853845
Sum of atomic charges:    0.0000000

--------------------------------
MULLIKEN REDUCED ORBITAL CHARGES
--------------------------------
  0 Zns       :     6.858680  s :     6.858680
      pz      :     4.034082  p :    12.311945
      px      :     4.138932
      py      :     4.138932
      dz2     :     1.949850  d :     9.964513
      dxz     :     2.007434
      dyz     :     2.007434
      dx2y2   :     1.999898
      dxy     :     1.999898
      f0      :     0.003406  f :     0.010928
      f+1     :     0.003647
      f-1     :     0.003647
      f+2     :     0.000114
      f-2     :     0.000114
      f+3     :     0.000000
      f-3     :     0.000000
      g0      :     0.000027  g :     0.000088
      g+1     :     0.000030
      g-1     :     0.000030
      g+2     :     0.000000
      g-2     :     0.000000
      g+3     :     0.000000
      g-3     :     0.000000
      g+4     :     0.000000
      g-4     :     0.000000
  1 O s       :     3.986760  s :     3.986760
      pz      :     1.160622  p :     4.845386
      px      :     1.842382
      py      :     1.842382
      dz2     :     0.006025  d :     0.018873
      dxz     :     0.006501
      dyz     :     0.006501
      dx2y2   :    -0.000077
      dxy     :    -0.000077
      f0      :     0.000547  f :     0.002825
      f+1     :     0.001074
      f-1     :     0.001074
      f+2     :     0.000065
      f-2     :     0.000065
      f+3     :     0.000000
      f-3     :     0.000000


                     *******************************
                     * LOEWDIN POPULATION ANALYSIS *
                     *******************************

----------------------
LOEWDIN ATOMIC CHARGES
----------------------
   0 Zn:    0.724709
   1 O :   -0.724709

-------------------------------
LOEWDIN REDUCED ORBITAL CHARGES
-------------------------------
  0 Zns       :     6.580389  s :     6.580389
      pz      :     4.157686  p :    12.500150
      px      :     4.171232
      py      :     4.171232
      dz2     :     2.060994  d :    10.135084
      dxz     :     2.040603
      dyz     :     2.040603
      dx2y2   :     1.996442
      dxy     :     1.996442
      f0      :     0.024544  f :     0.059197
      f+1     :     0.017136
      f-1     :     0.017136
      f+2     :     0.000190
      f-2     :     0.000190
      f+3     :     0.000000
      f-3     :     0.000000
      g0      :     0.000220  g :     0.000472
      g+1     :     0.000126
      g-1     :     0.000126
      g+2     :     0.000000
      g-2     :     0.000000
      g+3     :     0.000000
      g-3     :     0.000000
      g+4     :     0.000000
      g-4     :     0.000000
  1 O s       :     3.655438  s :     3.655438
      pz      :     1.364393  p :     4.806248
      px      :     1.720927
      py      :     1.720927
      dz2     :     0.107239  d :     0.162943
      dxz     :     0.026426
      dyz     :     0.026426
      dx2y2   :     0.001426
      dxy     :     0.001426
      f0      :     0.049098  f :     0.100081
      f+1     :     0.023550
      f-1     :     0.023550
      f+2     :     0.001941
      f-2     :     0.001941
      f+3     :     0.000000
      f-3     :     0.000000


                      *****************************
                      * MAYER POPULATION ANALYSIS *
                      *****************************

  NA   - Mulliken gross atomic population
  ZA   - Total nuclear charge
  QA   - Mulliken gross atomic charge
  VA   - Mayer's total valence
  BVA  - Mayer's bonded valence
  FA   - Mayer's free valence

  ATOM       NA         ZA         QA         VA         BVA        FA
  0 Zn    29.1462    30.0000     0.8538     1.5485     1.5485    -0.0000
  1 O      8.8538     8.0000    -0.8538     1.5485     1.5485     0.0000

  Mayer bond orders larger than 0.100000
B(  0-Zn,  1-O ) :   1.5485 

-------
TIMINGS
-------

Total SCF time: 0 days 0 hours 3 min 51 sec 

Total time                  ....     231.309 sec
Sum of individual times     ....     230.948 sec  ( 99.8%)

Fock matrix formation       ....     230.608 sec  ( 99.7%)
  XC integration            ....       0.321 sec  (  0.1% of F)
    Basis function eval.    ....       0.084 sec  ( 26.0% of XC)
    Density eval.           ....       0.028 sec  (  8.6% of XC)
    XC-Functional eval.     ....       0.019 sec  (  5.8% of XC)
    XC-Potential eval.      ....       0.049 sec  ( 15.4% of XC)
Diagonalization             ....       0.045 sec  (  0.0%)
Density matrix formation    ....       0.006 sec  (  0.0%)
Population analysis         ....       0.003 sec  (  0.0%)
Initial guess               ....       0.100 sec  (  0.0%)
Orbital Transformation      ....       0.000 sec  (  0.0%)
Orbital Orthonormalization  ....       0.000 sec  (  0.0%)
DIIS solution               ....       0.017 sec  (  0.0%)
Grid generation             ....       0.169 sec  (  0.1%)

-------------------------   --------------------
FINAL SINGLE POINT ENERGY     -1854.377592103209
-------------------------   --------------------


                            ***************************************
                            *     ORCA property calculations      *
                            ***************************************

                                    ---------------------
                                    Active property flags
                                    ---------------------
   (+) Dipole Moment


------------------------------------------------------------------------------
                       ORCA ELECTRIC PROPERTIES CALCULATION
------------------------------------------------------------------------------

Dipole Moment Calculation                       ... on
Quadrupole Moment Calculation                   ... off
Polarizability Calculation                      ... off
GBWName                                         ... 59_ZnO.gbw
Electron density file                           ... 59_ZnO.scfp
The origin for moment calculation is the CENTER OF MASS  = ( 0.000000,  0.000000  0.914945)

-------------
DIPOLE MOMENT
-------------
                                X             Y             Z
Electronic contribution:      0.00000       0.00000      -4.22639
Nuclear contribution   :      0.00000       0.00000       1.70040
                        -----------------------------------------
Total Dipole Moment    :      0.00000       0.00000      -2.52599
                        -----------------------------------------
Magnitude (a.u.)       :      2.52599
Magnitude (Debye)      :      6.42056



--------------------
Rotational spectrum 
--------------------
 
Rotational constants in cm-1:     0.000000     0.453722     0.453722 
Rotational constants in MHz :     0.000000 13602.247054 13602.247054 

 Dipole components along the rotational axes: 
x,y,z [a.u.] :    -2.525991     0.000000     0.000000 
x,y,z [Debye]:    -6.420558     0.000000     0.000000 

 

Timings for individual modules:

Sum of individual times         ...      234.895 sec (=   3.915 min)
GTO integral calculation        ...        3.032 sec (=   0.051 min)   1.3 %
SCF iterations                  ...      231.863 sec (=   3.864 min)  98.7 %
                             ****ORCA TERMINATED NORMALLY****
TOTAL RUN TIME: 0 days 0 hours 3 minutes 55 seconds 495 msec
