
                                 *****************
                                 * O   R   C   A *
                                 *****************

           --- An Ab Initio, DFT and Semiempirical electronic structure package ---

                  #######################################################
                  #                        -***-                        #
                  #          Department of theory and spectroscopy      #
                  #               Directorship: Frank Neese             #
                  #        Max Planck Institute fuer Kohlenforschung    #
                  #                Kaiser Wilhelm Platz 1               #
                  #                 D-45470 Muelheim/Ruhr               #
                  #                      Germany                        #
                  #                                                     #
                  #                  All rights reserved                #
                  #                        -***-                        #
                  #######################################################


                         Program Version 4.2.0 -  RELEASE  -


 With contributions from (in alphabetic order):
   Daniel Aravena         : Magnetic Suceptibility
   Michael Atanasov       : Ab Initio Ligand Field Theory (pilot matlab implementation)
   Alexander A. Auer      : GIAO ZORA, VPT2
   Ute Becker             : Parallelization
   Giovanni Bistoni       : ED, misc. LED, open-shell LED, HFLED
   Martin Brehm           : Molecular dynamics
   Dmytro Bykov           : SCF Hessian
   Vijay G. Chilkuri      : MRCI spin determinant printing, contributions to CSF-ICE
   Dipayan Datta          : RHF DLPNO-CCSD density
   Achintya Kumar Dutta   : EOM-CC, STEOM-CC
   Dmitry Ganyushin       : Spin-Orbit,Spin-Spin,Magnetic field MRCI
   Miquel Garcia          : C-PCM Hessian, Gaussian charge scheme
   Yang Guo               : DLPNO-NEVPT2, CIM, IAO-localization
   Andreas Hansen         : Spin unrestricted coupled pair/coupled cluster methods
   Benjamin Helmich-Paris : CASSCF linear response (MC-RPA)
   Lee Huntington         : MR-EOM, pCC
   Robert Izsak           : Overlap fitted RIJCOSX, COSX-SCS-MP3, EOM
   Christian Kollmar      : KDIIS, OOCD, Brueckner-CCSD(T), CCSD density
   Simone Kossmann        : Meta GGA functionals, TD-DFT gradient, OOMP2, MP2 Hessian
   Martin Krupicka        : AUTO-CI
   Lucas Lang             : DCDCAS
   Dagmar Lenk            : GEPOL surface, SMD
   Dimitrios Liakos       : Extrapolation schemes; Compound Job, initial MDCI parallelization
   Dimitrios Manganas     : Further ROCIS development; embedding schemes
   Dimitrios Pantazis     : SARC Basis sets
   Taras Petrenko         : DFT Hessian,TD-DFT gradient, ASA, ECA, R-Raman, ABS, FL, XAS/XES, NRVS
   Peter Pinski           : DLPNO-MP2, DLPNO-MP2 Gradient
   Christoph Reimann      : Effective Core Potentials
   Marius Retegan         : Local ZFS, SOC
   Christoph Riplinger    : Optimizer, TS searches, QM/MM, DLPNO-CCSD(T), (RO)-DLPNO pert. Triples
   Tobias Risthaus        : Range-separated hybrids, TD-DFT gradient, RPA, STAB
   Michael Roemelt        : Original ROCIS implementation
   Masaaki Saitow         : Open-shell DLPNO-CCSD energy and density
   Barbara Sandhoefer     : DKH picture change effects
   Avijit Sen             : IP-ROCIS
   Kantharuban Sivalingam : CASSCF convergence, NEVPT2, FIC-MRCI
   Bernardo de Souza      : ESD, SOC TD-DFT
   Georgi Stoychev        : AutoAux, RI-MP2 NMR
   Willem Van den Heuvel  : Paramagnetic NMR
   Boris Wezisla          : Elementary symmetry handling
   Frank Wennmohs         : Technical directorship


 We gratefully acknowledge several colleagues who have allowed us to
 interface, adapt or use parts of their codes:
   Stefan Grimme, W. Hujo, H. Kruse,             : VdW corrections, initial TS optimization,
                  C. Bannwarth                     DFT functionals, gCP, sTDA/sTD-DF
   Ed Valeev, F. Pavosevic, A. Kumar             : LibInt (2-el integral package), F12 methods
   Garnet Chan, S. Sharma, J. Yang, R. Olivares  : DMRG
   Ulf Ekstrom                                   : XCFun DFT Library
   Mihaly Kallay                                 : mrcc  (arbitrary order and MRCC methods)
   Andreas Klamt, Michael Diedenhofen            : otool_cosmo (COSMO solvation model)
   Jiri Pittner, Ondrej Demel                    : Mk-CCSD
   Frank Weinhold                                : gennbo (NPA and NBO analysis)
   Christopher J. Cramer and Donald G. Truhlar   : smd solvation model
   Lars Goerigk                                  : TD-DFT with DH, B97 family of functionals
   V. Asgeirsson, H. Jonsson                     : NEB implementation
   FAccTs GmbH                                   : IRC, NEB, NEB-TS, Multilevel, MM, QM/MM, CI optimization
   S Lehtola, MJT Oliveira, MAL Marques          : LibXC Library


 Your calculation uses the libint2 library for the computation of 2-el integrals
 For citations please refer to: http://libint.valeyev.net

 Your ORCA version has been built with support for libXC version: 4.2.3
 For citations please refer to: https://tddft.org/programs/libxc/

 This ORCA versions uses:
   CBLAS   interface :  Fast vector & matrix operations
   LAPACKE interface :  Fast linear algebra routines
   SCALAPACK package :  Parallel linear algebra routines


Your calculation utilizes the DFT-NL dispersion correction.
Cite in your paper:
Vydrov, O. A.; Van Voorhis, T. J. Chem. Phys. 2010, 133, 244103
Hujo, W.; Grimme, S. J. Chem. Theory Comput. 2011, 7, 3866 
   

----- Orbital basis set information -----
Your calculation utilizes the basis: aug-cc-pVTZ 
    H, B-Ne : Obtained from the ccRepo (grant-hill.group.shef.ac.uk/ccrepo) Feb. 2017
              R. A. Kendall, T. H. Dunning, Jr., R. J. Harrison, J. Chem. Phys. 96, 6796 (1992)
         He : Obtained from the ccRepo (grant-hill.group.shef.ac.uk/ccrepo) Feb. 2017
              D. E. Woon, T. H. Dunning, Jr., J. Chem. Phys. 100, 2975 (1994)
  Li-Be, Na : Obtained from the ccRepo (grant-hill.group.shef.ac.uk/ccrepo) Feb. 2017
              B. P. Prascher, D. E. Woon, K. A. Peterson, T. H. Dunning, Jr., A. K. Wilson, Theor. Chem. Acc. 128, 69 (2011)
         Mg : Obtained from the Peterson Research Group Website (tyr0.chem.wsu.edu/~kipeters) Feb. 2017
              B. P. Prascher, D. E. Woon, K. A. Peterson, T. H. Dunning, Jr., A. K. Wilson, Theor. Chem. Acc. 128, 69 (2011)
      Al-Ar : Obtained from the ccRepo (grant-hill.group.shef.ac.uk/ccrepo) Feb. 2017
              D. E. Woon, T. H. Dunning, Jr., J. Chem. Phys. 98, 1358 (1993)
      Sc-Zn : Obtained from the ccRepo (grant-hill.group.shef.ac.uk/ccrepo) Feb. 2017
              N. B. Balabanov, K. A. Peterson, J. Chem. Phys. 123, 064107 (2005)
              N. B. Balabanov, K. A. Peterson, J. Chem. Phys. 125, 074110 (2006)
      Ga-Kr : Obtained from the ccRepo (grant-hill.group.shef.ac.uk/ccrepo) Feb. 2017
              A. K. Wilson, D. E. Woon, K. A. Peterson, T. H. Dunning, Jr., J. Chem. Phys. 110, 7667 (1999)
     Ag, Au : Obtained from the Peterson Research Group Website (tyr0.chem.wsu.edu/~kipeters) Feb. 2017
              K. A. Peterson, C. Puzzarini, Theor. Chem. Acc. 114, 283 (2005)

----- AuxJK basis set information -----
Your calculation utilizes the auxiliary basis: def2/JK
   H-Ba, Hf-Rn: F. Weigend, J. Comput. Chem. 29, 167 (2008).

================================================================================
                                        WARNINGS
                       Please study these warnings very carefully!
================================================================================


INFO   : the flag for use of LIBINT has been found!

================================================================================
                                       INPUT FILE
================================================================================
NAME = 60_ZnS.in
|  1> #
|  2> # 60_ZnS wb97x-v/aug-cc-pvtz
|  3> #
|  4> ! wb97x-v aug-cc-pvtz def2/jk grid4 nofinalgrid
|  5> 
|  6> *xyz 0 1
|  7>   Zn  0.00000000000000      0.00000000000000     -0.02757018403008
|  8>   S   0.00000000000000      0.00000000000000      2.02757018403008
|  9> *
| 10> 
| 11> %pal
| 12> nprocs 24
| 13> end
| 14> 
| 15> 
| 16>                          ****END OF INPUT****
================================================================================

                       ****************************
                       * Single Point Calculation *
                       ****************************

---------------------------------
CARTESIAN COORDINATES (ANGSTROEM)
---------------------------------
  Zn     0.000000    0.000000   -0.027570
  S      0.000000    0.000000    2.027570

----------------------------
CARTESIAN COORDINATES (A.U.)
----------------------------
  NO LB      ZA    FRAG     MASS         X           Y           Z
   0 Zn   30.0000    0    65.380    0.000000    0.000000   -0.052100
   1 S    16.0000    0    32.060    0.000000    0.000000    3.831552

--------------------------------
INTERNAL COORDINATES (ANGSTROEM)
--------------------------------
 Zn     0   0   0     0.000000000000     0.00000000     0.00000000
 S      1   0   0     2.055140368060     0.00000000     0.00000000

---------------------------
INTERNAL COORDINATES (A.U.)
---------------------------
 Zn     0   0   0     0.000000000000     0.00000000     0.00000000
 S      1   0   0     3.883652462400     0.00000000     0.00000000

---------------------
BASIS SET INFORMATION
---------------------
There are 2 groups of distinct atoms

 Group   1 Type Zn  : 116s77p23d3f2g contracted to 8s7p5d3f2g pattern {19191919191911/151515151511/77711/111/11}
 Group   2 Type S   : 42s17p3d2f contracted to 6s5p3d2f pattern {131313111/77111/111/11}

Atom   0Zn   basis set group =>   1
Atom   1S    basis set group =>   2
----------------------------------
AUXILIARY/JK BASIS SET INFORMATION
----------------------------------
There are 2 groups of distinct atoms

 Group   1 Type Zn  : 19s14p12d10f7g3h1i contracted to 16s13p11d9f5g3h1i pattern {4111111111111111/2111111111111/21111111111/211111111/31111/111/1}
 Group   2 Type S   : 16s12p10d4f1g contracted to 13s11p9d4f1g pattern {4111111111111/21111111111/211111111/1111/1}

Atom   0Zn   basis set group =>   1
Atom   1S    basis set group =>   2


           ************************************************************
           *        Program running with 24 parallel MPI-processes    *
           *              working on a common directory               *
           ************************************************************
------------------------------------------------------------------------------
                           ORCA GTO INTEGRAL CALCULATION
------------------------------------------------------------------------------

                         BASIS SET STATISTICS AND STARTUP INFO

 # of primitive gaussian shells          ...  285
 # of primitive gaussian functions       ...  623
 # of contracted shells                  ...   41
 # of contracted basis functions         ...  143
 Highest angular momentum                ...    4
 Maximum contraction depth               ...   19
 Integral package used                   ... LIBINT
 Integral threshhold            Thresh   ...  1.000e-10
 Primitive cut-off              TCut     ...  1.000e-11


------------------------------ INTEGRAL EVALUATION ----------------------------


 * One electron integrals 
 Pre-screening matrix                    ... done
 Shell pair data                         ... done (   0.001 sec)



           ************************************************************
           *        Program running with 24 parallel MPI-processes    *
           *              working on a common directory               *
           ************************************************************
-------------------------------------------------------------------------------
                                 ORCA SCF
-------------------------------------------------------------------------------

------------
SCF SETTINGS
------------
Hamiltonian:
 Density Functional     Method          .... DFT(GTOs)
 Exchange Functional    Exchange        .... WB97X-V
 Correlation Functional Correlation     .... WB97X-V
 Gradients option       PostSCFGGA      .... off
 Hybrid DFT is turned on
   Fraction HF Exchange ScalHFX         ....  0.167000
   Scaling of DF-GGA-X  ScalDFX         ....  0.000000
   Scaling of DF-GGA-C  ScalDFC         ....  1.000000
   Scaling of DF-LDA-C  ScalLDAC        ....  1.000000
   Perturbative correction              ....  0.000000
   Density functional embedding theory  .... OFF
 Long-range corrected/Screened/Range-Separated Hybrid DFT is turned on
   Amount of maximum screened exact exchange              ....  0.833000
   Range separation parameter mu (erf(mu*r12)/r12)        ....  0.300000
   NL short-range parameter             ....  6.000000
   NL long-range parameter              ....  0.010000


General Settings:
 Integral files         IntName         .... 60_ZnS
 Hartree-Fock type      HFTyp           .... RHF
 Total Charge           Charge          ....    0
 Multiplicity           Mult            ....    1
 Number of Electrons    NEL             ....   46
 Basis Dimension        Dim             ....  143
 Nuclear Repulsion      ENuc            ....    123.5949932820 Eh

Convergence Acceleration:
 DIIS                   CNVDIIS         .... on
   Start iteration      DIISMaxIt       ....    12
   Startup error        DIISStart       ....  0.200000
   # of expansion vecs  DIISMaxEq       ....     5
   Bias factor          DIISBfac        ....   1.050
   Max. coefficient     DIISMaxC        ....  10.000
 Newton-Raphson         CNVNR           .... off
 SOSCF                  CNVSOSCF        .... off
 Level Shifting         CNVShift        .... on
   Level shift para.    LevelShift      ....    0.2500
   Turn off err/grad.   ShiftErr        ....    0.0010
 Zerner damping         CNVZerner       .... off
 Static damping         CNVDamp         .... on
   Fraction old density DampFac         ....    0.7000
   Max. Damping (<1)    DampMax         ....    0.9800
   Min. Damping (>=0)   DampMin         ....    0.0000
   Turn off err/grad.   DampErr         ....    0.1000
 Fernandez-Rico         CNVRico         .... off

SCF Procedure:
 Maximum # iterations   MaxIter         ....   125
 SCF integral mode      SCFMode         .... Direct
   Integral package                     .... LIBINT
 Reset frequency        DirectResetFreq ....    20
 Integral Threshold     Thresh          ....  1.000e-10 Eh
 Primitive CutOff       TCut            ....  1.000e-11 Eh

Convergence Tolerance:
 Convergence Check Mode ConvCheckMode   .... Total+1el-Energy
 Convergence forced     ConvForced      .... 0
 Energy Change          TolE            ....  1.000e-06 Eh
 1-El. energy change                    ....  1.000e-03 Eh
 DIIS Error             TolErr          ....  1.000e-06


Diagonalization of the overlap matrix:
Smallest eigenvalue                        ... 1.666e-04
Time for diagonalization                   ...    0.005 sec
Threshold for overlap eigenvalues          ... 1.000e-08
Number of eigenvalues below threshold      ... 0
Time for construction of square roots      ...    0.002 sec
Total time needed                          ...    0.008 sec

-------------------
DFT GRID GENERATION
-------------------

General Integration Accuracy     IntAcc      ...  4.670
Radial Grid Type                 RadialGrid  ... Gauss-Chebyshev
Angular Grid (max. acc.)         AngularGrid ... Lebedev-302
Angular grid pruning method      GridPruning ... 3 (G Style)
Weight generation scheme         WeightScheme... Becke
Basis function cutoff            BFCut       ...    1.0000e-10
Integration weight cutoff        WCut        ...    1.0000e-14
Grids for H and He will be reduced by one unit

# of grid points (after initial pruning)     ...  16486 (   0.0 sec)
# of grid points (after weights+screening)   ...  16458 (   0.0 sec)
nearest neighbour list constructed           ...    0.0 sec
Grid point re-assignment to atoms done       ...    0.0 sec
Grid point division into batches done        ...    0.1 sec
Reduced shell lists constructed in    0.1 sec

Total number of grid points                  ...    16458
Total number of batches                      ...      258
Average number of points per batch           ...       63
Average number of grid points per atom       ...     8229
Average number of shells per batch           ...    14.58 (35.57%)
Average number of basis functions per batch  ...    34.58 (24.18%)
Average number of large shells per batch     ...     7.17 (49.14%)
Average number of large basis fcns per batch ...    17.00 (49.16%)
Maximum spatial batch extension              ...  23.02, 23.02, 16.62 au
Average spatial batch extension              ...   0.79,  0.78,  0.60 au

Time for grid setup =    0.164 sec

------------------------------
INITIAL GUESS: MODEL POTENTIAL
------------------------------
Loading Hartree-Fock densities                     ... done
Calculating cut-offs                               ... done
Setting up the integral package                    ... done
Initializing the effective Hamiltonian             ... done
Starting the Coulomb interaction                   ... done (   0.0 sec)
Reading the grid                                   ... done
Mapping shells                                     ... done
Starting the XC term evaluation                    ... done (   0.0 sec)
  promolecular density results
     # of electrons  =     46.000010731
     EX              =    -72.130972396
     EC              =     -2.709415889
     EX+EC           =    -74.840388286
Transforming the Hamiltonian                       ... done (   0.0 sec)
Diagonalizing the Hamiltonian                      ... done (   0.0 sec)
Back transforming the eigenvectors                 ... done (   0.0 sec)
Now organizing SCF variables                       ... done
                      ------------------
                      INITIAL GUESS DONE (   0.3 sec)
                      ------------------
--------------
SCF ITERATIONS
--------------
ITER       Energy         Delta-E        Max-DP      RMS-DP      [F,P]     Damp
               ***  Starting incremental Fock matrix formation  ***
  0  -2172.9162886244   0.000000000000 0.85511285  0.01614700  2.1545879 0.7000
  1  -2175.1898753323  -2.273586707924 0.27735322  0.00407849  0.6529669 0.7000
  2  -2175.9261753676  -0.736300035300 0.20478095  0.00448241  0.3909865 0.7000
  3  -2176.4071923813  -0.481017013706 0.18245644  0.00369052  0.3591571 0.7000
  4  -2176.7491134482  -0.341921066900 0.13693117  0.00267974  0.2553715 0.7000
                               ***Turning on DIIS***
  5  -2176.9882599904  -0.239146542186 0.09918029  0.00192184  0.1731843 0.7000
  6  -2177.1568498764  -0.168589885996 0.07268523  0.00148962  0.1180299 0.7000
  7  -2177.2764146294  -0.119564753020 0.17562906  0.00388096  0.0860736 0.0000
  8  -2177.5629710977  -0.286556468337 0.01820709  0.00029615  0.0129138 0.0000
  9  -2177.5635177510  -0.000546653303 0.00746823  0.00015434  0.0087114 0.0000
 10  -2177.5637190899  -0.000201338863 0.00494799  0.00008507  0.0052229 0.0000
 11  -2177.5637946153  -0.000075525420 0.00555533  0.00007337  0.0031226 0.0000
 12  -2177.5638378001  -0.000043184747 0.00325033  0.00004448  0.0014188 0.0000
 13  -2177.5638504483  -0.000012648210 0.00338756  0.00003780  0.0008756 0.0000
 14  -2177.5638561269  -0.000005678634 0.00095614  0.00001351  0.0002304 0.0000
 15  -2177.5638568216  -0.000000694663 0.00054018  0.00000626  0.0001233 0.0000
 16  -2177.5638569617  -0.000000140138 0.00021423  0.00000279  0.0000846 0.0000
                 **** Energy Check signals convergence ****

               *****************************************************
               *                     SUCCESS                       *
               *           SCF CONVERGED AFTER  17 CYCLES          *
               *****************************************************


Setting up the DFT-NL grid :

General Integration Accuracy     IntAcc      ...  4.340
Radial Grid Type                 RadialGrid  ... Gauss-Chebyshev
Angular Grid (max. acc.)         AngularGrid ... Lebedev-110
Angular grid pruning method      GridPruning ... 3 (G Style)
Weight generation scheme         WeightScheme... Becke
Basis function cutoff            BFCut       ...    1.0000e-10
Integration weight cutoff        WCut        ...    1.0000e-14
Grids for H and He will be reduced by one unit

# of grid points (after initial pruning)     ...   4718 (   0.0 sec)
# of grid points (after weights+screening)   ...   4693 (   0.0 sec)
nearest neighbour list constructed           ...    0.0 sec
Grid point re-assignment to atoms done       ...    0.0 sec
Grid point division into batches done        ...    0.0 sec
Reduced shell lists constructed in    0.0 sec

Total number of grid points                  ...     4693
Total number of batches                      ...       74
Average number of points per batch           ...       63
Average number of grid points per atom       ...     2346
Average number of shells per batch           ...    20.80 (50.73%)
Average number of basis functions per batch  ...    54.40 (38.04%)
Average number of large shells per batch     ...    16.00 (76.92%)
Average number of large basis fcns per batch ...    44.80 (82.35%)
Maximum spatial batch extension              ...  17.39, 26.34, 14.87 au
Average spatial batch extension              ...   0.86,  1.19,  0.80 au

Final grid set up in    0.0 sec

-------------------------------------------------------------------------------
                         DFT-NL dispersion correction                          
-------------------------------------------------------------------------------

SC Energy -2177.563856988 
NL    Energy 0.193386276 
SC+NL Energy -2177.370470712 
NL done in    0.0 sec
-------------------------------------------------------------------------------

----------------
TOTAL SCF ENERGY
----------------

Total Energy       :        -2177.37047071 Eh          -59249.26268 eV

Components:
Nuclear Repulsion  :          123.59499328 Eh            3363.19075 eV
Electronic Energy  :        -2300.96546399 Eh          -62612.45343 eV
One Electron Energy:        -3278.48180337 Eh          -89212.02532 eV
Two Electron Energy:          977.51633938 Eh           26599.57189 eV

Virial components:
Potential Energy   :        -4351.68067026 Eh         -118415.25115 eV
Kinetic Energy     :         2174.31019955 Eh           59165.98847 eV
Virial Ratio       :            2.00140747


DFT components:
N(Alpha)           :       23.000009023684 electrons
N(Beta)            :       23.000009023684 electrons
N(Total)           :       46.000018047367 electrons
E(X)               :      -72.050452777340 Eh       
E(C)               :       -2.712271214877 Eh       
NL Energy, E(C,NL) :        0.193386276245 Eh       
E(XC)              :      -74.569337715972 Eh       
DFET-embed. en.    :        0.000000000000 Eh       

---------------
SCF CONVERGENCE
---------------

  Last Energy change         ...   -2.6128e-08  Tolerance :   1.0000e-06
  Last MAX-Density change    ...    2.3205e-05  Tolerance :   1.0000e-05
  Last RMS-Density change    ...    5.9156e-07  Tolerance :   1.0000e-06
  Last DIIS Error            ...    1.6272e-05  Tolerance :   1.0000e-06

             **** THE GBW FILE WAS UPDATED (60_ZnS.gbw) ****
             **** DENSITY FILE WAS UPDATED (60_ZnS.scfp) ****
             **** ENERGY FILE WAS UPDATED (60_ZnS.en.tmp) ****
             **** THE GBW FILE WAS UPDATED (60_ZnS.gbw) ****
             **** DENSITY FILE WAS UPDATED (60_ZnS.scfp) ****
----------------
ORBITAL ENERGIES
----------------

  NO   OCC          E(Eh)            E(eV) 
   0   2.0000    -347.164598     -9446.8290 
   1   2.0000     -88.850956     -2417.7574 
   2   2.0000     -42.307172     -1151.2367 
   3   2.0000     -37.276436     -1014.3434 
   4   2.0000     -37.276436     -1014.3434 
   5   2.0000     -37.276420     -1014.3429 
   6   2.0000      -8.004899      -217.8244 
   7   2.0000      -5.964276      -162.2962 
   8   2.0000      -5.954311      -162.0250 
   9   2.0000      -5.954311      -162.0250 
  10   2.0000      -4.998616      -136.0193 
  11   2.0000      -3.391135       -92.2775 
  12   2.0000      -3.388148       -92.1962 
  13   2.0000      -3.388148       -92.1962 
  14   2.0000      -0.777080       -21.1454 
  15   2.0000      -0.673409       -18.3244 
  16   2.0000      -0.673409       -18.3244 
  17   2.0000      -0.667585       -18.1659 
  18   2.0000      -0.667581       -18.1658 
  19   2.0000      -0.659507       -17.9461 
  20   2.0000      -0.398839       -10.8530 
  21   2.0000      -0.322315        -8.7706 
  22   2.0000      -0.322315        -8.7706 
  23   0.0000      -0.086823        -2.3626 
  24   0.0000       0.018595         0.5060 
  25   0.0000       0.018595         0.5060 
  26   0.0000       0.020863         0.5677 
  27   0.0000       0.043958         1.1962 
  28   0.0000       0.062875         1.7109 
  29   0.0000       0.062875         1.7109 
  30   0.0000       0.106328         2.8933 
  31   0.0000       0.133836         3.6419 
  32   0.0000       0.133836         3.6419 
  33   0.0000       0.136403         3.7117 
  34   0.0000       0.164239         4.4692 
  35   0.0000       0.213227         5.8022 
  36   0.0000       0.213227         5.8022 
  37   0.0000       0.229344         6.2408 
  38   0.0000       0.240184         6.5357 
  39   0.0000       0.240184         6.5357 
  40   0.0000       0.276081         7.5125 
  41   0.0000       0.276081         7.5125 
  42   0.0000       0.286939         7.8080 
  43   0.0000       0.320657         8.7255 
  44   0.0000       0.320657         8.7255 
  45   0.0000       0.375796        10.2259 
  46   0.0000       0.407235        11.0814 
  47   0.0000       0.407235        11.0814 
  48   0.0000       0.479191        13.0394 
  49   0.0000       0.608374        16.5547 
  50   0.0000       0.608374        16.5547 
  51   0.0000       0.649058        17.6618 
  52   0.0000       0.673344        18.3226 
  53   0.0000       0.673344        18.3226 
  54   0.0000       0.694578        18.9004 
  55   0.0000       0.694578        18.9004 
  56   0.0000       0.728124        19.8133 
  57   0.0000       0.781586        21.2680 
  58   0.0000       0.809136        22.0177 
  59   0.0000       0.809137        22.0178 
  60   0.0000       0.838722        22.8228 
  61   0.0000       0.838722        22.8228 
  62   0.0000       0.902421        24.5561 
  63   0.0000       0.902422        24.5562 
  64   0.0000       0.911776        24.8107 
  65   0.0000       0.926634        25.2150 
  66   0.0000       0.926634        25.2150 
  67   0.0000       1.010639        27.5009 
  68   0.0000       1.010639        27.5009 
  69   0.0000       1.104583        30.0572 
  70   0.0000       1.135857        30.9083 
  71   0.0000       1.135857        30.9083 
  72   0.0000       1.339724        36.4557 
  73   0.0000       1.549571        42.1660 
  74   0.0000       1.719180        46.7813 
  75   0.0000       1.719180        46.7813 
  76   0.0000       1.801859        49.0311 
  77   0.0000       1.801860        49.0311 
  78   0.0000       1.884890        51.2905 
  79   0.0000       1.884890        51.2905 
  80   0.0000       1.940244        52.7967 
  81   0.0000       1.940260        52.7972 
  82   0.0000       2.030071        55.2410 
  83   0.0000       2.030071        55.2410 
  84   0.0000       2.072218        56.3879 
  85   0.0000       2.142315        58.2953 
  86   0.0000       2.233545        60.7778 
  87   0.0000       2.233545        60.7778 
  88   0.0000       2.242311        61.0164 
  89   0.0000       2.242311        61.0164 
  90   0.0000       2.247711        61.1633 
  91   0.0000       2.247711        61.1633 
  92   0.0000       2.355599        64.0991 
  93   0.0000       2.521279        68.6075 
  94   0.0000       2.521279        68.6075 
  95   0.0000       2.808241        76.4161 
  96   0.0000       2.850030        77.5533 
  97   0.0000       2.850039        77.5535 
  98   0.0000       2.927193        79.6530 
  99   0.0000       2.927193        79.6530 
 100   0.0000       3.291614        89.5694 
 101   0.0000       4.282701       116.5382 
 102   0.0000       4.398116       119.6788 
 103   0.0000       4.398116       119.6788 
 104   0.0000       4.993173       135.8711 
 105   0.0000       5.000964       136.0832 
 106   0.0000       5.000964       136.0832 
 107   0.0000       5.055225       137.5597 
 108   0.0000       5.055244       137.5602 
 109   0.0000       5.096926       138.6944 
 110   0.0000       5.236026       142.4795 
 111   0.0000       5.236026       142.4795 
 112   0.0000       5.635411       153.3473 
 113   0.0000       7.421717       201.9552 
 114   0.0000       7.421717       201.9552 
 115   0.0000       7.422266       201.9701 
 116   0.0000       7.422304       201.9712 
 117   0.0000       7.423338       201.9993 
 118   0.0000       7.423498       202.0036 
 119   0.0000       7.453511       202.8203 
 120   0.0000       7.453511       202.8203 
 121   0.0000       7.541735       205.2210 
 122   0.0000      10.246437       278.8197 
 123   0.0000      10.246455       278.8202 
 124   0.0000      10.320139       280.8253 
 125   0.0000      10.320139       280.8253 
 126   0.0000      10.527911       286.4790 
 127   0.0000      15.926875       433.3923 
 128   0.0000      15.926875       433.3923 
 129   0.0000      15.955164       434.1621 
 130   0.0000      15.955237       434.1641 
 131   0.0000      16.048548       436.7032 
 132   0.0000      16.048548       436.7032 
 133   0.0000      16.138517       439.1514 
 134   0.0000      19.661696       535.0220 
 135   0.0000      19.661696       535.0220 
 136   0.0000      19.662261       535.0373 
 137   0.0000      19.662270       535.0376 
 138   0.0000      19.662354       535.0399 
 139   0.0000      19.662699       535.0492 
 140   0.0000      19.678737       535.4857 
 141   0.0000      19.678737       535.4857 
 142   0.0000      19.711063       536.3653 

                    ********************************
                    * MULLIKEN POPULATION ANALYSIS *
                    ********************************

-----------------------
MULLIKEN ATOMIC CHARGES
-----------------------
   0 Zn:    0.561923
   1 S :   -0.561923
Sum of atomic charges:   -0.0000000

--------------------------------
MULLIKEN REDUCED ORBITAL CHARGES
--------------------------------
  0 Zns       :     7.070587  s :     7.070587
      pz      :     4.059256  p :    12.371262
      px      :     4.156003
      py      :     4.156003
      dz2     :     1.976119  d :     9.990357
      dxz     :     2.007373
      dyz     :     2.007373
      dx2y2   :     1.999746
      dxy     :     1.999746
      f0      :     0.001653  f :     0.005843
      f+1     :     0.002031
      f-1     :     0.002031
      f+2     :     0.000064
      f-2     :     0.000064
      f+3     :     0.000000
      f-3     :     0.000000
      g0      :     0.000011  g :     0.000029
      g+1     :     0.000008
      g-1     :     0.000008
      g+2     :     0.000000
      g-2     :     0.000000
      g+3     :     0.000000
      g-3     :     0.000000
      g+4     :     0.000000
      g-4     :     0.000000
  1 S s       :     5.928426  s :     5.928426
      pz      :     2.950339  p :    10.588999
      px      :     3.819330
      py      :     3.819330
      dz2     :     0.012622  d :     0.040173
      dxz     :     0.013583
      dyz     :     0.013583
      dx2y2   :     0.000193
      dxy     :     0.000193
      f0      :     0.000987  f :     0.004325
      f+1     :     0.001672
      f-1     :     0.001672
      f+2     :    -0.000003
      f-2     :    -0.000003
      f+3     :     0.000000
      f-3     :     0.000000


                     *******************************
                     * LOEWDIN POPULATION ANALYSIS *
                     *******************************

----------------------
LOEWDIN ATOMIC CHARGES
----------------------
   0 Zn:    0.350484
   1 S :   -0.350484

-------------------------------
LOEWDIN REDUCED ORBITAL CHARGES
-------------------------------
  0 Zns       :     6.686123  s :     6.686123
      pz      :     4.220267  p :    12.661133
      px      :     4.220433
      py      :     4.220433
      dz2     :     2.107526  d :    10.276441
      dxz     :     2.087572
      dyz     :     2.087572
      dx2y2   :     1.996885
      dxy     :     1.996885
      f0      :     0.009762  f :     0.025719
      f+1     :     0.007888
      f-1     :     0.007888
      f+2     :     0.000090
      f-2     :     0.000090
      f+3     :     0.000000
      f-3     :     0.000000
      g0      :     0.000044  g :     0.000100
      g+1     :     0.000028
      g-1     :     0.000028
      g+2     :     0.000000
      g-2     :     0.000000
      g+3     :     0.000000
      g-3     :     0.000000
      g+4     :     0.000000
      g-4     :     0.000000
  1 S s       :     5.569205  s :     5.569205
      pz      :     3.219892  p :    10.510976
      px      :     3.645542
      py      :     3.645542
      dz2     :     0.124176  d :     0.161387
      dxz     :     0.017774
      dyz     :     0.017774
      dx2y2   :     0.000831
      dxy     :     0.000831
      f0      :     0.063004  f :     0.108916
      f+1     :     0.020763
      f-1     :     0.020763
      f+2     :     0.002193
      f-2     :     0.002193
      f+3     :     0.000000
      f-3     :     0.000000


                      *****************************
                      * MAYER POPULATION ANALYSIS *
                      *****************************

  NA   - Mulliken gross atomic population
  ZA   - Total nuclear charge
  QA   - Mulliken gross atomic charge
  VA   - Mayer's total valence
  BVA  - Mayer's bonded valence
  FA   - Mayer's free valence

  ATOM       NA         ZA         QA         VA         BVA        FA
  0 Zn    29.4381    30.0000     0.5619     1.6529     1.6529     0.0000
  1 S     16.5619    16.0000    -0.5619     1.6529     1.6529    -0.0000

  Mayer bond orders larger than 0.100000
B(  0-Zn,  1-S ) :   1.6529 

-------
TIMINGS
-------

Total SCF time: 0 days 0 hours 4 min 47 sec 

Total time                  ....     287.809 sec
Sum of individual times     ....     287.493 sec  ( 99.9%)

Fock matrix formation       ....     287.135 sec  ( 99.8%)
  XC integration            ....       0.346 sec  (  0.1% of F)
    Basis function eval.    ....       0.093 sec  ( 27.0% of XC)
    Density eval.           ....       0.030 sec  (  8.7% of XC)
    XC-Functional eval.     ....       0.021 sec  (  6.0% of XC)
    XC-Potential eval.      ....       0.058 sec  ( 16.9% of XC)
Diagonalization             ....       0.051 sec  (  0.0%)
Density matrix formation    ....       0.006 sec  (  0.0%)
Population analysis         ....       0.003 sec  (  0.0%)
Initial guess               ....       0.098 sec  (  0.0%)
Orbital Transformation      ....       0.000 sec  (  0.0%)
Orbital Orthonormalization  ....       0.000 sec  (  0.0%)
DIIS solution               ....       0.020 sec  (  0.0%)
Grid generation             ....       0.179 sec  (  0.1%)

-------------------------   --------------------
FINAL SINGLE POINT ENERGY     -2177.370470711579
-------------------------   --------------------


                            ***************************************
                            *     ORCA property calculations      *
                            ***************************************

                                    ---------------------
                                    Active property flags
                                    ---------------------
   (+) Dipole Moment


------------------------------------------------------------------------------
                       ORCA ELECTRIC PROPERTIES CALCULATION
------------------------------------------------------------------------------

Dipole Moment Calculation                       ... on
Quadrupole Moment Calculation                   ... off
Polarizability Calculation                      ... off
GBWName                                         ... 60_ZnS.gbw
Electron density file                           ... 60_ZnS.scfp
The origin for moment calculation is the CENTER OF MASS  = ( 0.000000,  0.000000  1.225711)

-------------
DIPOLE MOMENT
-------------
                                X             Y             Z
Electronic contribution:     -0.00000       0.00000      -5.79276
Nuclear contribution   :      0.00000       0.00000       3.35914
                        -----------------------------------------
Total Dipole Moment    :     -0.00000       0.00000      -2.43362
                        -----------------------------------------
Magnitude (a.u.)       :      2.43362
Magnitude (Debye)      :      6.18577



--------------------
Rotational spectrum 
--------------------
 
Rotational constants in cm-1:     0.000000     0.185542     0.185542 
Rotational constants in MHz :     0.000000  5562.415993  5562.415993 

 Dipole components along the rotational axes: 
x,y,z [a.u.] :    -2.433620     0.000000    -0.000000 
x,y,z [Debye]:    -6.185771     0.000000    -0.000000 

 

Timings for individual modules:

Sum of individual times         ...      291.530 sec (=   4.859 min)
GTO integral calculation        ...        3.308 sec (=   0.055 min)   1.1 %
SCF iterations                  ...      288.222 sec (=   4.804 min)  98.9 %
                             ****ORCA TERMINATED NORMALLY****
TOTAL RUN TIME: 0 days 0 hours 4 minutes 52 seconds 150 msec
