
                                 *****************
                                 * O   R   C   A *
                                 *****************

           --- An Ab Initio, DFT and Semiempirical electronic structure package ---

                  #######################################################
                  #                        -***-                        #
                  #          Department of theory and spectroscopy      #
                  #               Directorship: Frank Neese             #
                  #        Max Planck Institute fuer Kohlenforschung    #
                  #                Kaiser Wilhelm Platz 1               #
                  #                 D-45470 Muelheim/Ruhr               #
                  #                      Germany                        #
                  #                                                     #
                  #                  All rights reserved                #
                  #                        -***-                        #
                  #######################################################


                         Program Version 4.2.0 -  RELEASE  -


 With contributions from (in alphabetic order):
   Daniel Aravena         : Magnetic Suceptibility
   Michael Atanasov       : Ab Initio Ligand Field Theory (pilot matlab implementation)
   Alexander A. Auer      : GIAO ZORA, VPT2
   Ute Becker             : Parallelization
   Giovanni Bistoni       : ED, misc. LED, open-shell LED, HFLED
   Martin Brehm           : Molecular dynamics
   Dmytro Bykov           : SCF Hessian
   Vijay G. Chilkuri      : MRCI spin determinant printing, contributions to CSF-ICE
   Dipayan Datta          : RHF DLPNO-CCSD density
   Achintya Kumar Dutta   : EOM-CC, STEOM-CC
   Dmitry Ganyushin       : Spin-Orbit,Spin-Spin,Magnetic field MRCI
   Miquel Garcia          : C-PCM Hessian, Gaussian charge scheme
   Yang Guo               : DLPNO-NEVPT2, CIM, IAO-localization
   Andreas Hansen         : Spin unrestricted coupled pair/coupled cluster methods
   Benjamin Helmich-Paris : CASSCF linear response (MC-RPA)
   Lee Huntington         : MR-EOM, pCC
   Robert Izsak           : Overlap fitted RIJCOSX, COSX-SCS-MP3, EOM
   Christian Kollmar      : KDIIS, OOCD, Brueckner-CCSD(T), CCSD density
   Simone Kossmann        : Meta GGA functionals, TD-DFT gradient, OOMP2, MP2 Hessian
   Martin Krupicka        : AUTO-CI
   Lucas Lang             : DCDCAS
   Dagmar Lenk            : GEPOL surface, SMD
   Dimitrios Liakos       : Extrapolation schemes; Compound Job, initial MDCI parallelization
   Dimitrios Manganas     : Further ROCIS development; embedding schemes
   Dimitrios Pantazis     : SARC Basis sets
   Taras Petrenko         : DFT Hessian,TD-DFT gradient, ASA, ECA, R-Raman, ABS, FL, XAS/XES, NRVS
   Peter Pinski           : DLPNO-MP2, DLPNO-MP2 Gradient
   Christoph Reimann      : Effective Core Potentials
   Marius Retegan         : Local ZFS, SOC
   Christoph Riplinger    : Optimizer, TS searches, QM/MM, DLPNO-CCSD(T), (RO)-DLPNO pert. Triples
   Tobias Risthaus        : Range-separated hybrids, TD-DFT gradient, RPA, STAB
   Michael Roemelt        : Original ROCIS implementation
   Masaaki Saitow         : Open-shell DLPNO-CCSD energy and density
   Barbara Sandhoefer     : DKH picture change effects
   Avijit Sen             : IP-ROCIS
   Kantharuban Sivalingam : CASSCF convergence, NEVPT2, FIC-MRCI
   Bernardo de Souza      : ESD, SOC TD-DFT
   Georgi Stoychev        : AutoAux, RI-MP2 NMR
   Willem Van den Heuvel  : Paramagnetic NMR
   Boris Wezisla          : Elementary symmetry handling
   Frank Wennmohs         : Technical directorship


 We gratefully acknowledge several colleagues who have allowed us to
 interface, adapt or use parts of their codes:
   Stefan Grimme, W. Hujo, H. Kruse,             : VdW corrections, initial TS optimization,
                  C. Bannwarth                     DFT functionals, gCP, sTDA/sTD-DF
   Ed Valeev, F. Pavosevic, A. Kumar             : LibInt (2-el integral package), F12 methods
   Garnet Chan, S. Sharma, J. Yang, R. Olivares  : DMRG
   Ulf Ekstrom                                   : XCFun DFT Library
   Mihaly Kallay                                 : mrcc  (arbitrary order and MRCC methods)
   Andreas Klamt, Michael Diedenhofen            : otool_cosmo (COSMO solvation model)
   Jiri Pittner, Ondrej Demel                    : Mk-CCSD
   Frank Weinhold                                : gennbo (NPA and NBO analysis)
   Christopher J. Cramer and Donald G. Truhlar   : smd solvation model
   Lars Goerigk                                  : TD-DFT with DH, B97 family of functionals
   V. Asgeirsson, H. Jonsson                     : NEB implementation
   FAccTs GmbH                                   : IRC, NEB, NEB-TS, Multilevel, MM, QM/MM, CI optimization
   S Lehtola, MJT Oliveira, MAL Marques          : LibXC Library


 Your calculation uses the libint2 library for the computation of 2-el integrals
 For citations please refer to: http://libint.valeyev.net

 Your ORCA version has been built with support for libXC version: 4.2.3
 For citations please refer to: https://tddft.org/programs/libxc/

 This ORCA versions uses:
   CBLAS   interface :  Fast vector & matrix operations
   LAPACKE interface :  Fast linear algebra routines
   SCALAPACK package :  Parallel linear algebra routines


Your calculation utilizes the DFT-NL dispersion correction.
Cite in your paper:
Vydrov, O. A.; Van Voorhis, T. J. Chem. Phys. 2010, 133, 244103
Hujo, W.; Grimme, S. J. Chem. Theory Comput. 2011, 7, 3866 
   

----- Orbital basis set information -----
Your calculation utilizes the basis: aug-cc-pVTZ 
    H, B-Ne : Obtained from the ccRepo (grant-hill.group.shef.ac.uk/ccrepo) Feb. 2017
              R. A. Kendall, T. H. Dunning, Jr., R. J. Harrison, J. Chem. Phys. 96, 6796 (1992)
         He : Obtained from the ccRepo (grant-hill.group.shef.ac.uk/ccrepo) Feb. 2017
              D. E. Woon, T. H. Dunning, Jr., J. Chem. Phys. 100, 2975 (1994)
  Li-Be, Na : Obtained from the ccRepo (grant-hill.group.shef.ac.uk/ccrepo) Feb. 2017
              B. P. Prascher, D. E. Woon, K. A. Peterson, T. H. Dunning, Jr., A. K. Wilson, Theor. Chem. Acc. 128, 69 (2011)
         Mg : Obtained from the Peterson Research Group Website (tyr0.chem.wsu.edu/~kipeters) Feb. 2017
              B. P. Prascher, D. E. Woon, K. A. Peterson, T. H. Dunning, Jr., A. K. Wilson, Theor. Chem. Acc. 128, 69 (2011)
      Al-Ar : Obtained from the ccRepo (grant-hill.group.shef.ac.uk/ccrepo) Feb. 2017
              D. E. Woon, T. H. Dunning, Jr., J. Chem. Phys. 98, 1358 (1993)
      Sc-Zn : Obtained from the ccRepo (grant-hill.group.shef.ac.uk/ccrepo) Feb. 2017
              N. B. Balabanov, K. A. Peterson, J. Chem. Phys. 123, 064107 (2005)
              N. B. Balabanov, K. A. Peterson, J. Chem. Phys. 125, 074110 (2006)
      Ga-Kr : Obtained from the ccRepo (grant-hill.group.shef.ac.uk/ccrepo) Feb. 2017
              A. K. Wilson, D. E. Woon, K. A. Peterson, T. H. Dunning, Jr., J. Chem. Phys. 110, 7667 (1999)
     Ag, Au : Obtained from the Peterson Research Group Website (tyr0.chem.wsu.edu/~kipeters) Feb. 2017
              K. A. Peterson, C. Puzzarini, Theor. Chem. Acc. 114, 283 (2005)

----- AuxJK basis set information -----
Your calculation utilizes the auxiliary basis: def2/JK
   H-Ba, Hf-Rn: F. Weigend, J. Comput. Chem. 29, 167 (2008).

================================================================================
                                        WARNINGS
                       Please study these warnings very carefully!
================================================================================


WARNING: your system is open-shell and RHF/RKS was chosen
  ===> : WILL SWITCH to UHF/UKS


INFO   : the flag for use of LIBINT has been found!

================================================================================
                                       INPUT FILE
================================================================================
NAME = 65_Mn.in
|  1> #
|  2> # 65_Mn wb97x-v/aug-cc-pvtz
|  3> #
|  4> ! wb97x-v aug-cc-pvtz def2/jk grid4 nofinalgrid
|  5> 
|  6> *xyz 0 6
|  7> Mn 0.0 0.0 0.0
|  8> *
|  9> 
| 10> %pal
| 11> nprocs 24
| 12> end
| 13> 
| 14> 
| 15>                          ****END OF INPUT****
================================================================================

                       ****************************
                       * Single Point Calculation *
                       ****************************

---------------------------------
CARTESIAN COORDINATES (ANGSTROEM)
---------------------------------
  Mn     0.000000    0.000000    0.000000

----------------------------
CARTESIAN COORDINATES (A.U.)
----------------------------
  NO LB      ZA    FRAG     MASS         X           Y           Z
   0 Mn   25.0000    0    54.940    0.000000    0.000000    0.000000

--------------------------------
INTERNAL COORDINATES (ANGSTROEM)
--------------------------------
 Mn     0   0   0     0.000000000000     0.00000000     0.00000000

---------------------------
INTERNAL COORDINATES (A.U.)
---------------------------
 Mn     0   0   0     0.000000000000     0.00000000     0.00000000

---------------------
BASIS SET INFORMATION
---------------------
There are 1 groups of distinct atoms

 Group   1 Type Mn  : 116s77p23d3f2g contracted to 8s7p5d3f2g pattern {19191919191911/151515151511/77711/111/11}

Atom   0Mn   basis set group =>   1
----------------------------------
AUXILIARY/JK BASIS SET INFORMATION
----------------------------------
There are 1 groups of distinct atoms

 Group   1 Type Mn  : 19s14p12d10f7g3h1i contracted to 16s13p11d9f5g3h1i pattern {4111111111111111/2111111111111/21111111111/211111111/31111/111/1}

Atom   0Mn   basis set group =>   1


           ************************************************************
           *        Program running with 24 parallel MPI-processes    *
           *              working on a common directory               *
           ************************************************************
------------------------------------------------------------------------------
                           ORCA GTO INTEGRAL CALCULATION
------------------------------------------------------------------------------

                         BASIS SET STATISTICS AND STARTUP INFO

 # of primitive gaussian shells          ...  221
 # of primitive gaussian functions       ...  501
 # of contracted shells                  ...   25
 # of contracted basis functions         ...   93
 Highest angular momentum                ...    4
 Maximum contraction depth               ...   19
 Integral package used                   ... LIBINT
 Integral threshhold            Thresh   ...  1.000e-10
 Primitive cut-off              TCut     ...  1.000e-11


------------------------------ INTEGRAL EVALUATION ----------------------------


 * One electron integrals 
 Pre-screening matrix                    ... done
 Shell pair data                         ... done (   0.001 sec)



           ************************************************************
           *        Program running with 24 parallel MPI-processes    *
           *              working on a common directory               *
           ************************************************************
-------------------------------------------------------------------------------
                                 ORCA SCF
-------------------------------------------------------------------------------

------------
SCF SETTINGS
------------
Hamiltonian:
 Density Functional     Method          .... DFT(GTOs)
 Exchange Functional    Exchange        .... WB97X-V
 Correlation Functional Correlation     .... WB97X-V
 Gradients option       PostSCFGGA      .... off
 Hybrid DFT is turned on
   Fraction HF Exchange ScalHFX         ....  0.167000
   Scaling of DF-GGA-X  ScalDFX         ....  0.000000
   Scaling of DF-GGA-C  ScalDFC         ....  1.000000
   Scaling of DF-LDA-C  ScalLDAC        ....  1.000000
   Perturbative correction              ....  0.000000
   Density functional embedding theory  .... OFF
 Long-range corrected/Screened/Range-Separated Hybrid DFT is turned on
   Amount of maximum screened exact exchange              ....  0.833000
   Range separation parameter mu (erf(mu*r12)/r12)        ....  0.300000
   NL short-range parameter             ....  6.000000
   NL long-range parameter              ....  0.010000


General Settings:
 Integral files         IntName         .... 65_Mn
 Hartree-Fock type      HFTyp           .... UHF
 Total Charge           Charge          ....    0
 Multiplicity           Mult            ....    6
 Number of Electrons    NEL             ....   25
 Basis Dimension        Dim             ....   93
 Nuclear Repulsion      ENuc            ....      0.0000000000 Eh

Convergence Acceleration:
 DIIS                   CNVDIIS         .... on
   Start iteration      DIISMaxIt       ....    12
   Startup error        DIISStart       ....  0.200000
   # of expansion vecs  DIISMaxEq       ....     5
   Bias factor          DIISBfac        ....   1.050
   Max. coefficient     DIISMaxC        ....  10.000
 Newton-Raphson         CNVNR           .... off
 SOSCF                  CNVSOSCF        .... off
 Level Shifting         CNVShift        .... on
   Level shift para.    LevelShift      ....    0.2500
   Turn off err/grad.   ShiftErr        ....    0.0010
 Zerner damping         CNVZerner       .... off
 Static damping         CNVDamp         .... on
   Fraction old density DampFac         ....    0.7000
   Max. Damping (<1)    DampMax         ....    0.9800
   Min. Damping (>=0)   DampMin         ....    0.0000
   Turn off err/grad.   DampErr         ....    0.1000
 Fernandez-Rico         CNVRico         .... off

SCF Procedure:
 Maximum # iterations   MaxIter         ....   125
 SCF integral mode      SCFMode         .... Direct
   Integral package                     .... LIBINT
 Reset frequency        DirectResetFreq ....    20
 Integral Threshold     Thresh          ....  1.000e-10 Eh
 Primitive CutOff       TCut            ....  1.000e-11 Eh

Convergence Tolerance:
 Convergence Check Mode ConvCheckMode   .... Total+1el-Energy
 Convergence forced     ConvForced      .... 0
 Energy Change          TolE            ....  1.000e-06 Eh
 1-El. energy change                    ....  1.000e-03 Eh
 DIIS Error             TolErr          ....  1.000e-06


Diagonalization of the overlap matrix:
Smallest eigenvalue                        ... 1.644e-04
Time for diagonalization                   ...    0.003 sec
Threshold for overlap eigenvalues          ... 1.000e-08
Number of eigenvalues below threshold      ... 0
Time for construction of square roots      ...    0.002 sec
Total time needed                          ...    0.005 sec

-------------------
DFT GRID GENERATION
-------------------

General Integration Accuracy     IntAcc      ...  4.670
Radial Grid Type                 RadialGrid  ... Gauss-Chebyshev
Angular Grid (max. acc.)         AngularGrid ... Lebedev-302
Angular grid pruning method      GridPruning ... 3 (G Style)
Weight generation scheme         WeightScheme... Becke
Basis function cutoff            BFCut       ...    1.0000e-10
Integration weight cutoff        WCut        ...    1.0000e-14
Grids for H and He will be reduced by one unit

# of grid points (after initial pruning)     ...   9664 (   0.0 sec)
# of grid points (after weights+screening)   ...   9664 (   0.0 sec)
Grid point division into batches done        ...    0.1 sec
Reduced shell lists constructed in    0.1 sec

Total number of grid points                  ...     9664
Total number of batches                      ...      152
Average number of points per batch           ...       63
Average number of grid points per atom       ...     9664
Average number of shells per batch           ...    10.62 (42.50%)
Average number of basis functions per batch  ...    26.38 (28.36%)
Average number of large shells per batch     ...     4.88 (45.88%)
Average number of large basis fcns per batch ...    12.38 (46.92%)
Maximum spatial batch extension              ...  27.95, 22.27, 22.27 au
Average spatial batch extension              ...   0.96,  0.88,  0.86 au

Time for grid setup =    0.125 sec

------------------------------
INITIAL GUESS: MODEL POTENTIAL
------------------------------
Loading Hartree-Fock densities                     ... done
Calculating cut-offs                               ... done
Setting up the integral package                    ... done
Initializing the effective Hamiltonian             ... done
Starting the Coulomb interaction                   ... done (   0.0 sec)
Reading the grid                                   ... done
Mapping shells                                     ... done
Starting the XC term evaluation                    ... done (   0.0 sec)
  promolecular density results
     # of electrons  =     24.999991684
     EX              =    -38.597493742
     EC              =     -1.444140565
     EX+EC           =    -40.041634308
Transforming the Hamiltonian                       ... done (   0.0 sec)
Diagonalizing the Hamiltonian                      ... done (   0.0 sec)
Back transforming the eigenvectors                 ... done (   0.0 sec)
Now organizing SCF variables                       ... done
                      ------------------
                      INITIAL GUESS DONE (   0.2 sec)
                      ------------------
--------------
SCF ITERATIONS
--------------
ITER       Energy         Delta-E        Max-DP      RMS-DP      [F,P]     Damp
               ***  Starting incremental Fock matrix formation  ***
  0  -1143.5872604872   0.000000000000 1.95065136  0.06698976  1.3543729 0.7000
  1  -1147.4728722226  -3.885611735456 1.30898050  0.02136532  0.3973143 0.7000
  2  -1148.9208810796  -1.448008856968 0.94115841  0.02235412  0.2674746 0.7000
  3  -1149.5896728414  -0.668791761840 0.67504854  0.01640230  0.3324094 0.7000
  4  -1149.9850489245  -0.395376083013 0.47850902  0.01155787  0.2939313 0.7000
  5  -1150.2504588563  -0.265409931814 0.33637750  0.00806971  0.2197968 0.7000
                               ***Turning on DIIS***
  6  -1150.4361186381  -0.185659781807 0.23513724  0.00556571  0.1492134 0.7000
  7  -1150.5678911776  -0.131772539501 0.16310076  0.00373312  0.1026771 0.7000
  8  -1150.6623330441  -0.094441866528 0.37000982  0.00863094  0.0728676 0.0000
  9  -1150.8951570127  -0.232823968618 0.02512297  0.00036741  0.0169100 0.0000
 10  -1150.8962234593  -0.001066446620 0.03245574  0.00040931  0.0092058 0.0000
 11  -1150.8966437280  -0.000420268651 0.03200067  0.00028400  0.0038662 0.0000
 12  -1150.8967543233  -0.000110595339 0.01769228  0.00015741  0.0029327 0.0000
 13  -1150.8968218973  -0.000067574006 0.01273346  0.00011141  0.0012955 0.0000
 14  -1150.8968542428  -0.000032345472 0.00526270  0.00004970  0.0012244 0.0000
 15  -1150.8968725355  -0.000018292730 0.00183064  0.00001888  0.0013542 0.0000
 16  -1150.8968805124  -0.000007976900 0.00038470  0.00000934  0.0014132 0.0000
 17  -1150.8968842496  -0.000003737171 0.00073697  0.00001310  0.0014455 0.0000
 18  -1150.8968907706  -0.000006520953 0.00059719  0.00000806  0.0015008 0.0000
 19  -1150.8968965116  -0.000005740991 0.00108728  0.00001411  0.0015469 0.0000
               *** Restarting incremental Fock matrix formation ***
                                   *** Resetting DIIS ***
 20  -1150.8969041559  -0.000007644325 0.00297509  0.00004335  0.0016033 0.0000
 21  -1150.8969319686  -0.000027812737 0.00192547  0.00002495  0.0018217 0.0000
 22  -1150.8969530929  -0.000021124313 0.00226488  0.00002715  0.0019661 0.0000
 23  -1150.8969340920   0.000019000928 0.00183365  0.00002081  0.0018277 0.0000
 24  -1150.8969186262   0.000015465828 0.00276651  0.00003149  0.0017123 0.0000
 25  -1150.8968969311   0.000021695073 0.00304318  0.00003849  0.0015376 0.0000
 26  -1150.8968770225   0.000019908578 0.00291018  0.00003740  0.0013587 0.0000
 27  -1150.8968599748   0.000017047679 0.00568964  0.00006426  0.0011829 0.0000
 28  -1150.8968329148   0.000027060013 0.00758340  0.00009051  0.0008221 0.0000
 29  -1150.8968129859   0.000019928976 0.00245989  0.00003786  0.0007308 0.0000
 30  -1150.8968164474  -0.000003461581 0.00225143  0.00002696  0.0007343 0.0000
 31  -1150.8968203558  -0.000003908357 0.00138219  0.00001542  0.0007319 0.0000
 32  -1150.8968226539  -0.000002298152 0.00081973  0.00000930  0.0007324 0.0000
 33  -1150.8968240360  -0.000001382004 0.00205012  0.00002272  0.0007337 0.0000
 34  -1150.8968274315  -0.000003395578 0.00137741  0.00001517  0.0007339 0.0000
 35  -1150.8968297204  -0.000002288872 0.00058460  0.00000643  0.0007346 0.0000
                 **** Energy Check signals convergence ****

               *****************************************************
               *                     SUCCESS                       *
               *           SCF CONVERGED AFTER  36 CYCLES          *
               *****************************************************


Setting up the DFT-NL grid :

General Integration Accuracy     IntAcc      ...  4.340
Radial Grid Type                 RadialGrid  ... Gauss-Chebyshev
Angular Grid (max. acc.)         AngularGrid ... Lebedev-110
Angular grid pruning method      GridPruning ... 3 (G Style)
Weight generation scheme         WeightScheme... Becke
Basis function cutoff            BFCut       ...    1.0000e-10
Integration weight cutoff        WCut        ...    1.0000e-14
Grids for H and He will be reduced by one unit

# of grid points (after initial pruning)     ...   2912 (   0.0 sec)
# of grid points (after weights+screening)   ...   2912 (   0.0 sec)
Grid point division into batches done        ...    0.0 sec
Reduced shell lists constructed in    0.0 sec

Total number of grid points                  ...     2912
Total number of batches                      ...       46
Average number of points per batch           ...       63
Average number of grid points per atom       ...     2912
Average number of shells per batch           ...    14.00 (56.00%)
Average number of basis functions per batch  ...    40.67 (43.73%)
Average number of large shells per batch     ...    10.00 (71.43%)
Average number of large basis fcns per batch ...    27.33 (67.21%)
Maximum spatial batch extension              ...  18.98, 28.73, 28.73 au
Average spatial batch extension              ...   0.83,  1.25,  1.25 au

Final grid set up in    0.0 sec

-------------------------------------------------------------------------------
                         DFT-NL dispersion correction                          
-------------------------------------------------------------------------------

SC Energy -1150.896830693 
NL    Energy 0.106346393 
SC+NL Energy -1150.790484300 
NL done in    0.0 sec
-------------------------------------------------------------------------------

----------------
TOTAL SCF ENERGY
----------------

Total Energy       :        -1150.79048430 Eh          -31314.60108 eV

Components:
Nuclear Repulsion  :            0.00000000 Eh               0.00000 eV
Electronic Energy  :        -1150.79048430 Eh          -31314.60108 eV
One Electron Energy:        -1588.93888937 Eh          -43237.22532 eV
Two Electron Energy:          438.14840507 Eh           11922.62424 eV

Virial components:
Potential Energy   :        -2300.13550273 Eh          -62589.86904 eV
Kinetic Energy     :         1149.34501843 Eh           31275.26796 eV
Virial Ratio       :            2.00125764


DFT components:
N(Alpha)           :       15.000002518941 electrons
N(Beta)            :       10.000002489001 electrons
N(Total)           :       25.000005007942 electrons
E(X)               :      -38.852990008286 Eh       
E(C)               :       -1.402707179291 Eh       
NL Energy, E(C,NL) :        0.106346392822 Eh       
E(XC)              :      -40.149350794755 Eh       
DFET-embed. en.    :        0.000000000000 Eh       

---------------
SCF CONVERGENCE
---------------

  Last Energy change         ...   -9.7249e-07  Tolerance :   1.0000e-06
  Last MAX-Density change    ...    9.0263e-04  Tolerance :   1.0000e-05
  Last RMS-Density change    ...    9.9726e-06  Tolerance :   1.0000e-06
  Last DIIS Error            ...    7.3506e-04  Tolerance :   1.0000e-06

             **** THE GBW FILE WAS UPDATED (65_Mn.gbw) ****
             **** DENSITY FILE WAS UPDATED (65_Mn.scfp) ****
             **** ENERGY FILE WAS UPDATED (65_Mn.en.tmp) ****
----------------------
UHF SPIN CONTAMINATION
----------------------

Warning: in a DFT calculation there is little theoretical justification to 
         calculate <S**2> as in Hartree-Fock theory. We will do it anyways
         but you should keep in mind that the values have only limited relevance

Expectation value of <S**2>     :     8.757298
Ideal value S*(S+1) for S=2.5   :     8.750000
Deviation                       :     0.007298

             **** THE GBW FILE WAS UPDATED (65_Mn.gbw) ****
             **** DENSITY FILE WAS UPDATED (65_Mn.scfp) ****
----------------
ORBITAL ENERGIES
----------------
                 SPIN UP ORBITALS
  NO   OCC          E(Eh)            E(eV) 
   0   1.0000    -235.266779     -6401.9345 
   1   1.0000     -27.262063      -741.8384 
   2   1.0000     -23.342815      -635.1903 
   3   1.0000     -23.328140      -634.7909 
   4   1.0000     -23.315216      -634.4393 
   5   1.0000      -3.241665       -88.2102 
   6   1.0000      -2.140849       -58.2555 
   7   1.0000      -2.109010       -57.3891 
   8   1.0000      -2.080896       -56.6241 
   9   1.0000      -0.337362        -9.1801 
  10   1.0000      -0.335428        -9.1275 
  11   1.0000      -0.323817        -8.8115 
  12   1.0000      -0.310811        -8.4576 
  13   1.0000      -0.281901        -7.6709 
  14   1.0000      -0.245747        -6.6871 
  15   0.0000       0.015063         0.4099 
  16   0.0000       0.017014         0.4630 
  17   0.0000       0.018518         0.5039 
  18   0.0000       0.027181         0.7396 
  19   0.0000       0.062451         1.6994 
  20   0.0000       0.065294         1.7768 
  21   0.0000       0.067734         1.8431 
  22   0.0000       0.088312         2.4031 
  23   0.0000       0.088446         2.4067 
  24   0.0000       0.089071         2.4237 
  25   0.0000       0.089725         2.4415 
  26   0.0000       0.090614         2.4657 
  27   0.0000       0.151246         4.1156 
  28   0.0000       0.236064         6.4236 
  29   0.0000       0.240751         6.5512 
  30   0.0000       0.244958         6.6657 
  31   0.0000       0.315054         8.5730 
  32   0.0000       0.315684         8.5902 
  33   0.0000       0.318422         8.6647 
  34   0.0000       0.321598         8.7511 
  35   0.0000       0.324915         8.8414 
  36   0.0000       0.552344        15.0300 
  37   0.0000       0.777152        21.1474 
  38   0.0000       0.777369        21.1533 
  39   0.0000       0.780575        21.2405 
  40   0.0000       0.782038        21.2803 
  41   0.0000       0.783851        21.3297 
  42   0.0000       0.787401        21.4263 
  43   0.0000       0.787748        21.4357 
  44   0.0000       0.802870        21.8472 
  45   0.0000       0.812342        22.1049 
  46   0.0000       0.821413        22.3518 
  47   0.0000       1.079649        29.3787 
  48   0.0000       1.080782        29.4096 
  49   0.0000       1.087592        29.5949 
  50   0.0000       1.095193        29.8017 
  51   0.0000       1.106408        30.1069 
  52   0.0000       2.318878        63.0999 
  53   0.0000       2.319180        63.1081 
  54   0.0000       2.325464        63.2791 
  55   0.0000       2.327220        63.3269 
  56   0.0000       2.338366        63.6302 
  57   0.0000       2.347993        63.8921 
  58   0.0000       2.350769        63.9677 
  59   0.0000       2.721370        74.0522 
  60   0.0000       2.793934        76.0268 
  61   0.0000       2.793981        76.0281 
  62   0.0000       2.797751        76.1307 
  63   0.0000       2.798534        76.1520 
  64   0.0000       2.798925        76.1626 
  65   0.0000       2.805143        76.3318 
  66   0.0000       2.807579        76.3981 
  67   0.0000       2.810284        76.4717 
  68   0.0000       2.817276        76.6620 
  69   0.0000       2.817746        76.6748 
  70   0.0000       2.817975        76.6810 
  71   0.0000       2.835301        77.1525 
  72   0.0000       4.017932       109.3335 
  73   0.0000       4.019515       109.3766 
  74   0.0000       4.029682       109.6532 
  75   0.0000       4.040981       109.9607 
  76   0.0000       4.063354       110.5695 
  77   0.0000       7.593717       206.6355 
  78   0.0000       7.594124       206.6466 
  79   0.0000       7.601778       206.8549 
  80   0.0000       7.603775       206.9092 
  81   0.0000       7.628394       207.5792 
  82   0.0000       7.644080       208.0060 
  83   0.0000       7.651082       208.1965 
  84   0.0000       8.093451       220.2340 
  85   0.0000       8.093520       220.2359 
  86   0.0000       8.097157       220.3348 
  87   0.0000       8.097417       220.3419 
  88   0.0000       8.114794       220.8148 
  89   0.0000       8.117923       220.8999 
  90   0.0000       8.127056       221.1484 
  91   0.0000       8.140761       221.5214 
  92   0.0000       8.142809       221.5771 

                 SPIN DOWN ORBITALS
  NO   OCC          E(Eh)            E(eV) 
   0   1.0000    -235.265139     -6401.8899 
   1   1.0000     -27.200557      -740.1648 
   2   1.0000     -23.285640      -633.6345 
   3   1.0000     -23.278718      -633.4461 
   4   1.0000     -23.272410      -633.2745 
   5   1.0000      -3.081188       -83.8434 
   6   1.0000      -1.939646       -52.7805 
   7   1.0000      -1.936124       -52.6846 
   8   1.0000      -1.931328       -52.5541 
   9   1.0000      -0.199874        -5.4389 
  10   0.0000      -0.002491        -0.0678 
  11   0.0000       0.032112         0.8738 
  12   0.0000       0.032189         0.8759 
  13   0.0000       0.034090         0.9276 
  14   0.0000       0.043470         1.1829 
  15   0.0000       0.096476         2.6253 
  16   0.0000       0.096780         2.6335 
  17   0.0000       0.097216         2.6454 
  18   0.0000       0.097505         2.6532 
  19   0.0000       0.098631         2.6839 
  20   0.0000       0.099636         2.7112 
  21   0.0000       0.100346         2.7306 
  22   0.0000       0.104610         2.8466 
  23   0.0000       0.149990         4.0814 
  24   0.0000       0.150338         4.0909 
  25   0.0000       0.163280         4.4431 
  26   0.0000       0.174998         4.7619 
  27   0.0000       0.182460         4.9650 
  28   0.0000       0.276305         7.5186 
  29   0.0000       0.278314         7.5733 
  30   0.0000       0.282823         7.6960 
  31   0.0000       0.339129         9.2282 
  32   0.0000       0.367527        10.0009 
  33   0.0000       0.371398        10.1063 
  34   0.0000       0.379164        10.3176 
  35   0.0000       0.383340        10.4312 
  36   0.0000       0.596665        16.2361 
  37   0.0000       0.806975        21.9589 
  38   0.0000       0.813354        22.1325 
  39   0.0000       0.817955        22.2577 
  40   0.0000       0.819963        22.3123 
  41   0.0000       0.822837        22.3905 
  42   0.0000       0.838105        22.8060 
  43   0.0000       0.839338        22.8395 
  44   0.0000       0.856918        23.3179 
  45   0.0000       0.859066        23.3764 
  46   0.0000       0.861160        23.4333 
  47   0.0000       1.147556        31.2266 
  48   0.0000       1.161021        31.5930 
  49   0.0000       1.162966        31.6459 
  50   0.0000       1.172032        31.8926 
  51   0.0000       1.179119        32.0855 
  52   0.0000       2.408525        65.5393 
  53   0.0000       2.408993        65.5520 
  54   0.0000       2.410703        65.5986 
  55   0.0000       2.413774        65.6821 
  56   0.0000       2.419801        65.8461 
  57   0.0000       2.427481        66.0551 
  58   0.0000       2.428814        66.0914 
  59   0.0000       2.816705        76.6464 
  60   0.0000       2.849364        77.5351 
  61   0.0000       2.849547        77.5401 
  62   0.0000       2.854031        77.6621 
  63   0.0000       2.855606        77.7050 
  64   0.0000       2.858924        77.7953 
  65   0.0000       2.859357        77.8070 
  66   0.0000       2.859378        77.8076 
  67   0.0000       2.859772        77.8183 
  68   0.0000       2.861365        77.8617 
  69   0.0000       2.903804        79.0165 
  70   0.0000       2.906634        79.0935 
  71   0.0000       2.913594        79.2829 
  72   0.0000       4.129766       112.3767 
  73   0.0000       4.144800       112.7857 
  74   0.0000       4.145411       112.8024 
  75   0.0000       4.159689       113.1909 
  76   0.0000       4.173403       113.5641 
  77   0.0000       7.743773       210.7188 
  78   0.0000       7.743803       210.7196 
  79   0.0000       7.752627       210.9597 
  80   0.0000       7.753167       210.9744 
  81   0.0000       7.765556       211.3115 
  82   0.0000       7.770316       211.4410 
  83   0.0000       7.770497       211.4460 
  84   0.0000       8.202487       223.2010 
  85   0.0000       8.202508       223.2016 
  86   0.0000       8.214467       223.5270 
  87   0.0000       8.215054       223.5430 
  88   0.0000       8.223533       223.7737 
  89   0.0000       8.225005       223.8138 
  90   0.0000       8.225123       223.8170 
  91   0.0000       8.225227       223.8198 
  92   0.0000       8.229555       223.9376 

                    ********************************
                    * MULLIKEN POPULATION ANALYSIS *
                    ********************************

--------------------------------------------
MULLIKEN ATOMIC CHARGES AND SPIN POPULATIONS
--------------------------------------------
   0 Mn:   -0.000000    5.000000
Sum of atomic charges         :   -0.0000000
Sum of atomic spin populations:    5.0000000

-----------------------------------------------------
MULLIKEN REDUCED ORBITAL CHARGES AND SPIN POPULATIONS
-----------------------------------------------------
CHARGE
  0 Mns       :     6.999793  s :     6.999793
      pz      :     3.999956  p :    11.999848
      px      :     3.999970
      py      :     3.999922
      dz2     :     1.521567  d :     6.000118
      dxz     :     0.999992
      dyz     :     1.000359
      dx2y2   :     1.477297
      dxy     :     1.000902
      f0      :     0.000017  f :     0.000152
      f+1     :     0.000003
      f-1     :     0.000031
      f+2     :     0.000027
      f-2     :     0.000000
      f+3     :     0.000028
      f-3     :     0.000047
      g0      :     0.000006  g :     0.000089
      g+1     :     0.000004
      g-1     :     0.000002
      g+2     :     0.000011
      g-2     :     0.000000
      g+3     :     0.000005
      g-3     :     0.000010
      g+4     :     0.000027
      g-4     :     0.000025

SPIN
  0 Mns       :     0.999671  s :     0.999671
      pz      :     0.000024  p :    -0.000010
      px      :    -0.000008
      py      :    -0.000026
      dz2     :     0.478417  d :     4.000247
      dxz     :     0.999991
      dyz     :     0.999617
      dx2y2   :     0.523172
      dxy     :     0.999049
      f0      :    -0.000011  f :     0.000010
      f+1     :     0.000002
      f-1     :    -0.000010
      f+2     :    -0.000013
      f-2     :    -0.000000
      f+3     :     0.000006
      f-3     :     0.000036
      g0      :     0.000003  g :     0.000082
      g+1     :     0.000004
      g-1     :     0.000002
      g+2     :     0.000008
      g-2     :     0.000000
      g+3     :     0.000005
      g-3     :     0.000010
      g+4     :     0.000025
      g-4     :     0.000025


                     *******************************
                     * LOEWDIN POPULATION ANALYSIS *
                     *******************************

-------------------------------------------
LOEWDIN ATOMIC CHARGES AND SPIN POPULATIONS
-------------------------------------------
   0 Mn:   -0.000000    5.000000

----------------------------------------------------
LOEWDIN REDUCED ORBITAL CHARGES AND SPIN POPULATIONS
----------------------------------------------------
CHARGE
  0 Mns       :     6.999793  s :     6.999793
      pz      :     3.999956  p :    11.999848
      px      :     3.999970
      py      :     3.999922
      dz2     :     1.521567  d :     6.000118
      dxz     :     0.999992
      dyz     :     1.000359
      dx2y2   :     1.477297
      dxy     :     1.000902
      f0      :     0.000017  f :     0.000152
      f+1     :     0.000003
      f-1     :     0.000031
      f+2     :     0.000027
      f-2     :     0.000000
      f+3     :     0.000028
      f-3     :     0.000047
      g0      :     0.000006  g :     0.000089
      g+1     :     0.000004
      g-1     :     0.000002
      g+2     :     0.000011
      g-2     :     0.000000
      g+3     :     0.000005
      g-3     :     0.000010
      g+4     :     0.000027
      g-4     :     0.000025

SPIN
  0 Mns       :     0.999671  s :     0.999671
      pz      :     0.000024  p :    -0.000010
      px      :    -0.000008
      py      :    -0.000026
      dz2     :     0.478417  d :     4.000247
      dxz     :     0.999991
      dyz     :     0.999617
      dx2y2   :     0.523172
      dxy     :     0.999049
      f0      :    -0.000011  f :     0.000010
      f+1     :     0.000002
      f-1     :    -0.000010
      f+2     :    -0.000013
      f-2     :    -0.000000
      f+3     :     0.000006
      f-3     :     0.000036
      g0      :     0.000003  g :     0.000082
      g+1     :     0.000004
      g-1     :     0.000002
      g+2     :     0.000008
      g-2     :     0.000000
      g+3     :     0.000005
      g-3     :     0.000010
      g+4     :     0.000025
      g-4     :     0.000025


                      *****************************
                      * MAYER POPULATION ANALYSIS *
                      *****************************

  NA   - Mulliken gross atomic population
  ZA   - Total nuclear charge
  QA   - Mulliken gross atomic charge
  VA   - Mayer's total valence
  BVA  - Mayer's bonded valence
  FA   - Mayer's free valence

  ATOM       NA         ZA         QA         VA         BVA        FA
  0 Mn    25.0000    25.0000    -0.0000     5.0146     0.0000     5.0146

  Mayer bond orders larger than 0.100000


-------
TIMINGS
-------

Total SCF time: 0 days 0 hours 6 min 28 sec 

Total time                  ....     388.796 sec
Sum of individual times     ....     388.428 sec  ( 99.9%)

Fock matrix formation       ....     388.062 sec  ( 99.8%)
  XC integration            ....       0.450 sec  (  0.1% of F)
    Basis function eval.    ....       0.105 sec  ( 23.4% of XC)
    Density eval.           ....       0.042 sec  (  9.3% of XC)
    XC-Functional eval.     ....       0.027 sec  (  6.0% of XC)
    XC-Potential eval.      ....       0.086 sec  ( 19.0% of XC)
Diagonalization             ....       0.086 sec  (  0.0%)
Density matrix formation    ....       0.016 sec  (  0.0%)
Population analysis         ....       0.004 sec  (  0.0%)
Initial guess               ....       0.088 sec  (  0.0%)
Orbital Transformation      ....       0.000 sec  (  0.0%)
Orbital Orthonormalization  ....       0.000 sec  (  0.0%)
DIIS solution               ....       0.035 sec  (  0.0%)
Grid generation             ....       0.136 sec  (  0.0%)

-------------------------   --------------------
FINAL SINGLE POINT ENERGY     -1150.790484300065
-------------------------   --------------------


                            ***************************************
                            *     ORCA property calculations      *
                            ***************************************

                                    ---------------------
                                    Active property flags
                                    ---------------------
   (+) Dipole Moment


------------------------------------------------------------------------------
                       ORCA ELECTRIC PROPERTIES CALCULATION
------------------------------------------------------------------------------

Dipole Moment Calculation                       ... on
Quadrupole Moment Calculation                   ... off
Polarizability Calculation                      ... off
GBWName                                         ... 65_Mn.gbw
Electron density file                           ... 65_Mn.scfp
The origin for moment calculation is the CENTER OF MASS  = ( 0.000000,  0.000000  0.000000)

-------------
DIPOLE MOMENT
-------------
                                X             Y             Z
Electronic contribution:      0.00000      -0.00000       0.00000
Nuclear contribution   :      0.00000       0.00000       0.00000
                        -----------------------------------------
Total Dipole Moment    :      0.00000      -0.00000       0.00000
                        -----------------------------------------
Magnitude (a.u.)       :      0.00000
Magnitude (Debye)      :      0.00000



--------------------
Rotational spectrum 
--------------------
 
Rotational constants in cm-1:     0.000000     0.000000     0.000000 
Rotational constants in MHz :     0.000000     0.000000     0.000000 

 Dipole components along the rotational axes: 
x,y,z [a.u.] :     0.000000    -0.000000     0.000000 
x,y,z [Debye]:     0.000000    -0.000000     0.000000 

 

Timings for individual modules:

Sum of individual times         ...      392.443 sec (=   6.541 min)
GTO integral calculation        ...        3.039 sec (=   0.051 min)   0.8 %
SCF iterations                  ...      389.405 sec (=   6.490 min)  99.2 %
                             ****ORCA TERMINATED NORMALLY****
TOTAL RUN TIME: 0 days 0 hours 6 minutes 33 seconds 48 msec
