
                                 *****************
                                 * O   R   C   A *
                                 *****************

           --- An Ab Initio, DFT and Semiempirical electronic structure package ---

                  #######################################################
                  #                        -***-                        #
                  #          Department of theory and spectroscopy      #
                  #               Directorship: Frank Neese             #
                  #        Max Planck Institute fuer Kohlenforschung    #
                  #                Kaiser Wilhelm Platz 1               #
                  #                 D-45470 Muelheim/Ruhr               #
                  #                      Germany                        #
                  #                                                     #
                  #                  All rights reserved                #
                  #                        -***-                        #
                  #######################################################


                         Program Version 4.2.0 -  RELEASE  -


 With contributions from (in alphabetic order):
   Daniel Aravena         : Magnetic Suceptibility
   Michael Atanasov       : Ab Initio Ligand Field Theory (pilot matlab implementation)
   Alexander A. Auer      : GIAO ZORA, VPT2
   Ute Becker             : Parallelization
   Giovanni Bistoni       : ED, misc. LED, open-shell LED, HFLED
   Martin Brehm           : Molecular dynamics
   Dmytro Bykov           : SCF Hessian
   Vijay G. Chilkuri      : MRCI spin determinant printing, contributions to CSF-ICE
   Dipayan Datta          : RHF DLPNO-CCSD density
   Achintya Kumar Dutta   : EOM-CC, STEOM-CC
   Dmitry Ganyushin       : Spin-Orbit,Spin-Spin,Magnetic field MRCI
   Miquel Garcia          : C-PCM Hessian, Gaussian charge scheme
   Yang Guo               : DLPNO-NEVPT2, CIM, IAO-localization
   Andreas Hansen         : Spin unrestricted coupled pair/coupled cluster methods
   Benjamin Helmich-Paris : CASSCF linear response (MC-RPA)
   Lee Huntington         : MR-EOM, pCC
   Robert Izsak           : Overlap fitted RIJCOSX, COSX-SCS-MP3, EOM
   Christian Kollmar      : KDIIS, OOCD, Brueckner-CCSD(T), CCSD density
   Simone Kossmann        : Meta GGA functionals, TD-DFT gradient, OOMP2, MP2 Hessian
   Martin Krupicka        : AUTO-CI
   Lucas Lang             : DCDCAS
   Dagmar Lenk            : GEPOL surface, SMD
   Dimitrios Liakos       : Extrapolation schemes; Compound Job, initial MDCI parallelization
   Dimitrios Manganas     : Further ROCIS development; embedding schemes
   Dimitrios Pantazis     : SARC Basis sets
   Taras Petrenko         : DFT Hessian,TD-DFT gradient, ASA, ECA, R-Raman, ABS, FL, XAS/XES, NRVS
   Peter Pinski           : DLPNO-MP2, DLPNO-MP2 Gradient
   Christoph Reimann      : Effective Core Potentials
   Marius Retegan         : Local ZFS, SOC
   Christoph Riplinger    : Optimizer, TS searches, QM/MM, DLPNO-CCSD(T), (RO)-DLPNO pert. Triples
   Tobias Risthaus        : Range-separated hybrids, TD-DFT gradient, RPA, STAB
   Michael Roemelt        : Original ROCIS implementation
   Masaaki Saitow         : Open-shell DLPNO-CCSD energy and density
   Barbara Sandhoefer     : DKH picture change effects
   Avijit Sen             : IP-ROCIS
   Kantharuban Sivalingam : CASSCF convergence, NEVPT2, FIC-MRCI
   Bernardo de Souza      : ESD, SOC TD-DFT
   Georgi Stoychev        : AutoAux, RI-MP2 NMR
   Willem Van den Heuvel  : Paramagnetic NMR
   Boris Wezisla          : Elementary symmetry handling
   Frank Wennmohs         : Technical directorship


 We gratefully acknowledge several colleagues who have allowed us to
 interface, adapt or use parts of their codes:
   Stefan Grimme, W. Hujo, H. Kruse,             : VdW corrections, initial TS optimization,
                  C. Bannwarth                     DFT functionals, gCP, sTDA/sTD-DF
   Ed Valeev, F. Pavosevic, A. Kumar             : LibInt (2-el integral package), F12 methods
   Garnet Chan, S. Sharma, J. Yang, R. Olivares  : DMRG
   Ulf Ekstrom                                   : XCFun DFT Library
   Mihaly Kallay                                 : mrcc  (arbitrary order and MRCC methods)
   Andreas Klamt, Michael Diedenhofen            : otool_cosmo (COSMO solvation model)
   Jiri Pittner, Ondrej Demel                    : Mk-CCSD
   Frank Weinhold                                : gennbo (NPA and NBO analysis)
   Christopher J. Cramer and Donald G. Truhlar   : smd solvation model
   Lars Goerigk                                  : TD-DFT with DH, B97 family of functionals
   V. Asgeirsson, H. Jonsson                     : NEB implementation
   FAccTs GmbH                                   : IRC, NEB, NEB-TS, Multilevel, MM, QM/MM, CI optimization
   S Lehtola, MJT Oliveira, MAL Marques          : LibXC Library


 Your calculation uses the libint2 library for the computation of 2-el integrals
 For citations please refer to: http://libint.valeyev.net

 Your ORCA version has been built with support for libXC version: 4.2.3
 For citations please refer to: https://tddft.org/programs/libxc/

 This ORCA versions uses:
   CBLAS   interface :  Fast vector & matrix operations
   LAPACKE interface :  Fast linear algebra routines
   SCALAPACK package :  Parallel linear algebra routines


Your calculation utilizes the DFT-NL dispersion correction.
Cite in your paper:
Vydrov, O. A.; Van Voorhis, T. J. Chem. Phys. 2010, 133, 244103
Hujo, W.; Grimme, S. J. Chem. Theory Comput. 2011, 7, 3866 
   

----- Orbital basis set information -----
Your calculation utilizes the basis: aug-cc-pVTZ 
    H, B-Ne : Obtained from the ccRepo (grant-hill.group.shef.ac.uk/ccrepo) Feb. 2017
              R. A. Kendall, T. H. Dunning, Jr., R. J. Harrison, J. Chem. Phys. 96, 6796 (1992)
         He : Obtained from the ccRepo (grant-hill.group.shef.ac.uk/ccrepo) Feb. 2017
              D. E. Woon, T. H. Dunning, Jr., J. Chem. Phys. 100, 2975 (1994)
  Li-Be, Na : Obtained from the ccRepo (grant-hill.group.shef.ac.uk/ccrepo) Feb. 2017
              B. P. Prascher, D. E. Woon, K. A. Peterson, T. H. Dunning, Jr., A. K. Wilson, Theor. Chem. Acc. 128, 69 (2011)
         Mg : Obtained from the Peterson Research Group Website (tyr0.chem.wsu.edu/~kipeters) Feb. 2017
              B. P. Prascher, D. E. Woon, K. A. Peterson, T. H. Dunning, Jr., A. K. Wilson, Theor. Chem. Acc. 128, 69 (2011)
      Al-Ar : Obtained from the ccRepo (grant-hill.group.shef.ac.uk/ccrepo) Feb. 2017
              D. E. Woon, T. H. Dunning, Jr., J. Chem. Phys. 98, 1358 (1993)
      Sc-Zn : Obtained from the ccRepo (grant-hill.group.shef.ac.uk/ccrepo) Feb. 2017
              N. B. Balabanov, K. A. Peterson, J. Chem. Phys. 123, 064107 (2005)
              N. B. Balabanov, K. A. Peterson, J. Chem. Phys. 125, 074110 (2006)
      Ga-Kr : Obtained from the ccRepo (grant-hill.group.shef.ac.uk/ccrepo) Feb. 2017
              A. K. Wilson, D. E. Woon, K. A. Peterson, T. H. Dunning, Jr., J. Chem. Phys. 110, 7667 (1999)
     Ag, Au : Obtained from the Peterson Research Group Website (tyr0.chem.wsu.edu/~kipeters) Feb. 2017
              K. A. Peterson, C. Puzzarini, Theor. Chem. Acc. 114, 283 (2005)

----- AuxJK basis set information -----
Your calculation utilizes the auxiliary basis: def2/JK
   H-Ba, Hf-Rn: F. Weigend, J. Comput. Chem. 29, 167 (2008).

================================================================================
                                        WARNINGS
                       Please study these warnings very carefully!
================================================================================


INFO   : the flag for use of LIBINT has been found!

================================================================================
                                       INPUT FILE
================================================================================
NAME = 70_Zn.in
|  1> #
|  2> # 70_Zn wb97x-v/aug-cc-pvtz
|  3> #
|  4> ! wb97x-v aug-cc-pvtz def2/jk grid4 nofinalgrid
|  5> 
|  6> *xyz 0 1
|  7> Zn 0.0 0.0 0.0
|  8> *
|  9> 
| 10> %pal
| 11> nprocs 24
| 12> end
| 13> 
| 14> 
| 15>                          ****END OF INPUT****
================================================================================

                       ****************************
                       * Single Point Calculation *
                       ****************************

---------------------------------
CARTESIAN COORDINATES (ANGSTROEM)
---------------------------------
  Zn     0.000000    0.000000    0.000000

----------------------------
CARTESIAN COORDINATES (A.U.)
----------------------------
  NO LB      ZA    FRAG     MASS         X           Y           Z
   0 Zn   30.0000    0    65.380    0.000000    0.000000    0.000000

--------------------------------
INTERNAL COORDINATES (ANGSTROEM)
--------------------------------
 Zn     0   0   0     0.000000000000     0.00000000     0.00000000

---------------------------
INTERNAL COORDINATES (A.U.)
---------------------------
 Zn     0   0   0     0.000000000000     0.00000000     0.00000000

---------------------
BASIS SET INFORMATION
---------------------
There are 1 groups of distinct atoms

 Group   1 Type Zn  : 116s77p23d3f2g contracted to 8s7p5d3f2g pattern {19191919191911/151515151511/77711/111/11}

Atom   0Zn   basis set group =>   1
----------------------------------
AUXILIARY/JK BASIS SET INFORMATION
----------------------------------
There are 1 groups of distinct atoms

 Group   1 Type Zn  : 19s14p12d10f7g3h1i contracted to 16s13p11d9f5g3h1i pattern {4111111111111111/2111111111111/21111111111/211111111/31111/111/1}

Atom   0Zn   basis set group =>   1


           ************************************************************
           *        Program running with 24 parallel MPI-processes    *
           *              working on a common directory               *
           ************************************************************
------------------------------------------------------------------------------
                           ORCA GTO INTEGRAL CALCULATION
------------------------------------------------------------------------------

                         BASIS SET STATISTICS AND STARTUP INFO

 # of primitive gaussian shells          ...  221
 # of primitive gaussian functions       ...  501
 # of contracted shells                  ...   25
 # of contracted basis functions         ...   93
 Highest angular momentum                ...    4
 Maximum contraction depth               ...   19
 Integral package used                   ... LIBINT
 Integral threshhold            Thresh   ...  1.000e-10
 Primitive cut-off              TCut     ...  1.000e-11


------------------------------ INTEGRAL EVALUATION ----------------------------


 * One electron integrals 
 Pre-screening matrix                    ... done
 Shell pair data                         ... done (   0.001 sec)



           ************************************************************
           *        Program running with 24 parallel MPI-processes    *
           *              working on a common directory               *
           ************************************************************
-------------------------------------------------------------------------------
                                 ORCA SCF
-------------------------------------------------------------------------------

------------
SCF SETTINGS
------------
Hamiltonian:
 Density Functional     Method          .... DFT(GTOs)
 Exchange Functional    Exchange        .... WB97X-V
 Correlation Functional Correlation     .... WB97X-V
 Gradients option       PostSCFGGA      .... off
 Hybrid DFT is turned on
   Fraction HF Exchange ScalHFX         ....  0.167000
   Scaling of DF-GGA-X  ScalDFX         ....  0.000000
   Scaling of DF-GGA-C  ScalDFC         ....  1.000000
   Scaling of DF-LDA-C  ScalLDAC        ....  1.000000
   Perturbative correction              ....  0.000000
   Density functional embedding theory  .... OFF
 Long-range corrected/Screened/Range-Separated Hybrid DFT is turned on
   Amount of maximum screened exact exchange              ....  0.833000
   Range separation parameter mu (erf(mu*r12)/r12)        ....  0.300000
   NL short-range parameter             ....  6.000000
   NL long-range parameter              ....  0.010000


General Settings:
 Integral files         IntName         .... 70_Zn
 Hartree-Fock type      HFTyp           .... RHF
 Total Charge           Charge          ....    0
 Multiplicity           Mult            ....    1
 Number of Electrons    NEL             ....   30
 Basis Dimension        Dim             ....   93
 Nuclear Repulsion      ENuc            ....      0.0000000000 Eh

Convergence Acceleration:
 DIIS                   CNVDIIS         .... on
   Start iteration      DIISMaxIt       ....    12
   Startup error        DIISStart       ....  0.200000
   # of expansion vecs  DIISMaxEq       ....     5
   Bias factor          DIISBfac        ....   1.050
   Max. coefficient     DIISMaxC        ....  10.000
 Newton-Raphson         CNVNR           .... off
 SOSCF                  CNVSOSCF        .... off
 Level Shifting         CNVShift        .... on
   Level shift para.    LevelShift      ....    0.2500
   Turn off err/grad.   ShiftErr        ....    0.0010
 Zerner damping         CNVZerner       .... off
 Static damping         CNVDamp         .... on
   Fraction old density DampFac         ....    0.7000
   Max. Damping (<1)    DampMax         ....    0.9800
   Min. Damping (>=0)   DampMin         ....    0.0000
   Turn off err/grad.   DampErr         ....    0.1000
 Fernandez-Rico         CNVRico         .... off

SCF Procedure:
 Maximum # iterations   MaxIter         ....   125
 SCF integral mode      SCFMode         .... Direct
   Integral package                     .... LIBINT
 Reset frequency        DirectResetFreq ....    20
 Integral Threshold     Thresh          ....  1.000e-10 Eh
 Primitive CutOff       TCut            ....  1.000e-11 Eh

Convergence Tolerance:
 Convergence Check Mode ConvCheckMode   .... Total+1el-Energy
 Convergence forced     ConvForced      .... 0
 Energy Change          TolE            ....  1.000e-06 Eh
 1-El. energy change                    ....  1.000e-03 Eh
 DIIS Error             TolErr          ....  1.000e-06


Diagonalization of the overlap matrix:
Smallest eigenvalue                        ... 6.540e-04
Time for diagonalization                   ...    0.003 sec
Threshold for overlap eigenvalues          ... 1.000e-08
Number of eigenvalues below threshold      ... 0
Time for construction of square roots      ...    0.001 sec
Total time needed                          ...    0.005 sec

-------------------
DFT GRID GENERATION
-------------------

General Integration Accuracy     IntAcc      ...  4.670
Radial Grid Type                 RadialGrid  ... Gauss-Chebyshev
Angular Grid (max. acc.)         AngularGrid ... Lebedev-302
Angular grid pruning method      GridPruning ... 3 (G Style)
Weight generation scheme         WeightScheme... Becke
Basis function cutoff            BFCut       ...    1.0000e-10
Integration weight cutoff        WCut        ...    1.0000e-14
Grids for H and He will be reduced by one unit

# of grid points (after initial pruning)     ...   9640 (   0.0 sec)
# of grid points (after weights+screening)   ...   9640 (   0.0 sec)
Grid point division into batches done        ...    0.1 sec
Reduced shell lists constructed in    0.1 sec

Total number of grid points                  ...     9640
Total number of batches                      ...      151
Average number of points per batch           ...       63
Average number of grid points per atom       ...     9640
Average number of shells per batch           ...     7.50 (30.00%)
Average number of basis functions per batch  ...    15.25 (16.40%)
Average number of large shells per batch     ...     3.75 (50.00%)
Average number of large basis fcns per batch ...     7.75 (50.82%)
Maximum spatial batch extension              ...  22.45, 20.42, 18.83 au
Average spatial batch extension              ...   0.86,  0.81,  0.78 au

Time for grid setup =    0.124 sec

------------------------------
INITIAL GUESS: MODEL POTENTIAL
------------------------------
Loading Hartree-Fock densities                     ... done
Calculating cut-offs                               ... done
Setting up the integral package                    ... done
Initializing the effective Hamiltonian             ... done
Starting the Coulomb interaction                   ... done (   0.0 sec)
Reading the grid                                   ... done
Mapping shells                                     ... done
Starting the XC term evaluation                    ... done (   0.0 sec)
  promolecular density results
     # of electrons  =     30.000011373
     EX              =    -53.583528937
     EC              =     -1.874704687
     EX+EC           =    -55.458233624
Transforming the Hamiltonian                       ... done (   0.0 sec)
Diagonalizing the Hamiltonian                      ... done (   0.0 sec)
Back transforming the eigenvectors                 ... done (   0.0 sec)
Now organizing SCF variables                       ... done
                      ------------------
                      INITIAL GUESS DONE (   0.2 sec)
                      ------------------
--------------
SCF ITERATIONS
--------------
ITER       Energy         Delta-E        Max-DP      RMS-DP      [F,P]     Damp
               ***  Starting incremental Fock matrix formation  ***
  0  -1778.0032029676   0.000000000000 0.26646912  0.00873079  1.3554031 0.7000
  1  -1778.6766506558  -0.673447688185 0.09497316  0.00276167  0.4474000 0.7000
                               ***Turning on DIIS***
  2  -1778.9115679034  -0.234917247608 0.10605234  0.00245017  0.1494494 0.7000
  3  -1779.0552995832  -0.143731679858 0.08917690  0.00186934  0.1499649 0.7000
  4  -1779.1554743423  -0.100174759092 0.07829673  0.00129370  0.1128164 0.7000
  5  -1779.2258191654  -0.070344823041 0.20254411  0.00301148  0.0711665 0.0000
  6  -1779.3899572585  -0.164138093120 0.00933575  0.00025383  0.0085265 0.0000
  7  -1779.3901101719  -0.000152913400 0.00816769  0.00014880  0.0047508 0.0000
  8  -1779.3901409000  -0.000030728138 0.00617977  0.00011302  0.0017485 0.0000
  9  -1779.3901482342  -0.000007334166 0.00681365  0.00011211  0.0005141 0.0000
 10  -1779.3901493142  -0.000001079962 0.00152670  0.00002255  0.0000624 0.0000
                 **** Energy Check signals convergence ****

               *****************************************************
               *                     SUCCESS                       *
               *           SCF CONVERGED AFTER  11 CYCLES          *
               *****************************************************


Setting up the DFT-NL grid :

General Integration Accuracy     IntAcc      ...  4.340
Radial Grid Type                 RadialGrid  ... Gauss-Chebyshev
Angular Grid (max. acc.)         AngularGrid ... Lebedev-110
Angular grid pruning method      GridPruning ... 3 (G Style)
Weight generation scheme         WeightScheme... Becke
Basis function cutoff            BFCut       ...    1.0000e-10
Integration weight cutoff        WCut        ...    1.0000e-14
Grids for H and He will be reduced by one unit

# of grid points (after initial pruning)     ...   2912 (   0.0 sec)
# of grid points (after weights+screening)   ...   2912 (   0.0 sec)
Grid point division into batches done        ...    0.0 sec
Reduced shell lists constructed in    0.0 sec

Total number of grid points                  ...     2912
Total number of batches                      ...       46
Average number of points per batch           ...       63
Average number of grid points per atom       ...     2912
Average number of shells per batch           ...    11.33 (45.33%)
Average number of basis functions per batch  ...    26.00 (27.96%)
Average number of large shells per batch     ...     8.67 (76.47%)
Average number of large basis fcns per batch ...    20.67 (79.49%)
Maximum spatial batch extension              ...  17.39, 26.34, 26.34 au
Average spatial batch extension              ...   0.76,  1.15,  1.15 au

Final grid set up in    0.0 sec

-------------------------------------------------------------------------------
                         DFT-NL dispersion correction                          
-------------------------------------------------------------------------------

SC Energy -1779.390149339 
NL    Energy 0.128193352 
SC+NL Energy -1779.261955987 
NL done in    0.0 sec
-------------------------------------------------------------------------------

----------------
TOTAL SCF ENERGY
----------------

Total Energy       :        -1779.26195599 Eh          -48416.17925 eV

Components:
Nuclear Repulsion  :            0.00000000 Eh               0.00000 eV
Electronic Energy  :        -1779.26195599 Eh          -48416.17925 eV
One Electron Energy:        -2483.07029354 Eh          -67567.77777 eV
Two Electron Energy:          703.80833755 Eh           19151.59851 eV

Virial components:
Potential Energy   :        -3556.59089414 Eh          -96779.75842 eV
Kinetic Energy     :         1777.32893815 Eh           48363.57916 eV
Virial Ratio       :            2.00108760


DFT components:
N(Alpha)           :       15.000007425646 electrons
N(Beta)            :       15.000007425646 electrons
N(Total)           :       30.000014851291 electrons
E(X)               :      -53.508020395521 Eh       
E(C)               :       -1.873417572605 Eh       
NL Energy, E(C,NL) :        0.128193351698 Eh       
E(XC)              :      -55.253244616429 Eh       
DFET-embed. en.    :        0.000000000000 Eh       

---------------
SCF CONVERGENCE
---------------

  Last Energy change         ...   -2.4666e-08  Tolerance :   1.0000e-06
  Last MAX-Density change    ...    2.3269e-04  Tolerance :   1.0000e-05
  Last RMS-Density change    ...    3.2330e-06  Tolerance :   1.0000e-06
  Last DIIS Error            ...    9.7066e-06  Tolerance :   1.0000e-06

             **** THE GBW FILE WAS UPDATED (70_Zn.gbw) ****
             **** DENSITY FILE WAS UPDATED (70_Zn.scfp) ****
             **** ENERGY FILE WAS UPDATED (70_Zn.en.tmp) ****
             **** THE GBW FILE WAS UPDATED (70_Zn.gbw) ****
             **** DENSITY FILE WAS UPDATED (70_Zn.scfp) ****
----------------
ORBITAL ENERGIES
----------------

  NO   OCC          E(Eh)            E(eV) 
   0   2.0000    -347.079932     -9444.5251 
   1   2.0000     -42.222507     -1148.9328 
   2   2.0000     -37.191741     -1012.0387 
   3   2.0000     -37.191741     -1012.0387 
   4   2.0000     -37.191741     -1012.0387 
   5   2.0000      -4.911949      -133.6609 
   6   2.0000      -3.302372       -89.8621 
   7   2.0000      -3.302372       -89.8621 
   8   2.0000      -3.302372       -89.8621 
   9   2.0000      -0.583942       -15.8899 
  10   2.0000      -0.583942       -15.8899 
  11   2.0000      -0.583942       -15.8899 
  12   2.0000      -0.583942       -15.8899 
  13   2.0000      -0.583942       -15.8899 
  14   2.0000      -0.319664        -8.6985 
  15   0.0000       0.021223         0.5775 
  16   0.0000       0.021223         0.5775 
  17   0.0000       0.021223         0.5775 
  18   0.0000       0.033220         0.9040 
  19   0.0000       0.074110         2.0166 
  20   0.0000       0.074110         2.0166 
  21   0.0000       0.074110         2.0166 
  22   0.0000       0.184138         5.0107 
  23   0.0000       0.247202         6.7267 
  24   0.0000       0.247202         6.7267 
  25   0.0000       0.247202         6.7267 
  26   0.0000       0.247202         6.7267 
  27   0.0000       0.247202         6.7267 
  28   0.0000       0.290238         7.8978 
  29   0.0000       0.290238         7.8978 
  30   0.0000       0.290238         7.8978 
  31   0.0000       0.768816        20.9205 
  32   0.0000       0.858292        23.3553 
  33   0.0000       0.858292        23.3553 
  34   0.0000       0.858292        23.3553 
  35   0.0000       0.858292        23.3553 
  36   0.0000       0.858292        23.3553 
  37   0.0000       1.073119        29.2011 
  38   0.0000       1.073119        29.2011 
  39   0.0000       1.073119        29.2011 
  40   0.0000       1.772503        48.2323 
  41   0.0000       1.772503        48.2323 
  42   0.0000       1.772503        48.2323 
  43   0.0000       1.772503        48.2323 
  44   0.0000       1.772503        48.2323 
  45   0.0000       1.772503        48.2323 
  46   0.0000       1.772503        48.2323 
  47   0.0000       2.905812        79.0712 
  48   0.0000       2.905812        79.0712 
  49   0.0000       2.905812        79.0712 
  50   0.0000       2.905812        79.0712 
  51   0.0000       2.905812        79.0712 
  52   0.0000       4.342533       118.1663 
  53   0.0000       4.433587       120.6440 
  54   0.0000       4.433588       120.6440 
  55   0.0000       4.433588       120.6440 
  56   0.0000       5.075398       138.1086 
  57   0.0000       5.075398       138.1086 
  58   0.0000       5.075398       138.1086 
  59   0.0000       5.075398       138.1086 
  60   0.0000       5.075398       138.1086 
  61   0.0000       5.075398       138.1086 
  62   0.0000       5.075398       138.1086 
  63   0.0000       7.504405       204.2052 
  64   0.0000       7.504405       204.2052 
  65   0.0000       7.504405       204.2052 
  66   0.0000       7.504405       204.2052 
  67   0.0000       7.504405       204.2052 
  68   0.0000       7.504405       204.2052 
  69   0.0000       7.504405       204.2052 
  70   0.0000       7.504405       204.2052 
  71   0.0000       7.504405       204.2052 
  72   0.0000      10.313971       280.6574 
  73   0.0000      10.313971       280.6574 
  74   0.0000      10.313971       280.6574 
  75   0.0000      10.313971       280.6574 
  76   0.0000      10.313971       280.6574 
  77   0.0000      16.009714       435.6465 
  78   0.0000      16.009714       435.6465 
  79   0.0000      16.009714       435.6465 
  80   0.0000      16.009714       435.6465 
  81   0.0000      16.009714       435.6465 
  82   0.0000      16.009714       435.6465 
  83   0.0000      16.009714       435.6465 
  84   0.0000      19.746738       537.3361 
  85   0.0000      19.746738       537.3361 
  86   0.0000      19.746738       537.3361 
  87   0.0000      19.746738       537.3361 
  88   0.0000      19.746738       537.3361 
  89   0.0000      19.746738       537.3361 
  90   0.0000      19.746738       537.3361 
  91   0.0000      19.746738       537.3361 
  92   0.0000      19.746738       537.3361 

                    ********************************
                    * MULLIKEN POPULATION ANALYSIS *
                    ********************************

-----------------------
MULLIKEN ATOMIC CHARGES
-----------------------
   0 Zn:    0.000000
Sum of atomic charges:    0.0000000

--------------------------------
MULLIKEN REDUCED ORBITAL CHARGES
--------------------------------
  0 Zns       :     8.000000  s :     8.000000
      pz      :     4.000000  p :    12.000000
      px      :     4.000000
      py      :     4.000000
      dz2     :     2.000000  d :    10.000000
      dxz     :     2.000000
      dyz     :     2.000000
      dx2y2   :     2.000000
      dxy     :     2.000000
      f0      :     0.000000  f :     0.000000
      f+1     :     0.000000
      f-1     :     0.000000
      f+2     :     0.000000
      f-2     :     0.000000
      f+3     :     0.000000
      f-3     :     0.000000
      g0      :     0.000000  g :     0.000000
      g+1     :     0.000000
      g-1     :     0.000000
      g+2     :     0.000000
      g-2     :     0.000000
      g+3     :     0.000000
      g-3     :     0.000000
      g+4     :     0.000000
      g-4     :     0.000000


                     *******************************
                     * LOEWDIN POPULATION ANALYSIS *
                     *******************************

----------------------
LOEWDIN ATOMIC CHARGES
----------------------
   0 Zn:    0.000000

-------------------------------
LOEWDIN REDUCED ORBITAL CHARGES
-------------------------------
  0 Zns       :     8.000000  s :     8.000000
      pz      :     4.000000  p :    12.000000
      px      :     4.000000
      py      :     4.000000
      dz2     :     2.000000  d :    10.000000
      dxz     :     2.000000
      dyz     :     2.000000
      dx2y2   :     2.000000
      dxy     :     2.000000
      f0      :     0.000000  f :     0.000000
      f+1     :     0.000000
      f-1     :     0.000000
      f+2     :     0.000000
      f-2     :     0.000000
      f+3     :     0.000000
      f-3     :     0.000000
      g0      :     0.000000  g :     0.000000
      g+1     :     0.000000
      g-1     :     0.000000
      g+2     :     0.000000
      g-2     :     0.000000
      g+3     :     0.000000
      g-3     :     0.000000
      g+4     :     0.000000
      g-4     :     0.000000


                      *****************************
                      * MAYER POPULATION ANALYSIS *
                      *****************************

  NA   - Mulliken gross atomic population
  ZA   - Total nuclear charge
  QA   - Mulliken gross atomic charge
  VA   - Mayer's total valence
  BVA  - Mayer's bonded valence
  FA   - Mayer's free valence

  ATOM       NA         ZA         QA         VA         BVA        FA
  0 Zn    30.0000    30.0000     0.0000     0.0000     0.0000     0.0000

  Mayer bond orders larger than 0.100000


--------------------------
ATOM BASIS FOR ELEMENT Zn
--------------------------
 NewGTO Zn
 S 112
    1    5820021.000000000000         0.000008549218
    2     871523.400000000023         0.000066474243
    3     198335.000000000000         0.000349496950
    4      56176.309999999998         0.001473835162
    5      18325.820000000000         0.005338341453
    6       6614.955000000000         0.017127116745
    7       2579.199000000000         0.048940955000
    8       1068.849000000000         0.121793661302
    9        465.104500000000         0.247659431341
   10        210.413000000000         0.358243868594
   11         97.616290000000         0.279818000335
   12         44.380200000000         0.068575057124
   13         21.423080000000        -0.001311094813
   14         10.308910000000         0.001914005106
   15          4.553645000000        -0.000875923879
   16          2.132821000000         0.000374010402
   17          0.929697000000        -0.000140140201
   18          0.192147000000         0.000047571402
   19          0.087595000000        -0.000036427178
   20    5820021.000000000000         0.000000000519
   21     871523.400000000023         0.000000004037
   22     198335.000000000000         0.000000021238
   23      56176.309999999998         0.000000089655
   24      18325.820000000000         0.000000326036
   25       6614.955000000000         0.000001055836
   26       2579.199000000000         0.000003090219
   27       1068.849000000000         0.000008107949
   28        465.104500000000         0.000018499943
   29        210.413000000000         0.000033826811
   30         97.616290000000         0.000038518814
   31         44.380200000000        -0.000008914994
   32         21.423080000000        -0.000103143892
   33         10.308910000000        -0.000098457180
   34          4.553645000000        -0.000017593415
   35          2.132821000000         0.000000422111
   36          0.929697000000        -0.000000415395
   37    5820021.000000000000         0.000000000014
   38     871523.400000000023         0.000000000109
   39     198335.000000000000         0.000000000573
   40      56176.309999999998         0.000000002424
   41      18325.820000000000         0.000000008806
   42       6614.955000000000         0.000000028599
   43       2579.199000000000         0.000000083772
   44       1068.849000000000         0.000000221807
   45        465.104500000000         0.000000511755
   46        210.413000000000         0.000000969638
   47         97.616290000000         0.000001158962
   48         44.380200000000        -0.000000282965
   49         21.423080000000        -0.000004575762
   50         10.308910000000        -0.000006475512
   51          4.553645000000         0.000002300941
   52          2.132821000000         0.000010265829
   53          0.929697000000         0.000005303411
   54    5820021.000000000000        -0.000000000070
   55     871523.400000000023        -0.000000000542
   56     198335.000000000000        -0.000000002846
   57      56176.309999999998        -0.000000012034
   58      18325.820000000000        -0.000000043705
   59       6614.955000000000        -0.000000142036
   60       2579.199000000000        -0.000000415938
   61       1068.849000000000        -0.000001103070
   62        465.104500000000        -0.000002547077
   63        210.413000000000        -0.000004851757
   64         97.616290000000        -0.000005825893
   65         44.380200000000         0.000001407315
   66         21.423080000000         0.000024302258
   67         10.308910000000         0.000035922480
   68          4.553645000000        -0.000015593098
   69          2.132821000000        -0.000074977116
   70          0.929697000000        -0.000077422944
   71          0.192147000000         0.000108620460
   72          0.087595000000         0.000198544896
   73    5820021.000000000000         0.000000000028
   74     871523.400000000023         0.000000000223
   75     198335.000000000000         0.000000001129
   76      56176.309999999998         0.000000005006
   77      18325.820000000000         0.000000017109
   78       6614.955000000000         0.000000059889
   79       2579.199000000000         0.000000160190
   80       1068.849000000000         0.000000474488
   81        465.104500000000         0.000000952864
   82        210.413000000000         0.000002198573
   83         97.616290000000         0.000001833910
   84         44.380200000000         0.000000841363
   85         21.423080000000        -0.000013581478
   86         10.308910000000        -0.000010715520
   87          4.553645000000         0.000000911221
   88          2.132821000000         0.000069527157
   89          0.929697000000        -0.000042022818
   90          0.192147000000        -0.000087047333
   91          0.087595000000         0.000071313413
   92    5820021.000000000000        -0.000000000133
   93     871523.400000000023        -0.000000001036
   94     198335.000000000000        -0.000000005410
   95      56176.309999999998        -0.000000023060
   96      18325.820000000000        -0.000000082918
   97       6614.955000000000        -0.000000272899
   98       2579.199000000000        -0.000000787774
   99       1068.849000000000        -0.000002130676
  100        465.104500000000        -0.000004823288
  101        210.413000000000        -0.000009547919
  102         97.616290000000        -0.000010947289
  103         44.380200000000         0.000001218085
  104         21.423080000000         0.000054895504
  105         10.308910000000         0.000097557134
  106          4.553645000000        -0.000148554748
  107          2.132821000000        -0.000261447050
  108          0.929697000000         0.000459608442
  109          0.192147000000        -0.000341554033
  110          0.087595000000         0.000099109380
  111          0.037702000000        -0.000214193175
  112          0.016230000000         0.000070484781
 S 112
    1    5820021.000000000000        -0.000000001414
    2     871523.400000000023        -0.000000010993
    3     198335.000000000000        -0.000000057795
    4      56176.309999999998        -0.000000243721
    5      18325.820000000000        -0.000000882777
    6       6614.955000000000        -0.000002832233
    7       2579.199000000000        -0.000008093143
    8       1068.849000000000        -0.000020140464
    9        465.104500000000        -0.000040954314
   10        210.413000000000        -0.000059241160
   11         97.616290000000        -0.000046272230
   12         44.380200000000        -0.000011339945
   13         21.423080000000         0.000000216810
   14         10.308910000000        -0.000000316510
   15          4.553645000000         0.000000144848
   16    5820021.000000000000         0.000002639211
   17     871523.400000000023         0.000020520289
   18     198335.000000000000         0.000107949543
   19      56176.309999999998         0.000455704219
   20      18325.820000000000         0.001657199857
   21       6614.955000000000         0.005366684508
   22       2579.199000000000         0.015707199835
   23       1068.849000000000         0.041211699953
   24        465.104500000000         0.094032919834
   25        210.413000000000         0.171937491675
   26         97.616290000000         0.195786359408
   27         44.380200000000        -0.045313808368
   28         21.423080000000        -0.524267627342
   29         10.308910000000        -0.500445650553
   30          4.553645000000        -0.089425151725
   31          2.132821000000         0.002145539385
   32          0.929697000000        -0.002111401883
   33          0.192147000000         0.000413258815
   34          0.087595000000        -0.000320867132
   35    5820021.000000000000        -0.000000000271
   36     871523.400000000023        -0.000000002111
   37     198335.000000000000        -0.000000011094
   38      56176.309999999998        -0.000000046891
   39      18325.820000000000        -0.000000170365
   40       6614.955000000000        -0.000000553294
   41       2579.199000000000        -0.000001620710
   42       1068.849000000000        -0.000004291231
   43        465.104500000000        -0.000009900768
   44        210.413000000000        -0.000018759284
   45         97.616290000000        -0.000022422089
   46         44.380200000000         0.000005474434
   47         21.423080000000         0.000088525862
   48         10.308910000000         0.000125279736
   49          4.553645000000        -0.000044515591
   50          2.132821000000        -0.000198609837
   51          0.929697000000        -0.000102603470
   52          0.192147000000        -0.000003900888
   53          0.087595000000         0.000001815741
   54    5820021.000000000000        -0.000000001579
   55     871523.400000000023        -0.000000012287
   56     198335.000000000000        -0.000000064573
   57      56176.309999999998        -0.000000273026
   58      18325.820000000000        -0.000000991601
   59       6614.955000000000        -0.000003222582
   60       2579.199000000000        -0.000009437005
   61       1068.849000000000        -0.000025027012
   62        465.104500000000        -0.000057789362
   63        210.413000000000        -0.000110079085
   64         97.616290000000        -0.000132180764
   65         44.380200000000         0.000031929873
   66         21.423080000000         0.000551381744
   67         10.308910000000         0.000815027149
   68          4.553645000000        -0.000353783995
   69          2.132821000000        -0.001701118212
   70          0.929697000000        -0.001756610365
   71          0.192147000000         0.002464435182
   72          0.087595000000         0.004504685644
   73    5820021.000000000000         0.000000000305
   74     871523.400000000023         0.000000002430
   75     198335.000000000000         0.000000012314
   76      56176.309999999998         0.000000054618
   77      18325.820000000000         0.000000186682
   78       6614.955000000000         0.000000653459
   79       2579.199000000000         0.000001747860
   80       1068.849000000000         0.000005177224
   81        465.104500000000         0.000010396867
   82        210.413000000000         0.000023989032
   83         97.616290000000         0.000020010121
   84         44.380200000000         0.000009180261
   85         21.423080000000        -0.000148189975
   86         10.308910000000        -0.000116918982
   87          4.553645000000         0.000009942496
   88          2.132821000000         0.000758623423
   89          0.929697000000        -0.000458518585
   90          0.192147000000        -0.000949789243
   91          0.087595000000         0.000778113580
   92    5820021.000000000000        -0.000000003224
   93     871523.400000000023        -0.000000025192
   94     198335.000000000000        -0.000000131592
   95      56176.309999999998        -0.000000560896
   96      18325.820000000000        -0.000002016800
   97       6614.955000000000        -0.000006637688
   98       2579.199000000000        -0.000019160931
   99       1068.849000000000        -0.000051824177
  100        465.104500000000        -0.000117316246
  101        210.413000000000        -0.000232232863
  102         97.616290000000        -0.000266269570
  103         44.380200000000         0.000029627335
  104         21.423080000000         0.001335216584
  105         10.308910000000         0.002372870148
  106          4.553645000000        -0.003613278824
  107          2.132821000000        -0.006359144360
  108          0.929697000000         0.011178999446
  109          0.192147000000        -0.008307576624
  110          0.087595000000         0.002410625226
  111          0.037702000000        -0.004576242834
  112          0.016230000000         0.001474728336
 S 108
    1    5820021.000000000000         0.000000000032
    2     871523.400000000023         0.000000000246
    3     198335.000000000000         0.000000001291
    4      56176.309999999998         0.000000005445
    5      18325.820000000000         0.000000019723
    6       6614.955000000000         0.000000063277
    7       2579.199000000000         0.000000180815
    8       1068.849000000000         0.000000449973
    9        465.104500000000         0.000000914991
   10        210.413000000000         0.000001323552
   11         97.616290000000         0.000001033803
   12         44.380200000000         0.000000253354
   13    5820021.000000000000         0.000000005693
   14     871523.400000000023         0.000000044263
   15     198335.000000000000         0.000000232849
   16      56176.309999999998         0.000000982963
   17      18325.820000000000         0.000003574613
   18       6614.955000000000         0.000011576044
   19       2579.199000000000         0.000033880739
   20       1068.849000000000         0.000088894448
   21        465.104500000000         0.000202830858
   22        210.413000000000         0.000370872553
   23         97.616290000000         0.000422315030
   24         44.380200000000        -0.000097742776
   25         21.423080000000        -0.001130855588
   26         10.308910000000        -0.001079471115
   27          4.553645000000        -0.000192891812
   28          2.132821000000         0.000004627971
   29          0.929697000000        -0.000004554335
   30          0.192147000000         0.000000891407
   31    5820021.000000000000         0.000000995023
   32     871523.400000000023         0.000007741153
   33     198335.000000000000         0.000040691618
   34      56176.309999999998         0.000171991224
   35      18325.820000000000         0.000624883812
   36       6614.955000000000         0.002029434564
   37       2579.199000000000         0.005944626846
   38       1068.849000000000         0.015739871808
   39        465.104500000000         0.036315173916
   40        210.413000000000         0.068807460977
   41         97.616290000000         0.082242317688
   42         44.380200000000        -0.020079757306
   43         21.423080000000        -0.324705337243
   44         10.308910000000        -0.459515426500
   45          4.553645000000         0.163279406685
   46          2.132821000000         0.728484003231
   47          0.929697000000         0.376340810120
   48          0.192147000000         0.014308124893
   49          0.087595000000        -0.006659985171
   50    5820021.000000000000         0.000000001159
   51     871523.400000000023         0.000000009018
   52     198335.000000000000         0.000000047389
   53      56176.309999999998         0.000000200371
   54      18325.820000000000         0.000000727725
   55       6614.955000000000         0.000002365018
   56       2579.199000000000         0.000006925716
   57       1068.849000000000         0.000018367053
   58        465.104500000000         0.000042410987
   59        210.413000000000         0.000080785849
   60         97.616290000000         0.000097006031
   61         44.380200000000        -0.000023432988
   62         21.423080000000        -0.000404653092
   63         10.308910000000        -0.000598139601
   64          4.553645000000         0.000259638244
   65          2.132821000000         0.001248432239
   66          0.929697000000         0.001289157329
   67          0.192147000000        -0.001808622299
   68          0.087595000000        -0.003305940026
   69    5820021.000000000000        -0.000000002465
   70     871523.400000000023        -0.000000019668
   71     198335.000000000000        -0.000000099662
   72      56176.309999999998        -0.000000442054
   73      18325.820000000000        -0.000001510921
   74       6614.955000000000        -0.000005288797
   75       2579.199000000000        -0.000014146374
   76       1068.849000000000        -0.000041902076
   77        465.104500000000        -0.000084147468
   78        210.413000000000        -0.000194156208
   79         97.616290000000        -0.000161952734
   80         44.380200000000        -0.000074300813
   81         21.423080000000         0.001199381604
   82         10.308910000000         0.000946288551
   83          4.553645000000        -0.000080470000
   84          2.132821000000        -0.006139949615
   85          0.929697000000         0.003711038875
   86          0.192147000000         0.007687157980
   87          0.087595000000        -0.006297694003
   88    5820021.000000000000         0.000000001524
   89     871523.400000000023         0.000000011904
   90     198335.000000000000         0.000000062182
   91      56176.309999999998         0.000000265044
   92      18325.820000000000         0.000000953013
   93       6614.955000000000         0.000003136554
   94       2579.199000000000         0.000009054249
   95       1068.849000000000         0.000024488843
   96        465.104500000000         0.000055436271
   97        210.413000000000         0.000109738630
   98         97.616290000000         0.000125822235
   99         44.380200000000        -0.000014000013
  100         21.423080000000        -0.000630939293
  101         10.308910000000        -0.001121269037
  102          4.553645000000         0.001707408081
  103          2.132821000000         0.003004931255
  104          0.929697000000        -0.005282491312
  105          0.192147000000         0.003925637670
  106          0.087595000000        -0.001139109710
  107          0.037702000000         0.008868645397
  108          0.016230000000        -0.002627648642
 S 113
    1    5820021.000000000000        -0.000000002247
    2     871523.400000000023        -0.000000017470
    3     198335.000000000000        -0.000000091849
    4      56176.309999999998        -0.000000387331
    5      18325.820000000000        -0.000001402941
    6       6614.955000000000        -0.000004501087
    7       2579.199000000000        -0.000012861913
    8       1068.849000000000        -0.000032007948
    9        465.104500000000        -0.000065086065
   10        210.413000000000        -0.000094148176
   11         97.616290000000        -0.000073537489
   12         44.380200000000        -0.000018021848
   13         21.423080000000         0.000000344562
   14         10.308910000000        -0.000000503010
   15          4.553645000000         0.000000230197
   16          2.132821000000        -0.000000098292
   17    5820021.000000000000         0.000000007259
   18     871523.400000000023         0.000000056442
   19     198335.000000000000         0.000000296922
   20      56176.309999999998         0.000001253442
   21      18325.820000000000         0.000004558227
   22       6614.955000000000         0.000014761384
   23       2579.199000000000         0.000043203586
   24       1068.849000000000         0.000113355228
   25        465.104500000000         0.000258643131
   26        210.413000000000         0.000472924282
   27         97.616290000000         0.000538522009
   28         44.380200000000        -0.000124638321
   29         21.423080000000        -0.001442029245
   30         10.308910000000        -0.001376505483
   31          4.553645000000        -0.000245969191
   32          2.132821000000         0.000005901434
   33          0.929697000000        -0.000005807536
   34          0.192147000000         0.000001136693
   35          0.087595000000        -0.000000882564
   36    5820021.000000000000        -0.000000007190
   37     871523.400000000023        -0.000000055936
   38     198335.000000000000        -0.000000294030
   39      56176.309999999998        -0.000001242777
   40      18325.820000000000        -0.000004515295
   41       6614.955000000000        -0.000014664321
   42       2579.199000000000        -0.000042954780
   43       1068.849000000000        -0.000113733418
   44        465.104500000000        -0.000262406765
   45        210.413000000000        -0.000497190054
   46         97.616290000000        -0.000594267857
   47         44.380200000000         0.000145092632
   48         21.423080000000         0.002346261028
   49         10.308910000000         0.003320373930
   50          4.553645000000        -0.001179826953
   51          2.132821000000        -0.005263891381
   52          0.929697000000        -0.002719369455
   53          0.192147000000        -0.000103387878
   54          0.087595000000         0.000048123828
   55    5820021.000000000000         0.000000208748
   56     871523.400000000023         0.000001624175
   57     198335.000000000000         0.000008535338
   58      56176.309999999998         0.000036089004
   59      18325.820000000000         0.000131071352
   60       6614.955000000000         0.000425965815
   61       2579.199000000000         0.001247397882
   62       1068.849000000000         0.003308109048
   63        465.104500000000         0.007638687070
   64        210.413000000000         0.014550423467
   65         97.616290000000         0.017471857516
   66         44.380200000000        -0.004220539894
   67         21.423080000000        -0.072882490596
   68         10.308910000000        -0.107731547487
   69          4.553645000000         0.046763714977
   70          2.132821000000         0.224856432936
   71          0.929697000000         0.232191471417
   72          0.192147000000        -0.325752849037
   73          0.087595000000        -0.595436306668
   74    5820021.000000000000         0.000000025059
   75     871523.400000000023         0.000000199924
   76     198335.000000000000         0.000001013043
   77      56176.309999999998         0.000004493382
   78      18325.820000000000         0.000015358180
   79       6614.955000000000         0.000053759474
   80       2579.199000000000         0.000143794810
   81       1068.849000000000         0.000425925468
   82        465.104500000000         0.000855340670
   83        210.413000000000         0.001973555538
   84         97.616290000000         0.001646214244
   85         44.380200000000         0.000755251571
   86         21.423080000000        -0.012191452618
   87         10.308910000000        -0.009618816884
   88          4.553645000000         0.000817960016
   89          2.132821000000         0.062411249709
   90          0.929697000000        -0.037721901385
   91          0.192147000000        -0.078138285542
   92          0.087595000000         0.064014687032
   93    5820021.000000000000        -0.000000005150
   94     871523.400000000023        -0.000000040240
   95     198335.000000000000        -0.000000210193
   96      56176.309999999998        -0.000000895922
   97      18325.820000000000        -0.000003221443
   98       6614.955000000000        -0.000010602409
   99       2579.199000000000        -0.000030605839
  100       1068.849000000000        -0.000082778986
  101        465.104500000000        -0.000187389756
  102        210.413000000000        -0.000370946574
  103         97.616290000000        -0.000425313557
  104         44.380200000000         0.000047323873
  105         21.423080000000         0.002132747328
  106         10.308910000000         0.003790195934
  107          4.553645000000        -0.005771506173
  108          2.132821000000        -0.010157489282
  109          0.929697000000         0.017856265029
  110          0.192147000000        -0.013269728714
  111          0.087595000000         0.003850502285
  112          0.037702000000        -0.219120593235
  113          0.016230000000         0.007879923032
 S 114
    1    5820021.000000000000         0.000000037978
    2     871523.400000000023         0.000000295295
    3     198335.000000000000         0.000001552550
    4      56176.309999999998         0.000006547134
    5      18325.820000000000         0.000023714208
    6       6614.955000000000         0.000076082810
    7       2579.199000000000         0.000217407601
    8       1068.849000000000         0.000541037004
    9        465.104500000000         0.001100163304
   10        210.413000000000         0.001591406214
   11         97.616290000000         0.001243019473
   12         44.380200000000         0.000304627048
   13         21.423080000000        -0.000005824201
   14         10.308910000000         0.000008502475
   15          4.553645000000        -0.000003891066
   16          2.132821000000         0.000001661445
   17          0.929697000000        -0.000000622537
   18    5820021.000000000000        -0.000000081477
   19     871523.400000000023        -0.000000633494
   20     198335.000000000000        -0.000003332572
   21      56176.309999999998        -0.000014068304
   22      18325.820000000000        -0.000051160359
   23       6614.955000000000        -0.000165677969
   24       2579.199000000000        -0.000484905897
   25       1068.849000000000        -0.001272269822
   26        465.104500000000        -0.002902943734
   27        210.413000000000        -0.005307980068
   28         97.616290000000        -0.006044232024
   29         44.380200000000         0.001398908343
   30         21.423080000000         0.016184964017
   31         10.308910000000         0.015449542227
   32          4.553645000000         0.002760694705
   33          2.132821000000        -0.000066236166
   34          0.929697000000         0.000065182288
   35          0.192147000000        -0.000012757948
   36          0.087595000000         0.000009905672
   37    5820021.000000000000         0.000000138715
   38     871523.400000000023         0.000001079187
   39     198335.000000000000         0.000005672779
   40      56176.309999999998         0.000023977129
   41      18325.820000000000         0.000087114444
   42       6614.955000000000         0.000282921496
   43       2579.199000000000         0.000828734639
   44       1068.849000000000         0.002194280199
   45        465.104500000000         0.005062663026
   46        210.413000000000         0.009592381119
   47         97.616290000000         0.011465321408
   48         44.380200000000        -0.002799299409
   49         21.423080000000        -0.045266854815
   50         10.308910000000        -0.064060598059
   51          4.553645000000         0.022762623058
   52          2.132821000000         0.101557245376
   53          0.929697000000         0.052465305798
   54          0.192147000000         0.001994681756
   55          0.087595000000        -0.000928462046
   56    5820021.000000000000        -0.000000065876
   57     871523.400000000023        -0.000000512553
   58     198335.000000000000        -0.000002693560
   59      56176.309999999998        -0.000011388873
   60      18325.820000000000        -0.000041363154
   61       6614.955000000000        -0.000134425177
   62       2579.199000000000        -0.000393650558
   63       1068.849000000000        -0.001043964393
   64        465.104500000000        -0.002410596868
   65        210.413000000000        -0.004591784545
   66         97.616290000000        -0.005513723054
   67         44.380200000000         0.001331906931
   68         21.423080000000         0.023000065577
   69         10.308910000000         0.033997639716
   70          4.553645000000        -0.014757570745
   71          2.132821000000        -0.070959604434
   72          0.929697000000        -0.073274376675
   73          0.192147000000         0.102800231281
   74          0.087595000000         0.187906230812
   75    5820021.000000000000         0.000000065597
   76     871523.400000000023         0.000000523337
   77     198335.000000000000         0.000002651826
   78      56176.309999999998         0.000011762258
   79      18325.820000000000         0.000040202881
   80       6614.955000000000         0.000140725378
   81       2579.199000000000         0.000376409544
   82       1068.849000000000         0.001114938789
   83        465.104500000000         0.002239012602
   84        210.413000000000         0.005166147098
   85         97.616290000000         0.004309270642
   86         44.380200000000         0.001977010849
   87         21.423080000000        -0.031913384923
   88         10.308910000000        -0.025179034471
   89          4.553645000000         0.002141161817
   90          2.132821000000         0.163373003851
   91          0.929697000000        -0.098744062472
   92          0.192147000000        -0.204541432583
   93          0.087595000000         0.167570297979
   94    5820021.000000000000        -0.000000040264
   95     871523.400000000023        -0.000000314609
   96     198335.000000000000        -0.000001643358
   97      56176.309999999998        -0.000007004617
   98      18325.820000000000        -0.000025186312
   99       6614.955000000000        -0.000082893159
  100       2579.199000000000        -0.000239286630
  101       1068.849000000000        -0.000647193656
  102        465.104500000000        -0.001465075457
  103        210.413000000000        -0.002900183734
  104         97.616290000000        -0.003325242897
  105         44.380200000000         0.000369993781
  106         21.423080000000         0.016674528215
  107         10.308910000000         0.029633012877
  108          4.553645000000        -0.045123555545
  109          2.132821000000        -0.079414630791
  110          0.929697000000         0.139606221102
  111          0.192147000000        -0.103747154169
  112          0.087595000000         0.030104508001
  113          0.037702000000        -1.787947335364
  114          0.016230000000         2.121539463457
 S 116
    1    5820021.000000000000         0.000000225798
    2     871523.400000000023         0.000001755687
    3     198335.000000000000         0.000009230752
    4      56176.309999999998         0.000038926253
    5      18325.820000000000         0.000140993807
    6       6614.955000000000         0.000452353493
    7       2579.199000000000         0.001292605887
    8       1068.849000000000         0.003216757898
    9        465.104500000000         0.006541066451
   10        210.413000000000         0.009461771504
   11         97.616290000000         0.007390423714
   12         44.380200000000         0.001811172719
   13         21.423080000000        -0.000034628030
   14         10.308910000000         0.000050551818
   15          4.553645000000        -0.000023134497
   16          2.132821000000         0.000009878190
   17          0.929697000000        -0.000003701318
   18          0.192147000000         0.000001256434
   19          0.087595000000        -0.000000962098
   20    5820021.000000000000        -0.000000490791
   21     871523.400000000023        -0.000003815975
   22     198335.000000000000        -0.000020074416
   23      56176.309999999998        -0.000084743258
   24      18325.820000000000        -0.000308174707
   25       6614.955000000000        -0.000997994551
   26       2579.199000000000        -0.002920928150
   27       1068.849000000000        -0.007663773031
   28        465.104500000000        -0.017486465152
   29        210.413000000000        -0.031973684979
   30         97.616290000000        -0.036408646642
   31         44.380200000000         0.008426605622
   32         21.423080000000         0.097493384357
   33         10.308910000000         0.093063423364
   34          4.553645000000         0.016629599528
   35          2.132821000000        -0.000398986863
   36          0.929697000000         0.000392638615
   37          0.192147000000        -0.000076850064
   38          0.087595000000         0.000059668805
   39    5820021.000000000000         0.000000850762
   40     871523.400000000023         0.000006618821
   41     198335.000000000000         0.000034792042
   42      56176.309999999998         0.000147055493
   43      18325.820000000000         0.000534286546
   44       6614.955000000000         0.001735201908
   45       2579.199000000000         0.005082759518
   46       1068.849000000000         0.013457864610
   47        465.104500000000         0.031050106368
   48        210.413000000000         0.058831577875
   49         97.616290000000         0.070318614420
   50         44.380200000000        -0.017168542319
   51         21.423080000000        -0.277628720245
   52         10.308910000000        -0.392893695174
   53          4.553645000000         0.139606737312
   54          2.132821000000         0.622866514155
   55          0.929697000000         0.321777949131
   56          0.192147000000         0.012233696055
   57          0.087595000000        -0.005694403349
   58    5820021.000000000000        -0.000000757420
   59     871523.400000000023        -0.000005893149
   60     198335.000000000000        -0.000030969580
   61      56176.309999999998        -0.000130945165
   62      18325.820000000000        -0.000475578647
   63       6614.955000000000        -0.001545572258
   64       2579.199000000000        -0.004526052314
   65       1068.849000000000        -0.012003126528
   66        465.104500000000        -0.027716174429
   67        210.413000000000        -0.052794684628
   68         97.616290000000        -0.063394801498
   69         44.380200000000         0.015313786103
   70         21.423080000000         0.264446468831
   71         10.308910000000         0.390892614698
   72          4.553645000000        -0.169677232403
   73          2.132821000000        -0.815867970451
   74          0.929697000000        -0.842482387840
   75          0.192147000000         1.181960028190
   76          0.087595000000         2.160478153593
   77    5820021.000000000000         0.000000250571
   78     871523.400000000023         0.000001999084
   79     198335.000000000000         0.000010129649
   80      56176.309999999998         0.000044930373
   81      18325.820000000000         0.000153570037
   82       6614.955000000000         0.000537553553
   83       2579.199000000000         0.001437837937
   84       1068.849000000000         0.004258928382
   85        465.104500000000         0.008552751428
   86        210.413000000000         0.019734043449
   87         97.616290000000         0.016460881286
   88         44.380200000000         0.007551937110
   89         21.423080000000        -0.121905186352
   90         10.308910000000        -0.096180799897
   91          4.553645000000         0.008178973524
   92          2.132821000000         0.624064684065
   93          0.929697000000        -0.377190115241
   94          0.192147000000        -0.781322993973
   95          0.087595000000         0.640097828907
   96    5820021.000000000000        -0.000000174825
   97     871523.400000000023        -0.000001366010
   98     198335.000000000000        -0.000007135347
   99      56176.309999999998        -0.000030413568
  100      18325.820000000000        -0.000109357245
  101       6614.955000000000        -0.000359916428
  102       2579.199000000000        -0.001038966182
  103       1068.849000000000        -0.002810070595
  104        465.104500000000        -0.006361257444
  105        210.413000000000        -0.012592399439
  106         97.616290000000        -0.014437977260
  107         44.380200000000         0.001606487694
  108         21.423080000000         0.072399661206
  109         10.308910000000         0.128664515427
  110          4.553645000000        -0.195923392357
  111          2.132821000000        -0.344812896047
  112          0.929697000000         0.606160664915
  113          0.192147000000        -0.450463048552
  114          0.087595000000         0.130711715013
  115          0.037702000000        -4.619416619487
  116          0.016230000000         2.022034386322
 S 116
    1    5820021.000000000000        -0.000000274681
    2     871523.400000000023        -0.000002135776
    3     198335.000000000000        -0.000011229119
    4      56176.309999999998        -0.000047353405
    5      18325.820000000000        -0.000171517583
    6       6614.955000000000        -0.000550283585
    7       2579.199000000000        -0.001572442378
    8       1068.849000000000        -0.003913154420
    9        465.104500000000        -0.007957143156
   10        210.413000000000        -0.011510152195
   11         97.616290000000        -0.008990377932
   12         44.380200000000        -0.002203273841
   13         21.423080000000         0.000042124659
   14         10.308910000000        -0.000061495791
   15          4.553645000000         0.000028142888
   16          2.132821000000        -0.000012016721
   17          0.929697000000         0.000004502617
   18          0.192147000000        -0.000001528439
   19          0.087595000000         0.000001170383
   20    5820021.000000000000         0.000000592848
   21     871523.400000000023         0.000004609488
   22     198335.000000000000         0.000024248790
   23      56176.309999999998         0.000102365195
   24      18325.820000000000         0.000372258098
   25       6614.955000000000         0.001205522530
   26       2579.199000000000         0.003528320560
   27       1068.849000000000         0.009257416331
   28        465.104500000000         0.021122688186
   29        210.413000000000         0.038622452972
   30         97.616290000000         0.043979642747
   31         44.380200000000        -0.010178876146
   32         21.423080000000        -0.117766646380
   33         10.308910000000        -0.112415497138
   34          4.553645000000        -0.020087641638
   35          2.132821000000         0.000481954187
   36          0.929697000000        -0.000474285853
   37          0.192147000000         0.000092830650
   38          0.087595000000        -0.000072076634
   39    5820021.000000000000        -0.000001039933
   40     871523.400000000023        -0.000008090550
   41     198335.000000000000        -0.000042528233
   42      56176.309999999998        -0.000179754043
   43      18325.820000000000        -0.000653087927
   44       6614.955000000000        -0.002121033039
   45       2579.199000000000        -0.006212937421
   46       1068.849000000000        -0.016450290505
   47        465.104500000000        -0.037954258330
   48        210.413000000000        -0.071913083908
   49         97.616290000000        -0.085954322522
   50         44.380200000000         0.020986056621
   51         21.423080000000         0.339360904051
   52         10.308910000000         0.480255643120
   53          4.553645000000        -0.170649018387
   54          2.132821000000        -0.761364109448
   55          0.929697000000        -0.393326942631
   56          0.192147000000        -0.014953921732
   57          0.087595000000         0.006960583426
   58    5820021.000000000000         0.000000973932
   59     871523.400000000023         0.000007577737
   60     198335.000000000000         0.000039822398
   61      56176.309999999998         0.000168376534
   62      18325.820000000000         0.000611525324
   63       6614.955000000000         0.001987382281
   64       2579.199000000000         0.005819848361
   65       1068.849000000000         0.015434283877
   66        465.104500000000         0.035638989816
   67        210.413000000000         0.067886325101
   68         97.616290000000         0.081516541571
   69         44.380200000000        -0.019691313041
   70         21.423080000000        -0.340039893816
   71         10.308910000000        -0.502631340787
   72          4.553645000000         0.218180368769
   73          2.132821000000         1.049088154837
   74          0.929697000000         1.083310444524
   75          0.192147000000        -1.519829567988
   76          0.087595000000        -2.778062286803
   77    5820021.000000000000        -0.000001200155
   78     871523.400000000023        -0.000009574969
   79     198335.000000000000        -0.000048517753
   80      56176.309999999998        -0.000215202000
   81      18325.820000000000        -0.000735550963
   82       6614.955000000000        -0.002574708209
   83       2579.199000000000        -0.006886780149
   84       1068.849000000000        -0.020398893836
   85        465.104500000000        -0.040964921866
   86        210.413000000000        -0.094519705712
   87         97.616290000000        -0.078842314243
   88         44.380200000000        -0.036171343955
   89         21.423080000000         0.583886539435
   90         10.308910000000         0.460675022062
   91          4.553645000000        -0.039174646217
   92          2.132821000000        -2.989068633313
   93          0.929697000000         1.806619042947
   94          0.192147000000         3.742285236456
   95          0.087595000000        -3.065862227891
   96    5820021.000000000000         0.000000657855
   97     871523.400000000023         0.000005140200
   98     198335.000000000000         0.000026849811
   99      56176.309999999998         0.000114444124
  100      18325.820000000000         0.000411503650
  101       6614.955000000000         0.001354340302
  102       2579.199000000000         0.003909556946
  103       1068.849000000000         0.010574098757
  104        465.104500000000         0.023936966047
  105        210.413000000000         0.047384316778
  106         97.616290000000         0.054329096803
  107         44.380200000000        -0.006045100632
  108         21.423080000000        -0.272434852289
  109         10.308910000000        -0.484155556411
  110          4.553645000000         0.737245997666
  111          2.132821000000         1.297506767806
  112          0.929697000000        -2.280940110191
  113          0.192147000000         1.695060889087
  114          0.087595000000        -0.491859025009
  115          0.037702000000         4.259938534283
  116          0.016230000000        -1.343683478905
 S 115
    1    5820021.000000000000         0.000000170795
    2     871523.400000000023         0.000001328009
    3     198335.000000000000         0.000006982178
    4      56176.309999999998         0.000029443974
    5      18325.820000000000         0.000106648280
    6       6614.955000000000         0.000342161991
    7       2579.199000000000         0.000977732262
    8       1068.849000000000         0.002433168538
    9        465.104500000000         0.004947688821
   10        210.413000000000         0.007156921803
   11         97.616290000000         0.005590146051
   12         44.380200000000         0.001369978287
   13         21.423080000000        -0.000026192781
   14         10.308910000000         0.000038237598
   15          4.553645000000        -0.000017499026
   16          2.132821000000         0.000007471902
   17          0.929697000000        -0.000002799692
   18          0.192147000000         0.000000950372
   19    5820021.000000000000        -0.000000380486
   20     871523.400000000023        -0.000002958341
   21     198335.000000000000        -0.000015562723
   22      56176.309999999998        -0.000065697347
   23      18325.820000000000        -0.000238912937
   24       6614.955000000000        -0.000773696880
   25       2579.199000000000        -0.002264454243
   26       1068.849000000000        -0.005941352361
   27        465.104500000000        -0.013556410217
   28        210.413000000000        -0.024787650675
   29         97.616290000000        -0.028225861833
   30         44.380200000000         0.006532739553
   31         21.423080000000         0.075581902935
   32         10.308910000000         0.072147568554
   33          4.553645000000         0.012892123765
   34          2.132821000000        -0.000309315207
   35          0.929697000000         0.000304393718
   36          0.192147000000        -0.000059578135
   37          0.087595000000         0.000046258337
   38    5820021.000000000000         0.000000650222
   39     871523.400000000023         0.000005058647
   40     198335.000000000000         0.000026590941
   41      56176.309999999998         0.000112391906
   42      18325.820000000000         0.000408345735
   43       6614.955000000000         0.001326184055
   44       2579.199000000000         0.003884662987
   45       1068.849000000000         0.010285607326
   46        465.104500000000         0.023731045808
   47        210.413000000000         0.044963931941
   48         97.616290000000         0.053743270319
   49         44.380200000000        -0.013121612513
   50         21.423080000000        -0.212186708789
   51         10.308910000000        -0.300281685587
   52          4.553645000000         0.106698954232
   53          2.132821000000         0.476045833934
   54          0.929697000000         0.245929181701
   55          0.192147000000         0.009349997003
   56          0.087595000000        -0.004352131523
   57    5820021.000000000000        -0.000000613484
   58     871523.400000000023        -0.000004773250
   59     198335.000000000000        -0.000025084304
   60      56176.309999999998        -0.000106061121
   61      18325.820000000000        -0.000385202496
   62       6614.955000000000        -0.001251860857
   63       2579.199000000000        -0.003665948130
   64       1068.849000000000        -0.009722123430
   65        465.104500000000        -0.022449156739
   66        210.413000000000        -0.042761895342
   67         97.616290000000        -0.051347628762
   68         44.380200000000         0.012403644860
   69         21.423080000000         0.214192627602
   70         10.308910000000         0.316609696557
   71          4.553645000000        -0.137432775765
   72          2.132821000000        -0.660825251852
   73          0.929697000000        -0.682382022936
   74          0.192147000000         0.957347342458
   75          0.087595000000         1.749913676817
   76    5820021.000000000000         0.000000394724
   77     871523.400000000023         0.000003149154
   78     198335.000000000000         0.000015957218
   79      56176.309999999998         0.000070778736
   80      18325.820000000000         0.000241918604
   81       6614.955000000000         0.000846807152
   82       2579.199000000000         0.002265023532
   83       1068.849000000000         0.006709082267
   84        465.104500000000         0.013473134037
   85        210.413000000000         0.031087003374
   86         97.616290000000         0.025930796868
   87         44.380200000000         0.011896553032
   88         21.423080000000        -0.192037022169
   89         10.308910000000        -0.151513442166
   90          4.553645000000         0.012884322374
   91          2.132821000000         0.983087981365
   92          0.929697000000        -0.594186914356
   93          0.192147000000        -1.230816715881
   94          0.087595000000         1.008344965776
   95    5820021.000000000000        -0.000001206211
   96     871523.400000000023        -0.000009424828
   97     198335.000000000000        -0.000049230547
   98      56176.309999999998        -0.000209839343
   99      18325.820000000000        -0.000754513669
  100       6614.955000000000        -0.002483254451
  101       2579.199000000000        -0.007168379082
  102       1068.849000000000        -0.019388168372
  103        465.104500000000        -0.043889691094
  104        210.413000000000        -0.086881646655
  105         97.616290000000        -0.099615267507
  106         44.380200000000         0.011084011183
  107         21.423080000000         0.499523685946
  108         10.308910000000         0.887724775587
  109          4.553645000000        -1.351779462538
  110          2.132821000000        -2.379047165771
  111          0.929697000000         4.182224123285
  112          0.192147000000        -3.107983637582
  113          0.087595000000         0.901849491995
  114          0.037702000000        -2.116371553111
  115          0.016230000000         0.651195147194
 P 77
    1      24411.980000000000         0.000040998083
    2       5778.518000000000         0.000360983123
    3       1876.862000000000         0.002087902383
    4        718.236100000000         0.009220568906
    5        304.832700000000         0.032771467820
    6        139.045300000000         0.094174597011
    7         66.804170000000         0.209122222812
    8         33.206990000000         0.334553358472
    9         16.928160000000         0.330343555295
   10          8.696229000000         0.152339877583
   11          4.350510000000         0.022982925469
   12          2.116523000000         0.001606924871
   13          0.995387000000         0.000467978120
   14          0.378112000000         0.000065996914
   15          0.134579000000        -0.000001999906
   16      24411.980000000000         0.000000010937
   17       5778.518000000000         0.000000098431
   18       1876.862000000000         0.000000570169
   19        718.236100000000         0.000002535867
   20        304.832700000000         0.000009128537
   21        139.045300000000         0.000026988970
   22         66.804170000000         0.000062382465
   23         33.206990000000         0.000105516258
   24         16.928160000000         0.000104585906
   25          8.696229000000        -0.000031785827
   26          4.350510000000        -0.000254379941
   27          2.116523000000        -0.000330920386
   28          0.995387000000        -0.000195836273
   29          0.378112000000        -0.000028339294
   30          0.134579000000         0.000001816958
   31      24411.980000000000        -0.000000101233
   32       5778.518000000000        -0.000000843611
   33       1876.862000000000        -0.000004859200
   34        718.236100000000        -0.000021765168
   35        304.832700000000        -0.000077983414
   36        139.045300000000        -0.000232769187
   37         66.804170000000        -0.000535929288
   38         33.206990000000        -0.000922910592
   39         16.928160000000        -0.000898310891
[...]
  BAS[ATNO][ 14].a[ 53] =         8.696229000000;     BAS[ATNO][ 14].d[ 53] =         0.303279821542;
  BAS[ATNO][ 14].a[ 54] =         4.350510000000;     BAS[ATNO][ 14].d[ 54] =         3.475601660278;
  BAS[ATNO][ 14].a[ 55] =         2.116523000000;     BAS[ATNO][ 14].d[ 55] =         3.780846285192;
  BAS[ATNO][ 14].a[ 56] =         0.995387000000;     BAS[ATNO][ 14].d[ 56] =         1.919522558044;
  BAS[ATNO][ 14].a[ 57] =         0.378112000000;     BAS[ATNO][ 14].d[ 57] =       -10.181136807573;
  BAS[ATNO][ 14].a[ 58] =         0.134579000000;     BAS[ATNO][ 14].d[ 58] =       -14.473351400098;
  BAS[ATNO][ 14].a[ 59] =     24411.980000000000;     BAS[ATNO][ 14].d[ 59] =         0.000039592916;
  BAS[ATNO][ 14].a[ 60] =      5778.518000000000;     BAS[ATNO][ 14].d[ 60] =         0.000316743330;
  BAS[ATNO][ 14].a[ 61] =      1876.862000000000;     BAS[ATNO][ 14].d[ 61] =         0.001959849352;
  BAS[ATNO][ 14].a[ 62] =       718.236100000000;     BAS[ATNO][ 14].d[ 62] =         0.008195733652;
  BAS[ATNO][ 14].a[ 63] =       304.832700000000;     BAS[ATNO][ 14].d[ 63] =         0.031466470146;
  BAS[ATNO][ 14].a[ 64] =       139.045300000000;     BAS[ATNO][ 14].d[ 64] =         0.087365068993;
  BAS[ATNO][ 14].a[ 65] =        66.804170000000;     BAS[ATNO][ 14].d[ 65] =         0.218968623013;
  BAS[ATNO][ 14].a[ 66] =        33.206990000000;     BAS[ATNO][ 14].d[ 66] =         0.338050917287;
  BAS[ATNO][ 14].a[ 67] =        16.928160000000;     BAS[ATNO][ 14].d[ 67] =         0.457572033049;
  BAS[ATNO][ 14].a[ 68] =         8.696229000000;     BAS[ATNO][ 14].d[ 68] =        -0.264414691985;
  BAS[ATNO][ 14].a[ 69] =         4.350510000000;     BAS[ATNO][ 14].d[ 69] =        -1.636734861971;
  BAS[ATNO][ 14].a[ 70] =         2.116523000000;     BAS[ATNO][ 14].d[ 70] =        -1.529309382106;
  BAS[ATNO][ 14].a[ 71] =         0.995387000000;     BAS[ATNO][ 14].d[ 71] =         2.885436049369;
  BAS[ATNO][ 14].a[ 72] =         0.378112000000;     BAS[ATNO][ 14].d[ 72] =         2.077935224174;
  BAS[ATNO][ 14].a[ 73] =         0.134579000000;     BAS[ATNO][ 14].d[ 73] =        -2.678084647849;
  BAS[ATNO][ 14].a[ 74] =         0.046282000000;     BAS[ATNO][ 14].d[ 74] =        -0.453550024380;
  BAS[ATNO][ 14].a[ 75] =         0.015920000000;     BAS[ATNO][ 14].d[ 75] =         0.143263705601;

  // Basis function  16 L = d
  InitBFNGauss(BAS[ATNO][ 15]);
  BAS[ATNO][ 15].l  = 2;
  BAS[ATNO][ 15].ng = 23;
  BAS[ATNO][ 15].a[  0] =       205.617700000000;     BAS[ATNO][ 15].d[  0] =         0.002329758004;
  BAS[ATNO][ 15].a[  1] =        61.449810000000;     BAS[ATNO][ 15].d[  1] =         0.018508743562;
  BAS[ATNO][ 15].a[  2] =        23.056890000000;     BAS[ATNO][ 15].d[  2] =         0.076698975927;
  BAS[ATNO][ 15].a[  3] =         9.577739000000;     BAS[ATNO][ 15].d[  3] =         0.200969978869;
  BAS[ATNO][ 15].a[  4] =         4.133734000000;     BAS[ATNO][ 15].d[  4] =         0.327731893015;
  BAS[ATNO][ 15].a[  5] =         1.747518000000;     BAS[ATNO][ 15].d[  5] =         0.359089122648;
  BAS[ATNO][ 15].a[  6] =         0.699560000000;     BAS[ATNO][ 15].d[  6] =         0.270237006868;
  BAS[ATNO][ 15].a[  7] =       205.617700000000;     BAS[ATNO][ 15].d[  7] =        -0.000020731753;
  BAS[ATNO][ 15].a[  8] =        61.449810000000;     BAS[ATNO][ 15].d[  8] =        -0.000165499957;
  BAS[ATNO][ 15].a[  9] =        23.056890000000;     BAS[ATNO][ 15].d[  9] =        -0.000704127206;
  BAS[ATNO][ 15].a[ 10] =         9.577739000000;     BAS[ATNO][ 15].d[ 10] =        -0.001925738939;
  BAS[ATNO][ 15].a[ 11] =         4.133734000000;     BAS[ATNO][ 15].d[ 11] =        -0.002442407853;
  BAS[ATNO][ 15].a[ 12] =         1.747518000000;     BAS[ATNO][ 15].d[ 12] =         0.000369080837;
  BAS[ATNO][ 15].a[ 13] =         0.699560000000;     BAS[ATNO][ 15].d[ 13] =         0.003407088743;
  BAS[ATNO][ 15].a[ 14] =       205.617700000000;     BAS[ATNO][ 15].d[ 14] =         0.000052360071;
  BAS[ATNO][ 15].a[ 15] =        61.449810000000;     BAS[ATNO][ 15].d[ 15] =         0.000445550604;
  BAS[ATNO][ 15].a[ 16] =        23.056890000000;     BAS[ATNO][ 15].d[ 16] =         0.001851208509;
  BAS[ATNO][ 15].a[ 17] =         9.577739000000;     BAS[ATNO][ 15].d[ 17] =         0.005943708057;
  BAS[ATNO][ 15].a[ 18] =         4.133734000000;     BAS[ATNO][ 15].d[ 18] =         0.001685182284;
  BAS[ATNO][ 15].a[ 19] =         1.747518000000;     BAS[ATNO][ 15].d[ 19] =        -0.010677268473;
  BAS[ATNO][ 15].a[ 20] =         0.699560000000;     BAS[ATNO][ 15].d[ 20] =        -0.001579524141;
  BAS[ATNO][ 15].a[ 21] =         0.251608000000;     BAS[ATNO][ 15].d[ 21] =         0.125241640262;
  BAS[ATNO][ 15].a[ 22] =         0.090490000000;     BAS[ATNO][ 15].d[ 22] =         0.013508380884;

  // Basis function  17 L = d
  InitBFNGauss(BAS[ATNO][ 16]);
  BAS[ATNO][ 16].l  = 2;
  BAS[ATNO][ 16].ng = 23;
  BAS[ATNO][ 16].a[  0] =       205.617700000000;     BAS[ATNO][ 16].d[  0] =        -0.000218821001;
  BAS[ATNO][ 16].a[  1] =        61.449810000000;     BAS[ATNO][ 16].d[  1] =        -0.001738421664;
  BAS[ATNO][ 16].a[  2] =        23.056890000000;     BAS[ATNO][ 16].d[  2] =        -0.007203901275;
  BAS[ATNO][ 16].a[  3] =         9.577739000000;     BAS[ATNO][ 16].d[  3] =        -0.018875974152;
  BAS[ATNO][ 16].a[  4] =         4.133734000000;     BAS[ATNO][ 16].d[  4] =        -0.030782004238;
  BAS[ATNO][ 16].a[  5] =         1.747518000000;     BAS[ATNO][ 16].d[  5] =        -0.033727211574;
  BAS[ATNO][ 16].a[  6] =         0.699560000000;     BAS[ATNO][ 16].d[  6] =        -0.025381834566;
  BAS[ATNO][ 16].a[  7] =       205.617700000000;     BAS[ATNO][ 16].d[  7] =        -0.000271057936;
  BAS[ATNO][ 16].a[  8] =        61.449810000000;     BAS[ATNO][ 16].d[  8] =        -0.002163834256;
  BAS[ATNO][ 16].a[  9] =        23.056890000000;     BAS[ATNO][ 16].d[  9] =        -0.009206132699;
  BAS[ATNO][ 16].a[ 10] =         9.577739000000;     BAS[ATNO][ 16].d[ 10] =        -0.025178132694;
  BAS[ATNO][ 16].a[ 11] =         4.133734000000;     BAS[ATNO][ 16].d[ 11] =        -0.031933336227;
  BAS[ATNO][ 16].a[ 12] =         1.747518000000;     BAS[ATNO][ 16].d[ 12] =         0.004825558705;
  BAS[ATNO][ 16].a[ 13] =         0.699560000000;     BAS[ATNO][ 16].d[ 13] =         0.044546086044;
  BAS[ATNO][ 16].a[ 14] =       205.617700000000;     BAS[ATNO][ 16].d[ 14] =         0.000133096482;
  BAS[ATNO][ 16].a[ 15] =        61.449810000000;     BAS[ATNO][ 16].d[ 15] =         0.001132565650;
  BAS[ATNO][ 16].a[ 16] =        23.056890000000;     BAS[ATNO][ 16].d[ 16] =         0.004705672374;
  BAS[ATNO][ 16].a[ 17] =         9.577739000000;     BAS[ATNO][ 16].d[ 17] =         0.015108585912;
  BAS[ATNO][ 16].a[ 18] =         4.133734000000;     BAS[ATNO][ 16].d[ 18] =         0.004283642648;
  BAS[ATNO][ 16].a[ 19] =         1.747518000000;     BAS[ATNO][ 16].d[ 19] =        -0.027141041668;
  BAS[ATNO][ 16].a[ 20] =         0.699560000000;     BAS[ATNO][ 16].d[ 20] =        -0.004015065336;
  BAS[ATNO][ 16].a[ 21] =         0.251608000000;     BAS[ATNO][ 16].d[ 21] =        -0.191685833876;
  BAS[ATNO][ 16].a[ 22] =         0.090490000000;     BAS[ATNO][ 16].d[ 22] =         1.104180043425;

  // Basis function  18 L = d
  InitBFNGauss(BAS[ATNO][ 17]);
  BAS[ATNO][ 17].l  = 2;
  BAS[ATNO][ 17].ng = 23;
  BAS[ATNO][ 17].a[  0] =       205.617700000000;     BAS[ATNO][ 17].d[  0] =        -0.001343998697;
  BAS[ATNO][ 17].a[  1] =        61.449810000000;     BAS[ATNO][ 17].d[  1] =        -0.010677386744;
  BAS[ATNO][ 17].a[  2] =        23.056890000000;     BAS[ATNO][ 17].d[  2] =        -0.044246365299;
  BAS[ATNO][ 17].a[  3] =         9.577739000000;     BAS[ATNO][ 17].d[  3] =        -0.115936242846;
  BAS[ATNO][ 17].a[  4] =         4.133734000000;     BAS[ATNO][ 17].d[  4] =        -0.189063085695;
  BAS[ATNO][ 17].a[  5] =         1.747518000000;     BAS[ATNO][ 17].d[  5] =        -0.207152550649;
  BAS[ATNO][ 17].a[  6] =         0.699560000000;     BAS[ATNO][ 17].d[  6] =        -0.155895240824;
  BAS[ATNO][ 17].a[  7] =       205.617700000000;     BAS[ATNO][ 17].d[  7] =         0.000751849612;
  BAS[ATNO][ 17].a[  8] =        61.449810000000;     BAS[ATNO][ 17].d[  8] =         0.006001956525;
  BAS[ATNO][ 17].a[  9] =        23.056890000000;     BAS[ATNO][ 17].d[  9] =         0.025535601020;
  BAS[ATNO][ 17].a[ 10] =         9.577739000000;     BAS[ATNO][ 17].d[ 10] =         0.069838092919;
  BAS[ATNO][ 17].a[ 11] =         4.133734000000;     BAS[ATNO][ 17].d[ 11] =         0.088575405087;
  BAS[ATNO][ 17].a[ 12] =         1.747518000000;     BAS[ATNO][ 17].d[ 12] =        -0.013384940867;
  BAS[ATNO][ 17].a[ 13] =         0.699560000000;     BAS[ATNO][ 17].d[ 13] =        -0.123560143804;
  BAS[ATNO][ 17].a[ 14] =       205.617700000000;     BAS[ATNO][ 17].d[ 14] =        -0.000470434648;
  BAS[ATNO][ 17].a[ 15] =        61.449810000000;     BAS[ATNO][ 17].d[ 15] =        -0.004003096975;
  BAS[ATNO][ 17].a[ 16] =        23.056890000000;     BAS[ATNO][ 17].d[ 16] =        -0.016632380517;
  BAS[ATNO][ 17].a[ 17] =         9.577739000000;     BAS[ATNO][ 17].d[ 17] =        -0.053401879681;
  BAS[ATNO][ 17].a[ 18] =         4.133734000000;     BAS[ATNO][ 17].d[ 18] =        -0.015140700170;
  BAS[ATNO][ 17].a[ 19] =         1.747518000000;     BAS[ATNO][ 17].d[ 19] =         0.095931058673;
  BAS[ATNO][ 17].a[ 20] =         0.699560000000;     BAS[ATNO][ 17].d[ 20] =         0.014191403301;
  BAS[ATNO][ 17].a[ 21] =         0.251608000000;     BAS[ATNO][ 17].d[ 21] =         1.466998317765;
  BAS[ATNO][ 17].a[ 22] =         0.090490000000;     BAS[ATNO][ 17].d[ 22] =        -0.787613041260;

  // Basis function  19 L = d
  InitBFNGauss(BAS[ATNO][ 18]);
  BAS[ATNO][ 18].l  = 2;
  BAS[ATNO][ 18].ng = 23;
  BAS[ATNO][ 18].a[  0] =       205.617700000000;     BAS[ATNO][ 18].d[  0] =         0.002512930884;
  BAS[ATNO][ 18].a[  1] =        61.449810000000;     BAS[ATNO][ 18].d[  1] =         0.019963959025;
  BAS[ATNO][ 18].a[  2] =        23.056890000000;     BAS[ATNO][ 18].d[  2] =         0.082729289946;
  BAS[ATNO][ 18].a[  3] =         9.577739000000;     BAS[ATNO][ 18].d[  3] =         0.216770868858;
  BAS[ATNO][ 18].a[  4] =         4.133734000000;     BAS[ATNO][ 18].d[  4] =         0.353499202225;
  BAS[ATNO][ 18].a[  5] =         1.747518000000;     BAS[ATNO][ 18].d[  5] =         0.387321835590;
  BAS[ATNO][ 18].a[  6] =         0.699560000000;     BAS[ATNO][ 18].d[  6] =         0.291483887823;
  BAS[ATNO][ 18].a[  7] =       205.617700000000;     BAS[ATNO][ 18].d[  7] =        -0.007983680617;
  BAS[ATNO][ 18].a[  8] =        61.449810000000;     BAS[ATNO][ 18].d[  8] =        -0.063733096628;
  BAS[ATNO][ 18].a[  9] =        23.056890000000;     BAS[ATNO][ 18].d[  9] =        -0.271155400832;
  BAS[ATNO][ 18].a[ 10] =         9.577739000000;     BAS[ATNO][ 18].d[ 10] =        -0.741591163817;
  BAS[ATNO][ 18].a[ 11] =         4.133734000000;     BAS[ATNO][ 18].d[ 11] =        -0.940557437894;
  BAS[ATNO][ 18].a[ 12] =         1.747518000000;     BAS[ATNO][ 18].d[ 12] =         0.142130941155;
  BAS[ATNO][ 18].a[ 13] =         0.699560000000;     BAS[ATNO][ 18].d[ 13] =         1.312050587505;
  BAS[ATNO][ 18].a[ 14] =       205.617700000000;     BAS[ATNO][ 18].d[ 14] =         0.003637303118;
  BAS[ATNO][ 18].a[ 15] =        61.449810000000;     BAS[ATNO][ 18].d[ 15] =         0.030951115437;
  BAS[ATNO][ 18].a[ 16] =        23.056890000000;     BAS[ATNO][ 18].d[ 16] =         0.128598116043;
  BAS[ATNO][ 18].a[ 17] =         9.577739000000;     BAS[ATNO][ 18].d[ 17] =         0.412892256358;
  BAS[ATNO][ 18].a[ 18] =         4.133734000000;     BAS[ATNO][ 18].d[ 18] =         0.117064753027;
  BAS[ATNO][ 18].a[ 19] =         1.747518000000;     BAS[ATNO][ 18].d[ 19] =        -0.741719046346;
  BAS[ATNO][ 18].a[ 20] =         0.699560000000;     BAS[ATNO][ 18].d[ 20] =        -0.109724986548;
  BAS[ATNO][ 18].a[ 21] =         0.251608000000;     BAS[ATNO][ 18].d[ 21] =        -1.083767054553;
  BAS[ATNO][ 18].a[ 22] =         0.090490000000;     BAS[ATNO][ 18].d[ 22] =         0.384437084381;

  // Basis function  20 L = d
  InitBFNGauss(BAS[ATNO][ 19]);
  BAS[ATNO][ 19].l  = 2;
  BAS[ATNO][ 19].ng = 23;
  BAS[ATNO][ 19].a[  0] =       205.617700000000;     BAS[ATNO][ 19].d[  0] =        -0.003132198751;
  BAS[ATNO][ 19].a[  1] =        61.449810000000;     BAS[ATNO][ 19].d[  1] =        -0.024883727568;
  BAS[ATNO][ 19].a[  2] =        23.056890000000;     BAS[ATNO][ 19].d[  2] =        -0.103116476563;
  BAS[ATNO][ 19].a[  3] =         9.577739000000;     BAS[ATNO][ 19].d[  3] =        -0.270190258283;
  BAS[ATNO][ 19].a[  4] =         4.133734000000;     BAS[ATNO][ 19].d[  4] =        -0.440612898104;
  BAS[ATNO][ 19].a[  5] =         1.747518000000;     BAS[ATNO][ 19].d[  5] =        -0.482770527922;
  BAS[ATNO][ 19].a[  6] =         0.699560000000;     BAS[ATNO][ 19].d[  6] =        -0.363314994082;
  BAS[ATNO][ 19].a[  7] =       205.617700000000;     BAS[ATNO][ 19].d[  7] =         0.006658811808;
  BAS[ATNO][ 19].a[  8] =        61.449810000000;     BAS[ATNO][ 19].d[  8] =         0.053156772758;
  BAS[ATNO][ 19].a[  9] =        23.056890000000;     BAS[ATNO][ 19].d[  9] =         0.226157942840;
  BAS[ATNO][ 19].a[ 10] =         9.577739000000;     BAS[ATNO][ 19].d[ 10] =         0.618526245549;
  BAS[ATNO][ 19].a[ 11] =         4.133734000000;     BAS[ATNO][ 19].d[ 11] =         0.784474639355;
  BAS[ATNO][ 19].a[ 12] =         1.747518000000;     BAS[ATNO][ 19].d[ 12] =        -0.118544720728;
  BAS[ATNO][ 19].a[ 13] =         0.699560000000;     BAS[ATNO][ 19].d[ 13] =        -1.094319570481;
  BAS[ATNO][ 19].a[ 14] =       205.617700000000;     BAS[ATNO][ 19].d[ 14] =        -0.009302118355;
  BAS[ATNO][ 19].a[ 15] =        61.449810000000;     BAS[ATNO][ 19].d[ 15] =        -0.079155057924;
  BAS[ATNO][ 19].a[ 16] =        23.056890000000;     BAS[ATNO][ 19].d[ 16] =        -0.328879627786;
  BAS[ATNO][ 19].a[ 17] =         9.577739000000;     BAS[ATNO][ 19].d[ 17] =        -1.055939665099;
  BAS[ATNO][ 19].a[ 18] =         4.133734000000;     BAS[ATNO][ 19].d[ 18] =        -0.299383953570;
  BAS[ATNO][ 19].a[ 19] =         1.747518000000;     BAS[ATNO][ 19].d[ 19] =         1.896888472321;
  BAS[ATNO][ 19].a[ 20] =         0.699560000000;     BAS[ATNO][ 19].d[ 20] =         0.280613074633;
  BAS[ATNO][ 19].a[ 21] =         0.251608000000;     BAS[ATNO][ 19].d[ 21] =         0.575028637344;
  BAS[ATNO][ 19].a[ 22] =         0.090490000000;     BAS[ATNO][ 19].d[ 22] =        -0.194550587445;

  // Basis function  21 L = f
  InitBFNGauss(BAS[ATNO][ 20]);
  BAS[ATNO][ 20].l  = 3;
  BAS[ATNO][ 20].ng = 3;
  BAS[ATNO][ 20].a[  0] =         5.792200000000;     BAS[ATNO][ 20].d[  0] =         0.028790088725;
  BAS[ATNO][ 20].a[  1] =         1.485100000000;     BAS[ATNO][ 20].d[  1] =        -0.076386835356;
  BAS[ATNO][ 20].a[  2] =         0.548610000000;     BAS[ATNO][ 20].d[  2] =         1.040930342820;

  // Basis function  22 L = f
  InitBFNGauss(BAS[ATNO][ 21]);
  BAS[ATNO][ 21].l  = 3;
  BAS[ATNO][ 21].ng = 3;
  BAS[ATNO][ 21].a[  0] =         5.792200000000;     BAS[ATNO][ 21].d[  0] =         0.067155441043;
  BAS[ATNO][ 21].a[  1] =         1.485100000000;     BAS[ATNO][ 21].d[  1] =         1.195000759907;
  BAS[ATNO][ 21].a[  2] =         0.548610000000;     BAS[ATNO][ 21].d[  2] =        -0.655672650899;

  // Basis function  23 L = f
  InitBFNGauss(BAS[ATNO][ 22]);
  BAS[ATNO][ 22].l  = 3;
  BAS[ATNO][ 22].ng = 3;
  BAS[ATNO][ 22].a[  0] =         5.792200000000;     BAS[ATNO][ 22].d[  0] =         1.099449165409;
  BAS[ATNO][ 22].a[  1] =         1.485100000000;     BAS[ATNO][ 22].d[  1] =        -0.633607632243;
  BAS[ATNO][ 22].a[  2] =         0.548610000000;     BAS[ATNO][ 22].d[  2] =         0.259141969095;

  // Basis function  24 L = g
  InitBFNGauss(BAS[ATNO][ 23]);
  BAS[ATNO][ 23].l  = 4;
  BAS[ATNO][ 23].ng = 2;
  BAS[ATNO][ 23].a[  0] =         4.114400000000;     BAS[ATNO][ 23].d[  0] =        -0.168680468378;
  BAS[ATNO][ 23].a[  1] =         1.829330000000;     BAS[ATNO][ 23].d[  1] =         1.100296810201;

  // Basis function  25 L = g
  InitBFNGauss(BAS[ATNO][ 24]);
  BAS[ATNO][ 24].l  = 4;
  BAS[ATNO][ 24].ng = 2;
  BAS[ATNO][ 24].a[  0] =         4.114400000000;     BAS[ATNO][ 24].d[  0] =         1.296432388539;
  BAS[ATNO][ 24].a[  1] =         1.829330000000;     BAS[ATNO][ 24].d[  1] =        -0.706071503409;

-------
TIMINGS
-------

Total SCF time: 0 days 0 hours 1 min 59 sec 

Total time                  ....     119.144 sec
Sum of individual times     ....     118.840 sec  ( 99.7%)

Fock matrix formation       ....     118.586 sec  ( 99.5%)
  XC integration            ....       0.221 sec  (  0.2% of F)
    Basis function eval.    ....       0.040 sec  ( 17.9% of XC)
    Density eval.           ....       0.012 sec  (  5.4% of XC)
    XC-Functional eval.     ....       0.009 sec  (  4.2% of XC)
    XC-Potential eval.      ....       0.015 sec  (  6.8% of XC)
Diagonalization             ....       0.015 sec  (  0.0%)
Density matrix formation    ....       0.003 sec  (  0.0%)
Population analysis         ....       0.002 sec  (  0.0%)
Initial guess               ....       0.089 sec  (  0.1%)
Orbital Transformation      ....       0.000 sec  (  0.0%)
Orbital Orthonormalization  ....       0.000 sec  (  0.0%)
DIIS solution               ....       0.009 sec  (  0.0%)
Grid generation             ....       0.136 sec  (  0.1%)

-------------------------   --------------------
FINAL SINGLE POINT ENERGY     -1779.261955987133
-------------------------   --------------------


                            ***************************************
                            *     ORCA property calculations      *
                            ***************************************

                                    ---------------------
                                    Active property flags
                                    ---------------------
   (+) Dipole Moment


------------------------------------------------------------------------------
                       ORCA ELECTRIC PROPERTIES CALCULATION
------------------------------------------------------------------------------

Dipole Moment Calculation                       ... on
Quadrupole Moment Calculation                   ... off
Polarizability Calculation                      ... off
GBWName                                         ... 70_Zn.gbw
Electron density file                           ... 70_Zn.scfp
The origin for moment calculation is the CENTER OF MASS  = ( 0.000000,  0.000000  0.000000)

-------------
DIPOLE MOMENT
-------------
                                X             Y             Z
Electronic contribution:     -0.00000      -0.00000      -0.00000
Nuclear contribution   :      0.00000       0.00000       0.00000
                        -----------------------------------------
Total Dipole Moment    :     -0.00000      -0.00000      -0.00000
                        -----------------------------------------
Magnitude (a.u.)       :      0.00000
Magnitude (Debye)      :      0.00000



--------------------
Rotational spectrum 
--------------------
 
Rotational constants in cm-1:     0.000000     0.000000     0.000000 
Rotational constants in MHz :     0.000000     0.000000     0.000000 

 Dipole components along the rotational axes: 
x,y,z [a.u.] :    -0.000000    -0.000000    -0.000000 
x,y,z [Debye]:    -0.000000    -0.000000    -0.000000 

 

Timings for individual modules:

Sum of individual times         ...      122.512 sec (=   2.042 min)
GTO integral calculation        ...        2.886 sec (=   0.048 min)   2.4 %
SCF iterations                  ...      119.626 sec (=   1.994 min)  97.6 %
                             ****ORCA TERMINATED NORMALLY****
TOTAL RUN TIME: 0 days 0 hours 2 minutes 3 seconds 110 msec
