
                                 *****************
                                 * O   R   C   A *
                                 *****************

           --- An Ab Initio, DFT and Semiempirical electronic structure package ---

                  #######################################################
                  #                        -***-                        #
                  #          Department of theory and spectroscopy      #
                  #               Directorship: Frank Neese             #
                  #        Max Planck Institute fuer Kohlenforschung    #
                  #                Kaiser Wilhelm Platz 1               #
                  #                 D-45470 Muelheim/Ruhr               #
                  #                      Germany                        #
                  #                                                     #
                  #                  All rights reserved                #
                  #                        -***-                        #
                  #######################################################


                         Program Version 4.2.0 -  RELEASE  -


 With contributions from (in alphabetic order):
   Daniel Aravena         : Magnetic Suceptibility
   Michael Atanasov       : Ab Initio Ligand Field Theory (pilot matlab implementation)
   Alexander A. Auer      : GIAO ZORA, VPT2
   Ute Becker             : Parallelization
   Giovanni Bistoni       : ED, misc. LED, open-shell LED, HFLED
   Martin Brehm           : Molecular dynamics
   Dmytro Bykov           : SCF Hessian
   Vijay G. Chilkuri      : MRCI spin determinant printing, contributions to CSF-ICE
   Dipayan Datta          : RHF DLPNO-CCSD density
   Achintya Kumar Dutta   : EOM-CC, STEOM-CC
   Dmitry Ganyushin       : Spin-Orbit,Spin-Spin,Magnetic field MRCI
   Miquel Garcia          : C-PCM Hessian, Gaussian charge scheme
   Yang Guo               : DLPNO-NEVPT2, CIM, IAO-localization
   Andreas Hansen         : Spin unrestricted coupled pair/coupled cluster methods
   Benjamin Helmich-Paris : CASSCF linear response (MC-RPA)
   Lee Huntington         : MR-EOM, pCC
   Robert Izsak           : Overlap fitted RIJCOSX, COSX-SCS-MP3, EOM
   Christian Kollmar      : KDIIS, OOCD, Brueckner-CCSD(T), CCSD density
   Simone Kossmann        : Meta GGA functionals, TD-DFT gradient, OOMP2, MP2 Hessian
   Martin Krupicka        : AUTO-CI
   Lucas Lang             : DCDCAS
   Dagmar Lenk            : GEPOL surface, SMD
   Dimitrios Liakos       : Extrapolation schemes; Compound Job, initial MDCI parallelization
   Dimitrios Manganas     : Further ROCIS development; embedding schemes
   Dimitrios Pantazis     : SARC Basis sets
   Taras Petrenko         : DFT Hessian,TD-DFT gradient, ASA, ECA, R-Raman, ABS, FL, XAS/XES, NRVS
   Peter Pinski           : DLPNO-MP2, DLPNO-MP2 Gradient
   Christoph Reimann      : Effective Core Potentials
   Marius Retegan         : Local ZFS, SOC
   Christoph Riplinger    : Optimizer, TS searches, QM/MM, DLPNO-CCSD(T), (RO)-DLPNO pert. Triples
   Tobias Risthaus        : Range-separated hybrids, TD-DFT gradient, RPA, STAB
   Michael Roemelt        : Original ROCIS implementation
   Masaaki Saitow         : Open-shell DLPNO-CCSD energy and density
   Barbara Sandhoefer     : DKH picture change effects
   Avijit Sen             : IP-ROCIS
   Kantharuban Sivalingam : CASSCF convergence, NEVPT2, FIC-MRCI
   Bernardo de Souza      : ESD, SOC TD-DFT
   Georgi Stoychev        : AutoAux, RI-MP2 NMR
   Willem Van den Heuvel  : Paramagnetic NMR
   Boris Wezisla          : Elementary symmetry handling
   Frank Wennmohs         : Technical directorship


 We gratefully acknowledge several colleagues who have allowed us to
 interface, adapt or use parts of their codes:
   Stefan Grimme, W. Hujo, H. Kruse,             : VdW corrections, initial TS optimization,
                  C. Bannwarth                     DFT functionals, gCP, sTDA/sTD-DF
   Ed Valeev, F. Pavosevic, A. Kumar             : LibInt (2-el integral package), F12 methods
   Garnet Chan, S. Sharma, J. Yang, R. Olivares  : DMRG
   Ulf Ekstrom                                   : XCFun DFT Library
   Mihaly Kallay                                 : mrcc  (arbitrary order and MRCC methods)
   Andreas Klamt, Michael Diedenhofen            : otool_cosmo (COSMO solvation model)
   Jiri Pittner, Ondrej Demel                    : Mk-CCSD
   Frank Weinhold                                : gennbo (NPA and NBO analysis)
   Christopher J. Cramer and Donald G. Truhlar   : smd solvation model
   Lars Goerigk                                  : TD-DFT with DH, B97 family of functionals
   V. Asgeirsson, H. Jonsson                     : NEB implementation
   FAccTs GmbH                                   : IRC, NEB, NEB-TS, Multilevel, MM, QM/MM, CI optimization
   S Lehtola, MJT Oliveira, MAL Marques          : LibXC Library


 Your calculation uses the libint2 library for the computation of 2-el integrals
 For citations please refer to: http://libint.valeyev.net

 Your ORCA version has been built with support for libXC version: 4.2.3
 For citations please refer to: https://tddft.org/programs/libxc/

 This ORCA versions uses:
   CBLAS   interface :  Fast vector & matrix operations
   LAPACKE interface :  Fast linear algebra routines
   SCALAPACK package :  Parallel linear algebra routines


Your calculation utilizes the DFT-NL dispersion correction.
Cite in your paper:
Vydrov, O. A.; Van Voorhis, T. J. Chem. Phys. 2010, 133, 244103
Hujo, W.; Grimme, S. J. Chem. Theory Comput. 2011, 7, 3866 
   

----- Orbital basis set information -----
Your calculation utilizes the basis: aug-cc-pVTZ 
    H, B-Ne : Obtained from the ccRepo (grant-hill.group.shef.ac.uk/ccrepo) Feb. 2017
              R. A. Kendall, T. H. Dunning, Jr., R. J. Harrison, J. Chem. Phys. 96, 6796 (1992)
         He : Obtained from the ccRepo (grant-hill.group.shef.ac.uk/ccrepo) Feb. 2017
              D. E. Woon, T. H. Dunning, Jr., J. Chem. Phys. 100, 2975 (1994)
  Li-Be, Na : Obtained from the ccRepo (grant-hill.group.shef.ac.uk/ccrepo) Feb. 2017
              B. P. Prascher, D. E. Woon, K. A. Peterson, T. H. Dunning, Jr., A. K. Wilson, Theor. Chem. Acc. 128, 69 (2011)
         Mg : Obtained from the Peterson Research Group Website (tyr0.chem.wsu.edu/~kipeters) Feb. 2017
              B. P. Prascher, D. E. Woon, K. A. Peterson, T. H. Dunning, Jr., A. K. Wilson, Theor. Chem. Acc. 128, 69 (2011)
      Al-Ar : Obtained from the ccRepo (grant-hill.group.shef.ac.uk/ccrepo) Feb. 2017
              D. E. Woon, T. H. Dunning, Jr., J. Chem. Phys. 98, 1358 (1993)
      Sc-Zn : Obtained from the ccRepo (grant-hill.group.shef.ac.uk/ccrepo) Feb. 2017
              N. B. Balabanov, K. A. Peterson, J. Chem. Phys. 123, 064107 (2005)
              N. B. Balabanov, K. A. Peterson, J. Chem. Phys. 125, 074110 (2006)
      Ga-Kr : Obtained from the ccRepo (grant-hill.group.shef.ac.uk/ccrepo) Feb. 2017
              A. K. Wilson, D. E. Woon, K. A. Peterson, T. H. Dunning, Jr., J. Chem. Phys. 110, 7667 (1999)
     Ag, Au : Obtained from the Peterson Research Group Website (tyr0.chem.wsu.edu/~kipeters) Feb. 2017
              K. A. Peterson, C. Puzzarini, Theor. Chem. Acc. 114, 283 (2005)

----- AuxJK basis set information -----
Your calculation utilizes the auxiliary basis: def2/JK
   H-Ba, Hf-Rn: F. Weigend, J. Comput. Chem. 29, 167 (2008).

================================================================================
                                        WARNINGS
                       Please study these warnings very carefully!
================================================================================


WARNING: your system is open-shell and RHF/RKS was chosen
  ===> : WILL SWITCH to UHF/UKS


INFO   : the flag for use of LIBINT has been found!

================================================================================
                                       INPUT FILE
================================================================================
NAME = 71_H.in
|  1> #
|  2> # 71_H wb97x-v/aug-cc-pvtz
|  3> #
|  4> ! wb97x-v aug-cc-pvtz def2/jk grid4 nofinalgrid
|  5> 
|  6> *xyz 0 2
|  7> H 0.0 0.0 0.0
|  8> *
|  9> 
| 10> %pal
| 11> nprocs 24
| 12> end
| 13> 
| 14> 
| 15>                          ****END OF INPUT****
================================================================================

                       ****************************
                       * Single Point Calculation *
                       ****************************

---------------------------------
CARTESIAN COORDINATES (ANGSTROEM)
---------------------------------
  H      0.000000    0.000000    0.000000

----------------------------
CARTESIAN COORDINATES (A.U.)
----------------------------
  NO LB      ZA    FRAG     MASS         X           Y           Z
   0 H     1.0000    0     1.008    0.000000    0.000000    0.000000

--------------------------------
INTERNAL COORDINATES (ANGSTROEM)
--------------------------------
 H      0   0   0     0.000000000000     0.00000000     0.00000000

---------------------------
INTERNAL COORDINATES (A.U.)
---------------------------
 H      0   0   0     0.000000000000     0.00000000     0.00000000

---------------------
BASIS SET INFORMATION
---------------------
There are 1 groups of distinct atoms

 Group   1 Type H   : 6s3p2d contracted to 4s3p2d pattern {3111/111/11}

Atom   0H    basis set group =>   1
----------------------------------
AUXILIARY/JK BASIS SET INFORMATION
----------------------------------
There are 1 groups of distinct atoms

 Group   1 Type H   : 4s2p2d contracted to 2s2p2d pattern {31/11/11}

Atom   0H    basis set group =>   1


           ************************************************************
           *        Program running with 24 parallel MPI-processes    *
           *              working on a common directory               *
           ************************************************************
------------------------------------------------------------------------------
                           ORCA GTO INTEGRAL CALCULATION
------------------------------------------------------------------------------

                         BASIS SET STATISTICS AND STARTUP INFO

 # of primitive gaussian shells          ...   11
 # of primitive gaussian functions       ...   25
 # of contracted shells                  ...    9
 # of contracted basis functions         ...   23
 Highest angular momentum                ...    2
 Maximum contraction depth               ...    3
 Integral package used                   ... LIBINT
 Integral threshhold            Thresh   ...  1.000e-10
 Primitive cut-off              TCut     ...  1.000e-11


------------------------------ INTEGRAL EVALUATION ----------------------------


 * One electron integrals 
 Pre-screening matrix                    ... done
 Shell pair data                         ... done (   0.000 sec)



           ************************************************************
           *        Program running with 24 parallel MPI-processes    *
           *              working on a common directory               *
           ************************************************************
-------------------------------------------------------------------------------
                                 ORCA SCF
-------------------------------------------------------------------------------

------------
SCF SETTINGS
------------
Hamiltonian:
 Density Functional     Method          .... DFT(GTOs)
 Exchange Functional    Exchange        .... WB97X-V
 Correlation Functional Correlation     .... WB97X-V
 Gradients option       PostSCFGGA      .... off
 Hybrid DFT is turned on
   Fraction HF Exchange ScalHFX         ....  0.167000
   Scaling of DF-GGA-X  ScalDFX         ....  0.000000
   Scaling of DF-GGA-C  ScalDFC         ....  1.000000
   Scaling of DF-LDA-C  ScalLDAC        ....  1.000000
   Perturbative correction              ....  0.000000
   Density functional embedding theory  .... OFF
 Long-range corrected/Screened/Range-Separated Hybrid DFT is turned on
   Amount of maximum screened exact exchange              ....  0.833000
   Range separation parameter mu (erf(mu*r12)/r12)        ....  0.300000
   NL short-range parameter             ....  6.000000
   NL long-range parameter              ....  0.010000


General Settings:
 Integral files         IntName         .... 71_H
 Hartree-Fock type      HFTyp           .... UHF
 Total Charge           Charge          ....    0
 Multiplicity           Mult            ....    2
 Number of Electrons    NEL             ....    1
 Basis Dimension        Dim             ....   23
 Nuclear Repulsion      ENuc            ....      0.0000000000 Eh

Convergence Acceleration:
 DIIS                   CNVDIIS         .... on
   Start iteration      DIISMaxIt       ....    12
   Startup error        DIISStart       ....  0.200000
   # of expansion vecs  DIISMaxEq       ....     5
   Bias factor          DIISBfac        ....   1.050
   Max. coefficient     DIISMaxC        ....  10.000
 Newton-Raphson         CNVNR           .... off
 SOSCF                  CNVSOSCF        .... off
 Level Shifting         CNVShift        .... on
   Level shift para.    LevelShift      ....    0.2500
   Turn off err/grad.   ShiftErr        ....    0.0010
 Zerner damping         CNVZerner       .... off
 Static damping         CNVDamp         .... on
   Fraction old density DampFac         ....    0.7000
   Max. Damping (<1)    DampMax         ....    0.9800
   Min. Damping (>=0)   DampMin         ....    0.0000
   Turn off err/grad.   DampErr         ....    0.1000
 Fernandez-Rico         CNVRico         .... off

SCF Procedure:
 Maximum # iterations   MaxIter         ....   125
 SCF integral mode      SCFMode         .... Direct
   Integral package                     .... LIBINT
 Reset frequency        DirectResetFreq ....    20
 Integral Threshold     Thresh          ....  1.000e-10 Eh
 Primitive CutOff       TCut            ....  1.000e-11 Eh

Convergence Tolerance:
 Convergence Check Mode ConvCheckMode   .... Total+1el-Energy
 Convergence forced     ConvForced      .... 0
 Energy Change          TolE            ....  1.000e-06 Eh
 1-El. energy change                    ....  1.000e-03 Eh
 DIIS Error             TolErr          ....  1.000e-06


Diagonalization of the overlap matrix:
Smallest eigenvalue                        ... 6.823e-02
Time for diagonalization                   ...    0.003 sec
Threshold for overlap eigenvalues          ... 1.000e-08
Number of eigenvalues below threshold      ... 0
Time for construction of square roots      ...    0.038 sec
Total time needed                          ...    0.041 sec

-------------------
DFT GRID GENERATION
-------------------

General Integration Accuracy     IntAcc      ...  4.670
Radial Grid Type                 RadialGrid  ... Gauss-Chebyshev
Angular Grid (max. acc.)         AngularGrid ... Lebedev-302
Angular grid pruning method      GridPruning ... 3 (G Style)
Weight generation scheme         WeightScheme... Becke
Basis function cutoff            BFCut       ...    1.0000e-10
Integration weight cutoff        WCut        ...    1.0000e-14
Grids for H and He will be reduced by one unit

# of grid points (after initial pruning)     ...   3394 (   0.0 sec)
# of grid points (after weights+screening)   ...   3394 (   0.0 sec)
Grid point division into batches done        ...    0.0 sec
Reduced shell lists constructed in    0.0 sec

Total number of grid points                  ...     3394
Total number of batches                      ...       54
Average number of points per batch           ...       62
Average number of grid points per atom       ...     3394
Average number of shells per batch           ...     4.50 (50.00%)
Average number of basis functions per batch  ...    10.50 (45.65%)
Average number of large shells per batch     ...     4.50 (100.00%)
Average number of large basis fcns per batch ...    10.50 (100.00%)
Maximum spatial batch extension              ...  15.43, 15.43, 15.43 au
Average spatial batch extension              ...   0.67,  0.76,  0.86 au

Time for grid setup =    0.016 sec

------------------------------
INITIAL GUESS: MODEL POTENTIAL
------------------------------
Loading Hartree-Fock densities                     ... done
Calculating cut-offs                               ... done
Setting up the integral package                    ... done
Initializing the effective Hamiltonian             ... done
Starting the Coulomb interaction                   ... done (   0.0 sec)
Reading the grid                                   ... done
Mapping shells                                     ... done
Starting the XC term evaluation                    ... done (   0.0 sec)
  promolecular density results
     # of electrons  =      0.999510313
     EX              =     -0.098085955
     EC              =     -0.019353096
     EX+EC           =     -0.117439051
Transforming the Hamiltonian                       ... done (   0.0 sec)
Diagonalizing the Hamiltonian                      ... done (   0.0 sec)
Back transforming the eigenvectors                 ... done (   0.0 sec)
Now organizing SCF variables                       ... done
                      ------------------
                      INITIAL GUESS DONE (   0.1 sec)
                      ------------------
--------------
SCF ITERATIONS
--------------
ITER       Energy         Delta-E        Max-DP      RMS-DP      [F,P]     Damp
               ***  Starting incremental Fock matrix formation  ***
  0     -0.4776112972   0.000000000000 0.01707720  0.00094379  0.0960935 0.7000
  1     -0.4833140887  -0.005702791528 0.01858737  0.00100316  0.0803532 0.7000
                               ***Turning on DIIS***
  2     -0.4884430936  -0.005129004951 0.05391661  0.00289388  0.0642279 0.0000
  3     -0.5036650595  -0.015221965852 0.02126342  0.00100796  0.0211427 0.0000
  4     -0.5049203595  -0.001255300038 0.00749334  0.00041002  0.0082084 0.0000
  5     -0.5051126257  -0.000192266126 0.00353749  0.00017773  0.0031213 0.0000
  6     -0.5051425362  -0.000029910559 0.00156201  0.00008094  0.0011551 0.0000
  7     -0.5051471449  -0.000004608672 0.00096299  0.00005298  0.0004174 0.0000
                 **** Energy Check signals convergence ****

               *****************************************************
               *                     SUCCESS                       *
               *           SCF CONVERGED AFTER   8 CYCLES          *
               *****************************************************


Setting up the DFT-NL grid :

General Integration Accuracy     IntAcc      ...  4.340
Radial Grid Type                 RadialGrid  ... Gauss-Chebyshev
Angular Grid (max. acc.)         AngularGrid ... Lebedev-110
Angular grid pruning method      GridPruning ... 3 (G Style)
Weight generation scheme         WeightScheme... Becke
Basis function cutoff            BFCut       ...    1.0000e-10
Integration weight cutoff        WCut        ...    1.0000e-14
Grids for H and He will be reduced by one unit

# of grid points (after initial pruning)     ...    794 (   0.0 sec)
# of grid points (after weights+screening)   ...    794 (   0.0 sec)
Grid point division into batches done        ...    0.0 sec
Reduced shell lists constructed in    0.0 sec

Total number of grid points                  ...      794
Total number of batches                      ...       13
Average number of points per batch           ...       61
Average number of grid points per atom       ...      794
Average number of shells per batch           ...     4.50 (50.00%)
Average number of basis functions per batch  ...    11.50 (50.00%)
Average number of large shells per batch     ...     4.50 (100.00%)
Average number of large basis fcns per batch ...    11.50 (100.00%)
Maximum spatial batch extension              ...  12.73, 21.59, 21.59 au
Average spatial batch extension              ...   0.98,  1.66,  1.66 au

Final grid set up in    0.0 sec

-------------------------------------------------------------------------------
                         DFT-NL dispersion correction                          
-------------------------------------------------------------------------------

SC Energy -0.505147932 
NL    Energy 0.004533414 
SC+NL Energy -0.500614518 
NL done in    0.0 sec
-------------------------------------------------------------------------------

----------------
TOTAL SCF ENERGY
----------------

Total Energy       :           -0.50061452 Eh             -13.62241 eV

Components:
Nuclear Repulsion  :            0.00000000 Eh               0.00000 eV
Electronic Energy  :           -0.50061452 Eh             -13.62241 eV
One Electron Energy:           -0.49940936 Eh             -13.58962 eV
Two Electron Energy:           -0.00120516 Eh              -0.03279 eV

Virial components:
Potential Energy   :           -0.99397935 Eh             -27.04755 eV
Kinetic Energy     :            0.49336483 Eh              13.42514 eV
Virial Ratio       :            2.01469437


DFT components:
N(Alpha)           :        1.000000004521 electrons
N(Beta)            :        0.000000000000 electrons
N(Total)           :        1.000000004521 electrons
E(X)               :       -0.133621405066 Eh       
E(C)               :       -0.007237816519 Eh       
NL Energy, E(C,NL) :        0.004533414301 Eh       
E(XC)              :       -0.136325807284 Eh       
DFET-embed. en.    :        0.000000000000 Eh       

---------------
SCF CONVERGENCE
---------------

  Last Energy change         ...   -7.8704e-07  Tolerance :   1.0000e-06
  Last MAX-Density change    ...    1.2823e-04  Tolerance :   1.0000e-05
  Last RMS-Density change    ...    5.5268e-06  Tolerance :   1.0000e-06
  Last DIIS Error            ...    1.7455e-05  Tolerance :   1.0000e-06

             **** THE GBW FILE WAS UPDATED (71_H.gbw) ****
             **** DENSITY FILE WAS UPDATED (71_H.scfp) ****
             **** ENERGY FILE WAS UPDATED (71_H.en.tmp) ****
----------------------
UHF SPIN CONTAMINATION
----------------------

Warning: in a DFT calculation there is little theoretical justification to 
         calculate <S**2> as in Hartree-Fock theory. We will do it anyways
         but you should keep in mind that the values have only limited relevance

Expectation value of <S**2>     :     0.750000
Ideal value S*(S+1) for S=0.5   :     0.750000
Deviation                       :     0.000000

             **** THE GBW FILE WAS UPDATED (71_H.gbw) ****
             **** DENSITY FILE WAS UPDATED (71_H.scfp) ****
----------------
ORBITAL ENERGIES
----------------
                 SPIN UP ORBITALS
  NO   OCC          E(Eh)            E(eV) 
   0   1.0000      -0.433501       -11.7962 
   1   0.0000       0.055652         1.5144 
   2   0.0000       0.192900         5.2491 
   3   0.0000       0.192900         5.2491 
   4   0.0000       0.192900         5.2491 
   5   0.0000       0.423162        11.5148 
   6   0.0000       0.771416        20.9913 
   7   0.0000       0.771416        20.9913 
   8   0.0000       0.771416        20.9913 
   9   0.0000       0.771416        20.9913 
  10   0.0000       0.771416        20.9913 
  11   0.0000       0.917500        24.9664 
  12   0.0000       0.917500        24.9664 
  13   0.0000       0.917500        24.9664 
  14   0.0000       2.360061        64.2205 
  15   0.0000       3.661116        99.6240 
  16   0.0000       3.661116        99.6240 
  17   0.0000       3.661116        99.6240 
  18   0.0000       3.661116        99.6240 
  19   0.0000       3.661116        99.6240 
  20   0.0000       3.826382       104.1211 
  21   0.0000       3.826382       104.1211 
  22   0.0000       3.826382       104.1211 

                 SPIN DOWN ORBITALS
  NO   OCC          E(Eh)            E(eV) 
   0   0.0000       0.050281         1.3682 
   1   0.0000       0.186740         5.0814 
   2   0.0000       0.281464         7.6590 
   3   0.0000       0.281464         7.6590 
   4   0.0000       0.281464         7.6590 
   5   0.0000       0.656594        17.8668 
   6   0.0000       0.894608        24.3435 
   7   0.0000       0.894608        24.3435 
   8   0.0000       0.894608        24.3435 
   9   0.0000       0.894608        24.3435 
  10   0.0000       0.894608        24.3435 
  11   0.0000       1.153408        31.3858 
  12   0.0000       1.153408        31.3858 
  13   0.0000       1.153408        31.3858 
  14   0.0000       2.808527        76.4239 
  15   0.0000       3.994214       108.6881 
  16   0.0000       3.994214       108.6881 
  17   0.0000       3.994214       108.6881 
  18   0.0000       3.994214       108.6881 
  19   0.0000       3.994214       108.6881 
  20   0.0000       4.243150       115.4620 
  21   0.0000       4.243150       115.4620 
  22   0.0000       4.243150       115.4620 

                    ********************************
                    * MULLIKEN POPULATION ANALYSIS *
                    ********************************

--------------------------------------------
MULLIKEN ATOMIC CHARGES AND SPIN POPULATIONS
--------------------------------------------
   0 H :   -0.000000    1.000000
Sum of atomic charges         :   -0.0000000
Sum of atomic spin populations:    1.0000000

-----------------------------------------------------
MULLIKEN REDUCED ORBITAL CHARGES AND SPIN POPULATIONS
-----------------------------------------------------
CHARGE
  0 H s       :     1.000000  s :     1.000000
      pz      :     0.000000  p :     0.000000
      px      :     0.000000
      py      :     0.000000
      dz2     :     0.000000  d :     0.000000
      dxz     :     0.000000
      dyz     :     0.000000
      dx2y2   :     0.000000
      dxy     :     0.000000

SPIN
  0 H s       :     1.000000  s :     1.000000
      pz      :     0.000000  p :     0.000000
      px      :     0.000000
      py      :     0.000000
      dz2     :     0.000000  d :     0.000000
      dxz     :     0.000000
      dyz     :     0.000000
      dx2y2   :     0.000000
      dxy     :     0.000000


                     *******************************
                     * LOEWDIN POPULATION ANALYSIS *
                     *******************************

-------------------------------------------
LOEWDIN ATOMIC CHARGES AND SPIN POPULATIONS
-------------------------------------------
   0 H :   -0.000000    1.000000

----------------------------------------------------
LOEWDIN REDUCED ORBITAL CHARGES AND SPIN POPULATIONS
----------------------------------------------------
CHARGE
  0 H s       :     1.000000  s :     1.000000
      pz      :     0.000000  p :     0.000000
      px      :     0.000000
      py      :     0.000000
      dz2     :     0.000000  d :     0.000000
      dxz     :     0.000000
      dyz     :     0.000000
      dx2y2   :     0.000000
      dxy     :     0.000000

SPIN
  0 H s       :     1.000000  s :     1.000000
      pz      :     0.000000  p :     0.000000
      px      :     0.000000
      py      :     0.000000
      dz2     :     0.000000  d :     0.000000
      dxz     :     0.000000
      dyz     :     0.000000
      dx2y2   :     0.000000
      dxy     :     0.000000


                      *****************************
                      * MAYER POPULATION ANALYSIS *
                      *****************************

  NA   - Mulliken gross atomic population
  ZA   - Total nuclear charge
  QA   - Mulliken gross atomic charge
  VA   - Mayer's total valence
  BVA  - Mayer's bonded valence
  FA   - Mayer's free valence

  ATOM       NA         ZA         QA         VA         BVA        FA
  0 H      1.0000     1.0000    -0.0000     1.0000     0.0000     1.0000

  Mayer bond orders larger than 0.100000


Local spin analysis not attempted because no beta electrons available
--------------------------
ATOM BASIS FOR ELEMENT H 
--------------------------
 NewGTO H 
 S 6
    1         33.870000000000         0.006291128411
    2          5.095000000000         0.046974035277
    3          1.159000000000         0.210280034055
    4          0.325800000000         0.473268665865
    5          0.102700000000         0.394133300520
    6          0.025260000000         0.027598036657
 S 6
    1         33.870000000000         0.002071713792
    2          5.095000000000         0.015468887359
    3          1.159000000000         0.069246726227
    4          0.325800000000         0.030255948613
    5          0.102700000000         0.696376573537
    6          0.025260000000        -1.351925010563
 S 6
    1         33.870000000000         0.003391480305
    2          5.095000000000         0.025323201988
    3          1.159000000000         0.113359726175
    4          0.325800000000         1.452159911762
    5          0.102700000000        -2.189383891620
    6          0.025260000000         0.811590691888
 S 6
    1         33.870000000000         0.039895834750
    2          5.095000000000         0.297890652743
    3          1.159000000000         1.333512359199
    4          0.325800000000        -2.132228231942
    5          0.102700000000         1.245871058440
    6          0.025260000000        -0.338704600883
 P 3
    1          1.407000000000         0.031802822693
    2          0.388000000000        -0.067821375829
    3          0.102000000000         1.033732338799
 P 3
    1          1.407000000000        -0.074398078944
    2          0.388000000000         1.298952442598
    3          0.102000000000        -0.722707482528
 P 3
    1          1.407000000000         1.324399283780
    2          0.388000000000        -0.970746239630
    3          0.102000000000         0.318170253410
 D 2
    1          1.057000000000        -0.061359144437
    2          0.247000000000         1.024601572659
 D 2
    1          1.057000000000         1.103648290308
    2          0.247000000000        -0.414724137965
 end
  // -----------------------------------------------
  // The basis set
  // -----------------------------------------------
  BAS[ATNO] = new BFNGauss[NSH];
  // Basis function   1 L = s
  InitBFNGauss(BAS[ATNO][  0]);
  BAS[ATNO][  0].l  = 0;
  BAS[ATNO][  0].ng = 6;
  BAS[ATNO][  0].a[  0] =        33.870000000000;     BAS[ATNO][  0].d[  0] =         0.006291128411;
  BAS[ATNO][  0].a[  1] =         5.095000000000;     BAS[ATNO][  0].d[  1] =         0.046974035277;
  BAS[ATNO][  0].a[  2] =         1.159000000000;     BAS[ATNO][  0].d[  2] =         0.210280034055;
  BAS[ATNO][  0].a[  3] =         0.325800000000;     BAS[ATNO][  0].d[  3] =         0.473268665865;
  BAS[ATNO][  0].a[  4] =         0.102700000000;     BAS[ATNO][  0].d[  4] =         0.394133300520;
  BAS[ATNO][  0].a[  5] =         0.025260000000;     BAS[ATNO][  0].d[  5] =         0.027598036657;

  // Basis function   2 L = s
  InitBFNGauss(BAS[ATNO][  1]);
  BAS[ATNO][  1].l  = 0;
  BAS[ATNO][  1].ng = 6;
  BAS[ATNO][  1].a[  0] =        33.870000000000;     BAS[ATNO][  1].d[  0] =        -0.002071713792;
  BAS[ATNO][  1].a[  1] =         5.095000000000;     BAS[ATNO][  1].d[  1] =        -0.015468887359;
  BAS[ATNO][  1].a[  2] =         1.159000000000;     BAS[ATNO][  1].d[  2] =        -0.069246726227;
  BAS[ATNO][  1].a[  3] =         0.325800000000;     BAS[ATNO][  1].d[  3] =        -0.030255948613;
  BAS[ATNO][  1].a[  4] =         0.102700000000;     BAS[ATNO][  1].d[  4] =        -0.696376573537;
  BAS[ATNO][  1].a[  5] =         0.025260000000;     BAS[ATNO][  1].d[  5] =         1.351925010563;

  // Basis function   3 L = s
  InitBFNGauss(BAS[ATNO][  2]);
  BAS[ATNO][  2].l  = 0;
  BAS[ATNO][  2].ng = 6;
  BAS[ATNO][  2].a[  0] =        33.870000000000;     BAS[ATNO][  2].d[  0] =        -0.003391480305;
  BAS[ATNO][  2].a[  1] =         5.095000000000;     BAS[ATNO][  2].d[  1] =        -0.025323201988;
  BAS[ATNO][  2].a[  2] =         1.159000000000;     BAS[ATNO][  2].d[  2] =        -0.113359726175;
  BAS[ATNO][  2].a[  3] =         0.325800000000;     BAS[ATNO][  2].d[  3] =        -1.452159911762;
  BAS[ATNO][  2].a[  4] =         0.102700000000;     BAS[ATNO][  2].d[  4] =         2.189383891620;
  BAS[ATNO][  2].a[  5] =         0.025260000000;     BAS[ATNO][  2].d[  5] =        -0.811590691888;

  // Basis function   4 L = s
  InitBFNGauss(BAS[ATNO][  3]);
  BAS[ATNO][  3].l  = 0;
  BAS[ATNO][  3].ng = 6;
  BAS[ATNO][  3].a[  0] =        33.870000000000;     BAS[ATNO][  3].d[  0] =        -0.039895834750;
  BAS[ATNO][  3].a[  1] =         5.095000000000;     BAS[ATNO][  3].d[  1] =        -0.297890652743;
  BAS[ATNO][  3].a[  2] =         1.159000000000;     BAS[ATNO][  3].d[  2] =        -1.333512359199;
  BAS[ATNO][  3].a[  3] =         0.325800000000;     BAS[ATNO][  3].d[  3] =         2.132228231942;
  BAS[ATNO][  3].a[  4] =         0.102700000000;     BAS[ATNO][  3].d[  4] =        -1.245871058440;
  BAS[ATNO][  3].a[  5] =         0.025260000000;     BAS[ATNO][  3].d[  5] =         0.338704600883;

  // Basis function   5 L = p
  InitBFNGauss(BAS[ATNO][  4]);
  BAS[ATNO][  4].l  = 1;
  BAS[ATNO][  4].ng = 3;
  BAS[ATNO][  4].a[  0] =         1.407000000000;     BAS[ATNO][  4].d[  0] =         0.031802822693;
  BAS[ATNO][  4].a[  1] =         0.388000000000;     BAS[ATNO][  4].d[  1] =        -0.067821375829;
  BAS[ATNO][  4].a[  2] =         0.102000000000;     BAS[ATNO][  4].d[  2] =         1.033732338799;

  // Basis function   6 L = p
  InitBFNGauss(BAS[ATNO][  5]);
  BAS[ATNO][  5].l  = 1;
  BAS[ATNO][  5].ng = 3;
  BAS[ATNO][  5].a[  0] =         1.407000000000;     BAS[ATNO][  5].d[  0] =        -0.074398078944;
  BAS[ATNO][  5].a[  1] =         0.388000000000;     BAS[ATNO][  5].d[  1] =         1.298952442598;
  BAS[ATNO][  5].a[  2] =         0.102000000000;     BAS[ATNO][  5].d[  2] =        -0.722707482528;

  // Basis function   7 L = p
  InitBFNGauss(BAS[ATNO][  6]);
  BAS[ATNO][  6].l  = 1;
  BAS[ATNO][  6].ng = 3;
  BAS[ATNO][  6].a[  0] =         1.407000000000;     BAS[ATNO][  6].d[  0] =         1.324399283780;
  BAS[ATNO][  6].a[  1] =         0.388000000000;     BAS[ATNO][  6].d[  1] =        -0.970746239630;
  BAS[ATNO][  6].a[  2] =         0.102000000000;     BAS[ATNO][  6].d[  2] =         0.318170253410;

  // Basis function   8 L = d
  InitBFNGauss(BAS[ATNO][  7]);
  BAS[ATNO][  7].l  = 2;
  BAS[ATNO][  7].ng = 2;
  BAS[ATNO][  7].a[  0] =         1.057000000000;     BAS[ATNO][  7].d[  0] =        -0.061359144437;
  BAS[ATNO][  7].a[  1] =         0.247000000000;     BAS[ATNO][  7].d[  1] =         1.024601572659;

  // Basis function   9 L = d
  InitBFNGauss(BAS[ATNO][  8]);
  BAS[ATNO][  8].l  = 2;
  BAS[ATNO][  8].ng = 2;
  BAS[ATNO][  8].a[  0] =         1.057000000000;     BAS[ATNO][  8].d[  0] =         1.103648290308;
  BAS[ATNO][  8].a[  1] =         0.247000000000;     BAS[ATNO][  8].d[  1] =        -0.414724137965;

-------
TIMINGS
-------

Total SCF time: 0 days 0 hours 0 min 1 sec 

Total time                  ....       1.182 sec
Sum of individual times     ....       0.979 sec  ( 82.8%)

Fock matrix formation       ....       0.853 sec  ( 72.2%)
  XC integration            ....       0.057 sec  (  6.7% of F)
    Basis function eval.    ....       0.001 sec  (  1.8% of XC)
    Density eval.           ....       0.001 sec  (  2.5% of XC)
    XC-Functional eval.     ....       0.002 sec  (  3.0% of XC)
    XC-Potential eval.      ....       0.001 sec  (  1.3% of XC)
Diagonalization             ....       0.003 sec  (  0.2%)
Density matrix formation    ....       0.001 sec  (  0.1%)
Population analysis         ....       0.002 sec  (  0.2%)
Initial guess               ....       0.097 sec  (  8.2%)
Orbital Transformation      ....       0.000 sec  (  0.0%)
Orbital Orthonormalization  ....       0.000 sec  (  0.0%)
DIIS solution               ....       0.004 sec  (  0.3%)
Grid generation             ....       0.019 sec  (  1.6%)

-------------------------   --------------------
FINAL SINGLE POINT ENERGY        -0.500614517625
-------------------------   --------------------


                            ***************************************
                            *     ORCA property calculations      *
                            ***************************************

                                    ---------------------
                                    Active property flags
                                    ---------------------
   (+) Dipole Moment


------------------------------------------------------------------------------
                       ORCA ELECTRIC PROPERTIES CALCULATION
------------------------------------------------------------------------------

Dipole Moment Calculation                       ... on
Quadrupole Moment Calculation                   ... off
Polarizability Calculation                      ... off
GBWName                                         ... 71_H.gbw
Electron density file                           ... 71_H.scfp
The origin for moment calculation is the CENTER OF MASS  = ( 0.000000,  0.000000  0.000000)

-------------
DIPOLE MOMENT
-------------
                                X             Y             Z
Electronic contribution:      0.00000       0.00000       0.00000
Nuclear contribution   :      0.00000       0.00000       0.00000
                        -----------------------------------------
Total Dipole Moment    :      0.00000       0.00000       0.00000
                        -----------------------------------------
Magnitude (a.u.)       :      0.00000
Magnitude (Debye)      :      0.00000



--------------------
Rotational spectrum 
--------------------
 
Rotational constants in cm-1:     0.000000     0.000000     0.000000 
Rotational constants in MHz :     0.000000     0.000000     0.000000 

 Dipole components along the rotational axes: 
x,y,z [a.u.] :     0.000000     0.000000     0.000000 
x,y,z [Debye]:     0.000000     0.000000     0.000000 

 

Timings for individual modules:

Sum of individual times         ...        2.397 sec (=   0.040 min)
GTO integral calculation        ...        0.660 sec (=   0.011 min)  27.6 %
SCF iterations                  ...        1.736 sec (=   0.029 min)  72.4 %
                             ****ORCA TERMINATED NORMALLY****
TOTAL RUN TIME: 0 days 0 hours 0 minutes 2 seconds 838 msec
