
                                 *****************
                                 * O   R   C   A *
                                 *****************

           --- An Ab Initio, DFT and Semiempirical electronic structure package ---

                  #######################################################
                  #                        -***-                        #
                  #          Department of theory and spectroscopy      #
                  #               Directorship: Frank Neese             #
                  #        Max Planck Institute fuer Kohlenforschung    #
                  #                Kaiser Wilhelm Platz 1               #
                  #                 D-45470 Muelheim/Ruhr               #
                  #                      Germany                        #
                  #                                                     #
                  #                  All rights reserved                #
                  #                        -***-                        #
                  #######################################################


                         Program Version 4.2.0 -  RELEASE  -


 With contributions from (in alphabetic order):
   Daniel Aravena         : Magnetic Suceptibility
   Michael Atanasov       : Ab Initio Ligand Field Theory (pilot matlab implementation)
   Alexander A. Auer      : GIAO ZORA, VPT2
   Ute Becker             : Parallelization
   Giovanni Bistoni       : ED, misc. LED, open-shell LED, HFLED
   Martin Brehm           : Molecular dynamics
   Dmytro Bykov           : SCF Hessian
   Vijay G. Chilkuri      : MRCI spin determinant printing, contributions to CSF-ICE
   Dipayan Datta          : RHF DLPNO-CCSD density
   Achintya Kumar Dutta   : EOM-CC, STEOM-CC
   Dmitry Ganyushin       : Spin-Orbit,Spin-Spin,Magnetic field MRCI
   Miquel Garcia          : C-PCM Hessian, Gaussian charge scheme
   Yang Guo               : DLPNO-NEVPT2, CIM, IAO-localization
   Andreas Hansen         : Spin unrestricted coupled pair/coupled cluster methods
   Benjamin Helmich-Paris : CASSCF linear response (MC-RPA)
   Lee Huntington         : MR-EOM, pCC
   Robert Izsak           : Overlap fitted RIJCOSX, COSX-SCS-MP3, EOM
   Christian Kollmar      : KDIIS, OOCD, Brueckner-CCSD(T), CCSD density
   Simone Kossmann        : Meta GGA functionals, TD-DFT gradient, OOMP2, MP2 Hessian
   Martin Krupicka        : AUTO-CI
   Lucas Lang             : DCDCAS
   Dagmar Lenk            : GEPOL surface, SMD
   Dimitrios Liakos       : Extrapolation schemes; Compound Job, initial MDCI parallelization
   Dimitrios Manganas     : Further ROCIS development; embedding schemes
   Dimitrios Pantazis     : SARC Basis sets
   Taras Petrenko         : DFT Hessian,TD-DFT gradient, ASA, ECA, R-Raman, ABS, FL, XAS/XES, NRVS
   Peter Pinski           : DLPNO-MP2, DLPNO-MP2 Gradient
   Christoph Reimann      : Effective Core Potentials
   Marius Retegan         : Local ZFS, SOC
   Christoph Riplinger    : Optimizer, TS searches, QM/MM, DLPNO-CCSD(T), (RO)-DLPNO pert. Triples
   Tobias Risthaus        : Range-separated hybrids, TD-DFT gradient, RPA, STAB
   Michael Roemelt        : Original ROCIS implementation
   Masaaki Saitow         : Open-shell DLPNO-CCSD energy and density
   Barbara Sandhoefer     : DKH picture change effects
   Avijit Sen             : IP-ROCIS
   Kantharuban Sivalingam : CASSCF convergence, NEVPT2, FIC-MRCI
   Bernardo de Souza      : ESD, SOC TD-DFT
   Georgi Stoychev        : AutoAux, RI-MP2 NMR
   Willem Van den Heuvel  : Paramagnetic NMR
   Boris Wezisla          : Elementary symmetry handling
   Frank Wennmohs         : Technical directorship


 We gratefully acknowledge several colleagues who have allowed us to
 interface, adapt or use parts of their codes:
   Stefan Grimme, W. Hujo, H. Kruse,             : VdW corrections, initial TS optimization,
                  C. Bannwarth                     DFT functionals, gCP, sTDA/sTD-DF
   Ed Valeev, F. Pavosevic, A. Kumar             : LibInt (2-el integral package), F12 methods
   Garnet Chan, S. Sharma, J. Yang, R. Olivares  : DMRG
   Ulf Ekstrom                                   : XCFun DFT Library
   Mihaly Kallay                                 : mrcc  (arbitrary order and MRCC methods)
   Andreas Klamt, Michael Diedenhofen            : otool_cosmo (COSMO solvation model)
   Jiri Pittner, Ondrej Demel                    : Mk-CCSD
   Frank Weinhold                                : gennbo (NPA and NBO analysis)
   Christopher J. Cramer and Donald G. Truhlar   : smd solvation model
   Lars Goerigk                                  : TD-DFT with DH, B97 family of functionals
   V. Asgeirsson, H. Jonsson                     : NEB implementation
   FAccTs GmbH                                   : IRC, NEB, NEB-TS, Multilevel, MM, QM/MM, CI optimization
   S Lehtola, MJT Oliveira, MAL Marques          : LibXC Library


 Your calculation uses the libint2 library for the computation of 2-el integrals
 For citations please refer to: http://libint.valeyev.net

 Your ORCA version has been built with support for libXC version: 4.2.3
 For citations please refer to: https://tddft.org/programs/libxc/

 This ORCA versions uses:
   CBLAS   interface :  Fast vector & matrix operations
   LAPACKE interface :  Fast linear algebra routines
   SCALAPACK package :  Parallel linear algebra routines


Your calculation utilizes the DFT-NL dispersion correction.
Cite in your paper:
Vydrov, O. A.; Van Voorhis, T. J. Chem. Phys. 2010, 133, 244103
Hujo, W.; Grimme, S. J. Chem. Theory Comput. 2011, 7, 3866 
   

----- Orbital basis set information -----
Your calculation utilizes the basis: aug-cc-pVTZ 
    H, B-Ne : Obtained from the ccRepo (grant-hill.group.shef.ac.uk/ccrepo) Feb. 2017
              R. A. Kendall, T. H. Dunning, Jr., R. J. Harrison, J. Chem. Phys. 96, 6796 (1992)
         He : Obtained from the ccRepo (grant-hill.group.shef.ac.uk/ccrepo) Feb. 2017
              D. E. Woon, T. H. Dunning, Jr., J. Chem. Phys. 100, 2975 (1994)
  Li-Be, Na : Obtained from the ccRepo (grant-hill.group.shef.ac.uk/ccrepo) Feb. 2017
              B. P. Prascher, D. E. Woon, K. A. Peterson, T. H. Dunning, Jr., A. K. Wilson, Theor. Chem. Acc. 128, 69 (2011)
         Mg : Obtained from the Peterson Research Group Website (tyr0.chem.wsu.edu/~kipeters) Feb. 2017
              B. P. Prascher, D. E. Woon, K. A. Peterson, T. H. Dunning, Jr., A. K. Wilson, Theor. Chem. Acc. 128, 69 (2011)
      Al-Ar : Obtained from the ccRepo (grant-hill.group.shef.ac.uk/ccrepo) Feb. 2017
              D. E. Woon, T. H. Dunning, Jr., J. Chem. Phys. 98, 1358 (1993)
      Sc-Zn : Obtained from the ccRepo (grant-hill.group.shef.ac.uk/ccrepo) Feb. 2017
              N. B. Balabanov, K. A. Peterson, J. Chem. Phys. 123, 064107 (2005)
              N. B. Balabanov, K. A. Peterson, J. Chem. Phys. 125, 074110 (2006)
      Ga-Kr : Obtained from the ccRepo (grant-hill.group.shef.ac.uk/ccrepo) Feb. 2017
              A. K. Wilson, D. E. Woon, K. A. Peterson, T. H. Dunning, Jr., J. Chem. Phys. 110, 7667 (1999)
     Ag, Au : Obtained from the Peterson Research Group Website (tyr0.chem.wsu.edu/~kipeters) Feb. 2017
              K. A. Peterson, C. Puzzarini, Theor. Chem. Acc. 114, 283 (2005)

----- AuxJK basis set information -----
Your calculation utilizes the auxiliary basis: def2/JK
   H-Ba, Hf-Rn: F. Weigend, J. Comput. Chem. 29, 167 (2008).

================================================================================
                                        WARNINGS
                       Please study these warnings very carefully!
================================================================================


WARNING: your system is open-shell and RHF/RKS was chosen
  ===> : WILL SWITCH to UHF/UKS


INFO   : the flag for use of LIBINT has been found!

================================================================================
                                       INPUT FILE
================================================================================
NAME = 73_Cl.in
|  1> #
|  2> # 73_Cl wb97x-v/aug-cc-pvtz
|  3> #
|  4> ! wb97x-v aug-cc-pvtz def2/jk grid4 nofinalgrid
|  5> 
|  6> *xyz 0 2
|  7> Cl 0.0 0.0 0.0
|  8> *
|  9> 
| 10> %pal
| 11> nprocs 24
| 12> end
| 13> 
| 14> 
| 15>                          ****END OF INPUT****
================================================================================

                       ****************************
                       * Single Point Calculation *
                       ****************************

---------------------------------
CARTESIAN COORDINATES (ANGSTROEM)
---------------------------------
  Cl     0.000000    0.000000    0.000000

----------------------------
CARTESIAN COORDINATES (A.U.)
----------------------------
  NO LB      ZA    FRAG     MASS         X           Y           Z
   0 Cl   17.0000    0    35.453    0.000000    0.000000    0.000000

--------------------------------
INTERNAL COORDINATES (ANGSTROEM)
--------------------------------
 Cl     0   0   0     0.000000000000     0.00000000     0.00000000

---------------------------
INTERNAL COORDINATES (A.U.)
---------------------------
 Cl     0   0   0     0.000000000000     0.00000000     0.00000000

---------------------
BASIS SET INFORMATION
---------------------
There are 1 groups of distinct atoms

 Group   1 Type Cl  : 42s17p3d2f contracted to 6s5p3d2f pattern {131313111/77111/111/11}

Atom   0Cl   basis set group =>   1
----------------------------------
AUXILIARY/JK BASIS SET INFORMATION
----------------------------------
There are 1 groups of distinct atoms

 Group   1 Type Cl  : 16s12p10d4f1g contracted to 13s11p9d4f1g pattern {4111111111111/21111111111/211111111/1111/1}

Atom   0Cl   basis set group =>   1


           ************************************************************
           *        Program running with 24 parallel MPI-processes    *
           *              working on a common directory               *
           ************************************************************
------------------------------------------------------------------------------
                           ORCA GTO INTEGRAL CALCULATION
------------------------------------------------------------------------------

                         BASIS SET STATISTICS AND STARTUP INFO

 # of primitive gaussian shells          ...   64
 # of primitive gaussian functions       ...  122
 # of contracted shells                  ...   16
 # of contracted basis functions         ...   50
 Highest angular momentum                ...    3
 Maximum contraction depth               ...   13
 Integral package used                   ... LIBINT
 Integral threshhold            Thresh   ...  1.000e-10
 Primitive cut-off              TCut     ...  1.000e-11


------------------------------ INTEGRAL EVALUATION ----------------------------


 * One electron integrals 
 Pre-screening matrix                    ... done
 Shell pair data                         ... done (   0.000 sec)



           ************************************************************
           *        Program running with 24 parallel MPI-processes    *
           *              working on a common directory               *
           ************************************************************
-------------------------------------------------------------------------------
                                 ORCA SCF
-------------------------------------------------------------------------------

------------
SCF SETTINGS
------------
Hamiltonian:
 Density Functional     Method          .... DFT(GTOs)
 Exchange Functional    Exchange        .... WB97X-V
 Correlation Functional Correlation     .... WB97X-V
 Gradients option       PostSCFGGA      .... off
 Hybrid DFT is turned on
   Fraction HF Exchange ScalHFX         ....  0.167000
   Scaling of DF-GGA-X  ScalDFX         ....  0.000000
   Scaling of DF-GGA-C  ScalDFC         ....  1.000000
   Scaling of DF-LDA-C  ScalLDAC        ....  1.000000
   Perturbative correction              ....  0.000000
   Density functional embedding theory  .... OFF
 Long-range corrected/Screened/Range-Separated Hybrid DFT is turned on
   Amount of maximum screened exact exchange              ....  0.833000
   Range separation parameter mu (erf(mu*r12)/r12)        ....  0.300000
   NL short-range parameter             ....  6.000000
   NL long-range parameter              ....  0.010000


General Settings:
 Integral files         IntName         .... 73_Cl
 Hartree-Fock type      HFTyp           .... UHF
 Total Charge           Charge          ....    0
 Multiplicity           Mult            ....    2
 Number of Electrons    NEL             ....   17
 Basis Dimension        Dim             ....   50
 Nuclear Repulsion      ENuc            ....      0.0000000000 Eh

Convergence Acceleration:
 DIIS                   CNVDIIS         .... on
   Start iteration      DIISMaxIt       ....    12
   Startup error        DIISStart       ....  0.200000
   # of expansion vecs  DIISMaxEq       ....     5
   Bias factor          DIISBfac        ....   1.050
   Max. coefficient     DIISMaxC        ....  10.000
 Newton-Raphson         CNVNR           .... off
 SOSCF                  CNVSOSCF        .... off
 Level Shifting         CNVShift        .... on
   Level shift para.    LevelShift      ....    0.2500
   Turn off err/grad.   ShiftErr        ....    0.0010
 Zerner damping         CNVZerner       .... off
 Static damping         CNVDamp         .... on
   Fraction old density DampFac         ....    0.7000
   Max. Damping (<1)    DampMax         ....    0.9800
   Min. Damping (>=0)   DampMin         ....    0.0000
   Turn off err/grad.   DampErr         ....    0.1000
 Fernandez-Rico         CNVRico         .... off

SCF Procedure:
 Maximum # iterations   MaxIter         ....   125
 SCF integral mode      SCFMode         .... Direct
   Integral package                     .... LIBINT
 Reset frequency        DirectResetFreq ....    20
 Integral Threshold     Thresh          ....  1.000e-10 Eh
 Primitive CutOff       TCut            ....  1.000e-11 Eh

Convergence Tolerance:
 Convergence Check Mode ConvCheckMode   .... Total+1el-Energy
 Convergence forced     ConvForced      .... 0
 Energy Change          TolE            ....  1.000e-06 Eh
 1-El. energy change                    ....  1.000e-03 Eh
 DIIS Error             TolErr          ....  1.000e-06


Diagonalization of the overlap matrix:
Smallest eigenvalue                        ... 1.225e-02
Time for diagonalization                   ...    0.018 sec
Threshold for overlap eigenvalues          ... 1.000e-08
Number of eigenvalues below threshold      ... 0
Time for construction of square roots      ...    0.001 sec
Total time needed                          ...    0.018 sec

-------------------
DFT GRID GENERATION
-------------------

General Integration Accuracy     IntAcc      ...  4.670
Radial Grid Type                 RadialGrid  ... Gauss-Chebyshev
Angular Grid (max. acc.)         AngularGrid ... Lebedev-302
Angular grid pruning method      GridPruning ... 3 (G Style)
Weight generation scheme         WeightScheme... Becke
Basis function cutoff            BFCut       ...    1.0000e-10
Integration weight cutoff        WCut        ...    1.0000e-14
Grids for H and He will be reduced by one unit

# of grid points (after initial pruning)     ...   6738 (   0.0 sec)
# of grid points (after weights+screening)   ...   6738 (   0.0 sec)
Grid point division into batches done        ...    0.0 sec
Reduced shell lists constructed in    0.0 sec

Total number of grid points                  ...     6738
Total number of batches                      ...      106
Average number of points per batch           ...       63
Average number of grid points per atom       ...     6738
Average number of shells per batch           ...     3.33 (20.83%)
Average number of basis functions per batch  ...    10.00 (20.00%)
Average number of large shells per batch     ...     1.67 (50.00%)
Average number of large basis fcns per batch ...     3.33 (33.33%)
Maximum spatial batch extension              ...  17.78, 17.78, 17.78 au
Average spatial batch extension              ...   0.72,  0.72,  0.74 au

Time for grid setup =    0.064 sec

------------------------------
INITIAL GUESS: MODEL POTENTIAL
------------------------------
Loading Hartree-Fock densities                     ... done
Calculating cut-offs                               ... done
Setting up the integral package                    ... done
Initializing the effective Hamiltonian             ... done
Starting the Coulomb interaction                   ... done (   0.0 sec)
Reading the grid                                   ... done
Mapping shells                                     ... done
Starting the XC term evaluation                    ... done (   0.0 sec)
  promolecular density results
     # of electrons  =     17.000000665
     EX              =    -20.429383251
     EC              =     -0.883427122
     EX+EC           =    -21.312810374
Transforming the Hamiltonian                       ... done (   0.0 sec)
Diagonalizing the Hamiltonian                      ... done (   0.0 sec)
Back transforming the eigenvectors                 ... done (   0.0 sec)
Now organizing SCF variables                       ... done
                      ------------------
                      INITIAL GUESS DONE (   0.2 sec)
                      ------------------
--------------
SCF ITERATIONS
--------------
ITER       Energy         Delta-E        Max-DP      RMS-DP      [F,P]     Damp
               ***  Starting incremental Fock matrix formation  ***
  0   -460.0550460271   0.000000000000 0.02448021  0.00130808  0.2254514 0.7000
  1   -460.0921040261  -0.037057998973 0.01916822  0.00101084  0.1361923 0.7000
                               ***Turning on DIIS***
  2   -460.1147463851  -0.022642359034 0.05068892  0.00224806  0.0853955 0.0000
  3   -460.1573537645  -0.042607379421 0.01467811  0.00072645  0.0363533 0.0000
  4   -460.1603922335  -0.003038468967 0.00758548  0.00026897  0.0050400 0.0000
  5   -460.1605618963  -0.000169662783 0.00173348  0.00008044  0.0018447 0.0000
  6   -460.1605825390  -0.000020642716 0.00121747  0.00004831  0.0008003 0.0000
  7   -460.1605865057  -0.000003966667 0.00007237  0.00000238  0.0000503 0.0000
                 **** Energy Check signals convergence ****

               *****************************************************
               *                     SUCCESS                       *
               *           SCF CONVERGED AFTER   8 CYCLES          *
               *****************************************************


Setting up the DFT-NL grid :

General Integration Accuracy     IntAcc      ...  4.340
Radial Grid Type                 RadialGrid  ... Gauss-Chebyshev
Angular Grid (max. acc.)         AngularGrid ... Lebedev-110
Angular grid pruning method      GridPruning ... 3 (G Style)
Weight generation scheme         WeightScheme... Becke
Basis function cutoff            BFCut       ...    1.0000e-10
Integration weight cutoff        WCut        ...    1.0000e-14
Grids for H and He will be reduced by one unit

# of grid points (after initial pruning)     ...   1844 (   0.0 sec)
# of grid points (after weights+screening)   ...   1844 (   0.0 sec)
Grid point division into batches done        ...    0.0 sec
Reduced shell lists constructed in    0.0 sec

Total number of grid points                  ...     1844
Total number of batches                      ...       29
Average number of points per batch           ...       63
Average number of grid points per atom       ...     1844
Average number of shells per batch           ...     9.33 (58.33%)
Average number of basis functions per batch  ...    30.67 (61.33%)
Average number of large shells per batch     ...     6.67 (71.43%)
Average number of large basis fcns per batch ...    24.00 (78.26%)
Maximum spatial batch extension              ...  16.21, 29.83, 29.83 au
Average spatial batch extension              ...   1.12,  2.06,  2.06 au

Final grid set up in    0.0 sec

-------------------------------------------------------------------------------
                         DFT-NL dispersion correction                          
-------------------------------------------------------------------------------

SC Energy -460.160586525 
NL    Energy 0.072933839 
SC+NL Energy -460.087652686 
NL done in    0.0 sec
-------------------------------------------------------------------------------

----------------
TOTAL SCF ENERGY
----------------

Total Energy       :         -460.08765269 Eh          -12519.62151 eV

Components:
Nuclear Repulsion  :            0.00000000 Eh               0.00000 eV
Electronic Energy  :         -460.08765269 Eh          -12519.62151 eV
One Electron Energy:         -634.84700437 Eh          -17275.06524 eV
Two Electron Energy:          174.75935168 Eh            4755.44372 eV

Virial components:
Potential Energy   :         -918.99350332 Eh          -25007.08456 eV
Kinetic Energy     :          458.90585063 Eh           12487.46305 eV
Virial Ratio       :            2.00257526


DFT components:
N(Alpha)           :        8.999999561987 electrons
N(Beta)            :        7.999999562870 electrons
N(Total)           :       16.999999124856 electrons
E(X)               :      -20.435659267058 Eh       
E(C)               :       -0.874447771326 Eh       
NL Energy, E(C,NL) :        0.072933838895 Eh       
E(XC)              :      -21.237173199488 Eh       
DFET-embed. en.    :        0.000000000000 Eh       

---------------
SCF CONVERGENCE
---------------

  Last Energy change         ...   -1.9245e-08  Tolerance :   1.0000e-06
  Last MAX-Density change    ...    1.3579e-05  Tolerance :   1.0000e-05
  Last RMS-Density change    ...    5.9136e-07  Tolerance :   1.0000e-06
  Last DIIS Error            ...    8.1130e-06  Tolerance :   1.0000e-06

             **** THE GBW FILE WAS UPDATED (73_Cl.gbw) ****
             **** DENSITY FILE WAS UPDATED (73_Cl.scfp) ****
             **** ENERGY FILE WAS UPDATED (73_Cl.en.tmp) ****
----------------------
UHF SPIN CONTAMINATION
----------------------

Warning: in a DFT calculation there is little theoretical justification to 
         calculate <S**2> as in Hartree-Fock theory. We will do it anyways
         but you should keep in mind that the values have only limited relevance

Expectation value of <S**2>     :     0.752881
Ideal value S*(S+1) for S=0.5   :     0.750000
Deviation                       :     0.002881

             **** THE GBW FILE WAS UPDATED (73_Cl.gbw) ****
             **** DENSITY FILE WAS UPDATED (73_Cl.scfp) ****
----------------
ORBITAL ENERGIES
----------------
                 SPIN UP ORBITALS
  NO   OCC          E(Eh)            E(eV) 
   0   1.0000    -101.604482     -2764.7985 
   1   1.0000      -9.617069      -261.6938 
   2   1.0000      -7.384073      -200.9308 
   3   1.0000      -7.361390      -200.3136 
   4   1.0000      -7.361390      -200.3136 
   5   1.0000      -0.978151       -26.6168 
   6   1.0000      -0.518054       -14.0970 
   7   1.0000      -0.465486       -12.6665 
   8   1.0000      -0.465486       -12.6665 
   9   0.0000       0.102486         2.7888 
  10   0.0000       0.107255         2.9186 
  11   0.0000       0.109740         2.9862 
  12   0.0000       0.109740         2.9862 
  13   0.0000       0.285217         7.7612 
  14   0.0000       0.289893         7.8884 
  15   0.0000       0.289893         7.8884 
  16   0.0000       0.305035         8.3004 
  17   0.0000       0.305035         8.3004 
  18   0.0000       0.539686        14.6856 
  19   0.0000       0.561479        15.2786 
  20   0.0000       0.561479        15.2786 
  21   0.0000       0.759350        20.6630 
  22   0.0000       0.768303        20.9066 
  23   0.0000       0.768303        20.9066 
  24   0.0000       0.797656        21.7053 
  25   0.0000       0.797656        21.7053 
  26   0.0000       0.802416        21.8348 
  27   0.0000       1.062249        28.9053 
  28   0.0000       1.065205        28.9857 
  29   0.0000       1.065205        28.9857 
  30   0.0000       1.073799        29.2196 
  31   0.0000       1.073799        29.2196 
  32   0.0000       1.088877        29.6299 
  33   0.0000       1.088877        29.6299 
  34   0.0000       2.229199        60.6596 
  35   0.0000       2.238808        60.9211 
  36   0.0000       2.238808        60.9211 
  37   0.0000       2.270132        61.7734 
  38   0.0000       2.270132        61.7734 
  39   0.0000       2.359834        64.2144 
  40   0.0000       2.400338        65.3165 
  41   0.0000       2.400338        65.3165 
  42   0.0000       2.760553        75.1185 
  43   0.0000       2.766125        75.2701 
  44   0.0000       2.766125        75.2701 
  45   0.0000       2.782901        75.7266 
  46   0.0000       2.782901        75.7266 
  47   0.0000       2.811701        76.5103 
  48   0.0000       2.811701        76.5103 
  49   0.0000       4.700970       127.9199 

                 SPIN DOWN ORBITALS
  NO   OCC          E(Eh)            E(eV) 
   0   1.0000    -101.598498     -2764.6357 
   1   1.0000      -9.611663      -261.5466 
   2   1.0000      -7.364446      -200.3968 
   3   1.0000      -7.357571      -200.2097 
   4   1.0000      -7.357571      -200.2097 
   5   1.0000      -0.920354       -25.0441 
   6   1.0000      -0.449839       -12.2407 
   7   1.0000      -0.449839       -12.2407 
   8   0.0000      -0.150242        -4.0883 
   9   0.0000       0.110691         3.0120 
  10   0.0000       0.110691         3.0120 
  11   0.0000       0.111152         3.0246 
  12   0.0000       0.112015         3.0481 
  13   0.0000       0.305950         8.3253 
  14   0.0000       0.305950         8.3253 
  15   0.0000       0.306347         8.3361 
  16   0.0000       0.306347         8.3361 
  17   0.0000       0.307370         8.3640 
  18   0.0000       0.564573        15.3628 
  19   0.0000       0.565615        15.3912 
  20   0.0000       0.565615        15.3912 
  21   0.0000       0.803838        21.8735 
  22   0.0000       0.803838        21.8735 
  23   0.0000       0.804839        21.9008 
  24   0.0000       0.804840        21.9008 
  25   0.0000       0.808007        21.9870 
  26   0.0000       0.817295        22.2397 
  27   0.0000       1.073298        29.2059 
  28   0.0000       1.076804        29.3013 
  29   0.0000       1.076805        29.3013 
  30   0.0000       1.081787        29.4369 
  31   0.0000       1.081787        29.4369 
  32   0.0000       1.089137        29.6369 
  33   0.0000       1.089137        29.6369 
  34   0.0000       2.270486        61.7831 
  35   0.0000       2.270486        61.7831 
  36   0.0000       2.271084        61.7993 
  37   0.0000       2.276362        61.9430 
  38   0.0000       2.276362        61.9430 
  39   0.0000       2.407219        65.5038 
  40   0.0000       2.410111        65.5825 
  41   0.0000       2.410111        65.5825 
  42   0.0000       2.810044        76.4652 
  43   0.0000       2.810309        76.4724 
  44   0.0000       2.810309        76.4724 
  45   0.0000       2.810743        76.4842 
  46   0.0000       2.810743        76.4842 
  47   0.0000       2.816355        76.6369 
  48   0.0000       2.816355        76.6369 
  49   0.0000       4.716842       128.3518 

                    ********************************
                    * MULLIKEN POPULATION ANALYSIS *
                    ********************************

--------------------------------------------
MULLIKEN ATOMIC CHARGES AND SPIN POPULATIONS
--------------------------------------------
   0 Cl:    0.000000    1.000000
Sum of atomic charges         :    0.0000000
Sum of atomic spin populations:    1.0000000

-----------------------------------------------------
MULLIKEN REDUCED ORBITAL CHARGES AND SPIN POPULATIONS
-----------------------------------------------------
CHARGE
  0 Cls       :     5.998726  s :     5.998726
      pz      :     3.996490  p :    10.999309
      px      :     3.008592
      py      :     3.994227
      dz2     :     0.000312  d :     0.001274
      dxz     :     0.000013
      dyz     :     0.000000
      dx2y2   :     0.000928
      dxy     :     0.000021
      f0      :     0.000077  f :     0.000691
      f+1     :     0.000106
      f-1     :     0.000013
      f+2     :     0.000126
      f-2     :     0.000005
      f+3     :     0.000174
      f-3     :     0.000191

SPIN
  0 Cls       :    -0.000816  s :    -0.000816
      pz      :     0.003109  p :     0.999332
      px      :     0.990851
      py      :     0.005371
      dz2     :     0.000200  d :     0.000816
      dxz     :     0.000008
      dyz     :     0.000000
      dx2y2   :     0.000595
      dxy     :     0.000014
      f0      :     0.000072  f :     0.000668
      f+1     :     0.000105
      f-1     :     0.000012
      f+2     :     0.000119
      f-2     :     0.000004
      f+3     :     0.000174
      f-3     :     0.000181


                     *******************************
                     * LOEWDIN POPULATION ANALYSIS *
                     *******************************

-------------------------------------------
LOEWDIN ATOMIC CHARGES AND SPIN POPULATIONS
-------------------------------------------
   0 Cl:   -0.000000    1.000000

----------------------------------------------------
LOEWDIN REDUCED ORBITAL CHARGES AND SPIN POPULATIONS
----------------------------------------------------
CHARGE
  0 Cls       :     5.998726  s :     5.998726
      pz      :     3.996490  p :    10.999309
      px      :     3.008592
      py      :     3.994227
      dz2     :     0.000312  d :     0.001274
      dxz     :     0.000013
      dyz     :     0.000000
      dx2y2   :     0.000928
      dxy     :     0.000021
      f0      :     0.000077  f :     0.000691
      f+1     :     0.000106
      f-1     :     0.000013
      f+2     :     0.000126
      f-2     :     0.000005
      f+3     :     0.000174
      f-3     :     0.000191

SPIN
  0 Cls       :    -0.000816  s :    -0.000816
      pz      :     0.003109  p :     0.999332
      px      :     0.990851
      py      :     0.005371
      dz2     :     0.000200  d :     0.000816
      dxz     :     0.000008
      dyz     :     0.000000
      dx2y2   :     0.000595
      dxy     :     0.000014
      f0      :     0.000072  f :     0.000668
      f+1     :     0.000105
      f-1     :     0.000012
      f+2     :     0.000119
      f-2     :     0.000004
      f+3     :     0.000174
      f-3     :     0.000181


                      *****************************
                      * MAYER POPULATION ANALYSIS *
                      *****************************

  NA   - Mulliken gross atomic population
  ZA   - Total nuclear charge
  QA   - Mulliken gross atomic charge
  VA   - Mayer's total valence
  BVA  - Mayer's bonded valence
  FA   - Mayer's free valence

  ATOM       NA         ZA         QA         VA         BVA        FA
  0 Cl    17.0000    17.0000     0.0000     1.0058     0.0000     1.0058

  Mayer bond orders larger than 0.100000


-------
TIMINGS
-------

Total SCF time: 0 days 0 hours 0 min 2 sec 

Total time                  ....       2.381 sec
Sum of individual times     ....       2.158 sec  ( 90.6%)

Fock matrix formation       ....       1.975 sec  ( 83.0%)
  XC integration            ....       0.064 sec  (  3.3% of F)
    Basis function eval.    ....       0.006 sec  ( 10.1% of XC)
    Density eval.           ....       0.005 sec  (  7.6% of XC)
    XC-Functional eval.     ....       0.005 sec  (  7.0% of XC)
    XC-Potential eval.      ....       0.005 sec  (  7.8% of XC)
Diagonalization             ....       0.008 sec  (  0.3%)
Density matrix formation    ....       0.003 sec  (  0.1%)
Population analysis         ....       0.003 sec  (  0.1%)
Initial guess               ....       0.093 sec  (  3.9%)
Orbital Transformation      ....       0.000 sec  (  0.0%)
Orbital Orthonormalization  ....       0.000 sec  (  0.0%)
DIIS solution               ....       0.005 sec  (  0.2%)
Grid generation             ....       0.071 sec  (  3.0%)

-------------------------   --------------------
FINAL SINGLE POINT ENERGY      -460.087652686011
-------------------------   --------------------


                            ***************************************
                            *     ORCA property calculations      *
                            ***************************************

                                    ---------------------
                                    Active property flags
                                    ---------------------
   (+) Dipole Moment


------------------------------------------------------------------------------
                       ORCA ELECTRIC PROPERTIES CALCULATION
------------------------------------------------------------------------------

Dipole Moment Calculation                       ... on
Quadrupole Moment Calculation                   ... off
Polarizability Calculation                      ... off
GBWName                                         ... 73_Cl.gbw
Electron density file                           ... 73_Cl.scfp
The origin for moment calculation is the CENTER OF MASS  = ( 0.000000,  0.000000  0.000000)

-------------
DIPOLE MOMENT
-------------
                                X             Y             Z
Electronic contribution:      0.00000       0.00000       0.00000
Nuclear contribution   :      0.00000       0.00000       0.00000
                        -----------------------------------------
Total Dipole Moment    :      0.00000       0.00000       0.00000
                        -----------------------------------------
Magnitude (a.u.)       :      0.00000
Magnitude (Debye)      :      0.00000



--------------------
Rotational spectrum 
--------------------
 
Rotational constants in cm-1:     0.000000     0.000000     0.000000 
Rotational constants in MHz :     0.000000     0.000000     0.000000 

 Dipole components along the rotational axes: 
x,y,z [a.u.] :     0.000000     0.000000     0.000000 
x,y,z [Debye]:     0.000000     0.000000     0.000000 

 

Timings for individual modules:

Sum of individual times         ...        3.815 sec (=   0.064 min)
GTO integral calculation        ...        0.786 sec (=   0.013 min)  20.6 %
SCF iterations                  ...        3.029 sec (=   0.050 min)  79.4 %
                             ****ORCA TERMINATED NORMALLY****
TOTAL RUN TIME: 0 days 0 hours 0 minutes 4 seconds 305 msec
