
                                 *****************
                                 * O   R   C   A *
                                 *****************

           --- An Ab Initio, DFT and Semiempirical electronic structure package ---

                  #######################################################
                  #                        -***-                        #
                  #          Department of theory and spectroscopy      #
                  #               Directorship: Frank Neese             #
                  #        Max Planck Institute fuer Kohlenforschung    #
                  #                Kaiser Wilhelm Platz 1               #
                  #                 D-45470 Muelheim/Ruhr               #
                  #                      Germany                        #
                  #                                                     #
                  #                  All rights reserved                #
                  #                        -***-                        #
                  #######################################################


                         Program Version 4.2.0 -  RELEASE  -


 With contributions from (in alphabetic order):
   Daniel Aravena         : Magnetic Suceptibility
   Michael Atanasov       : Ab Initio Ligand Field Theory (pilot matlab implementation)
   Alexander A. Auer      : GIAO ZORA, VPT2
   Ute Becker             : Parallelization
   Giovanni Bistoni       : ED, misc. LED, open-shell LED, HFLED
   Martin Brehm           : Molecular dynamics
   Dmytro Bykov           : SCF Hessian
   Vijay G. Chilkuri      : MRCI spin determinant printing, contributions to CSF-ICE
   Dipayan Datta          : RHF DLPNO-CCSD density
   Achintya Kumar Dutta   : EOM-CC, STEOM-CC
   Dmitry Ganyushin       : Spin-Orbit,Spin-Spin,Magnetic field MRCI
   Miquel Garcia          : C-PCM Hessian, Gaussian charge scheme
   Yang Guo               : DLPNO-NEVPT2, CIM, IAO-localization
   Andreas Hansen         : Spin unrestricted coupled pair/coupled cluster methods
   Benjamin Helmich-Paris : CASSCF linear response (MC-RPA)
   Lee Huntington         : MR-EOM, pCC
   Robert Izsak           : Overlap fitted RIJCOSX, COSX-SCS-MP3, EOM
   Christian Kollmar      : KDIIS, OOCD, Brueckner-CCSD(T), CCSD density
   Simone Kossmann        : Meta GGA functionals, TD-DFT gradient, OOMP2, MP2 Hessian
   Martin Krupicka        : AUTO-CI
   Lucas Lang             : DCDCAS
   Dagmar Lenk            : GEPOL surface, SMD
   Dimitrios Liakos       : Extrapolation schemes; Compound Job, initial MDCI parallelization
   Dimitrios Manganas     : Further ROCIS development; embedding schemes
   Dimitrios Pantazis     : SARC Basis sets
   Taras Petrenko         : DFT Hessian,TD-DFT gradient, ASA, ECA, R-Raman, ABS, FL, XAS/XES, NRVS
   Peter Pinski           : DLPNO-MP2, DLPNO-MP2 Gradient
   Christoph Reimann      : Effective Core Potentials
   Marius Retegan         : Local ZFS, SOC
   Christoph Riplinger    : Optimizer, TS searches, QM/MM, DLPNO-CCSD(T), (RO)-DLPNO pert. Triples
   Tobias Risthaus        : Range-separated hybrids, TD-DFT gradient, RPA, STAB
   Michael Roemelt        : Original ROCIS implementation
   Masaaki Saitow         : Open-shell DLPNO-CCSD energy and density
   Barbara Sandhoefer     : DKH picture change effects
   Avijit Sen             : IP-ROCIS
   Kantharuban Sivalingam : CASSCF convergence, NEVPT2, FIC-MRCI
   Bernardo de Souza      : ESD, SOC TD-DFT
   Georgi Stoychev        : AutoAux, RI-MP2 NMR
   Willem Van den Heuvel  : Paramagnetic NMR
   Boris Wezisla          : Elementary symmetry handling
   Frank Wennmohs         : Technical directorship


 We gratefully acknowledge several colleagues who have allowed us to
 interface, adapt or use parts of their codes:
   Stefan Grimme, W. Hujo, H. Kruse,             : VdW corrections, initial TS optimization,
                  C. Bannwarth                     DFT functionals, gCP, sTDA/sTD-DF
   Ed Valeev, F. Pavosevic, A. Kumar             : LibInt (2-el integral package), F12 methods
   Garnet Chan, S. Sharma, J. Yang, R. Olivares  : DMRG
   Ulf Ekstrom                                   : XCFun DFT Library
   Mihaly Kallay                                 : mrcc  (arbitrary order and MRCC methods)
   Andreas Klamt, Michael Diedenhofen            : otool_cosmo (COSMO solvation model)
   Jiri Pittner, Ondrej Demel                    : Mk-CCSD
   Frank Weinhold                                : gennbo (NPA and NBO analysis)
   Christopher J. Cramer and Donald G. Truhlar   : smd solvation model
   Lars Goerigk                                  : TD-DFT with DH, B97 family of functionals
   V. Asgeirsson, H. Jonsson                     : NEB implementation
   FAccTs GmbH                                   : IRC, NEB, NEB-TS, Multilevel, MM, QM/MM, CI optimization
   S Lehtola, MJT Oliveira, MAL Marques          : LibXC Library


 Your calculation uses the libint2 library for the computation of 2-el integrals
 For citations please refer to: http://libint.valeyev.net

 Your ORCA version has been built with support for libXC version: 4.2.3
 For citations please refer to: https://tddft.org/programs/libxc/

 This ORCA versions uses:
   CBLAS   interface :  Fast vector & matrix operations
   LAPACKE interface :  Fast linear algebra routines
   SCALAPACK package :  Parallel linear algebra routines


Your calculation utilizes the DFT-NL dispersion correction.
Cite in your paper:
Vydrov, O. A.; Van Voorhis, T. J. Chem. Phys. 2010, 133, 244103
Hujo, W.; Grimme, S. J. Chem. Theory Comput. 2011, 7, 3866 
   

----- Orbital basis set information -----
Your calculation utilizes the basis: aug-cc-pVTZ 
    H, B-Ne : Obtained from the ccRepo (grant-hill.group.shef.ac.uk/ccrepo) Feb. 2017
              R. A. Kendall, T. H. Dunning, Jr., R. J. Harrison, J. Chem. Phys. 96, 6796 (1992)
         He : Obtained from the ccRepo (grant-hill.group.shef.ac.uk/ccrepo) Feb. 2017
              D. E. Woon, T. H. Dunning, Jr., J. Chem. Phys. 100, 2975 (1994)
  Li-Be, Na : Obtained from the ccRepo (grant-hill.group.shef.ac.uk/ccrepo) Feb. 2017
              B. P. Prascher, D. E. Woon, K. A. Peterson, T. H. Dunning, Jr., A. K. Wilson, Theor. Chem. Acc. 128, 69 (2011)
         Mg : Obtained from the Peterson Research Group Website (tyr0.chem.wsu.edu/~kipeters) Feb. 2017
              B. P. Prascher, D. E. Woon, K. A. Peterson, T. H. Dunning, Jr., A. K. Wilson, Theor. Chem. Acc. 128, 69 (2011)
      Al-Ar : Obtained from the ccRepo (grant-hill.group.shef.ac.uk/ccrepo) Feb. 2017
              D. E. Woon, T. H. Dunning, Jr., J. Chem. Phys. 98, 1358 (1993)
      Sc-Zn : Obtained from the ccRepo (grant-hill.group.shef.ac.uk/ccrepo) Feb. 2017
              N. B. Balabanov, K. A. Peterson, J. Chem. Phys. 123, 064107 (2005)
              N. B. Balabanov, K. A. Peterson, J. Chem. Phys. 125, 074110 (2006)
      Ga-Kr : Obtained from the ccRepo (grant-hill.group.shef.ac.uk/ccrepo) Feb. 2017
              A. K. Wilson, D. E. Woon, K. A. Peterson, T. H. Dunning, Jr., J. Chem. Phys. 110, 7667 (1999)
     Ag, Au : Obtained from the Peterson Research Group Website (tyr0.chem.wsu.edu/~kipeters) Feb. 2017
              K. A. Peterson, C. Puzzarini, Theor. Chem. Acc. 114, 283 (2005)

----- AuxJK basis set information -----
Your calculation utilizes the auxiliary basis: def2/JK
   H-Ba, Hf-Rn: F. Weigend, J. Comput. Chem. 29, 167 (2008).

================================================================================
                                        WARNINGS
                       Please study these warnings very carefully!
================================================================================


WARNING: your system is open-shell and RHF/RKS was chosen
  ===> : WILL SWITCH to UHF/UKS


INFO   : the flag for use of LIBINT has been found!

================================================================================
                                       INPUT FILE
================================================================================
NAME = 74_Br.in
|  1> #
|  2> # 74_Br wb97x-v/aug-cc-pvtz
|  3> #
|  4> ! wb97x-v aug-cc-pvtz def2/jk grid4 nofinalgrid
|  5> 
|  6> *xyz 0 2
|  7> Br 0.0 0.0 0.0
|  8> *
|  9> 
| 10> %pal
| 11> nprocs 24
| 12> end
| 13> 
| 14> 
| 15>                          ****END OF INPUT****
================================================================================

                       ****************************
                       * Single Point Calculation *
                       ****************************

---------------------------------
CARTESIAN COORDINATES (ANGSTROEM)
---------------------------------
  Br     0.000000    0.000000    0.000000

----------------------------
CARTESIAN COORDINATES (A.U.)
----------------------------
  NO LB      ZA    FRAG     MASS         X           Y           Z
   0 Br   35.0000    0    79.900    0.000000    0.000000    0.000000

--------------------------------
INTERNAL COORDINATES (ANGSTROEM)
--------------------------------
 Br     0   0   0     0.000000000000     0.00000000     0.00000000

---------------------------
INTERNAL COORDINATES (A.U.)
---------------------------
 Br     0   0   0     0.000000000000     0.00000000     0.00000000

---------------------
BASIS SET INFORMATION
---------------------
There are 1 groups of distinct atoms

 Group   1 Type Br  : 75s36p10d2f contracted to 7s6p4d2f pattern {18181818111/111111111/7111/11}

Atom   0Br   basis set group =>   1
----------------------------------
AUXILIARY/JK BASIS SET INFORMATION
----------------------------------
There are 1 groups of distinct atoms

 Group   1 Type Br  : 20s14p13d10f7g3h contracted to 17s13p12d9f6g3h pattern {41111111111111111/2111111111111/211111111111/211111111/211111/111}

Atom   0Br   basis set group =>   1


           ************************************************************
           *        Program running with 24 parallel MPI-processes    *
           *              working on a common directory               *
           ************************************************************
------------------------------------------------------------------------------
                           ORCA GTO INTEGRAL CALCULATION
------------------------------------------------------------------------------

                         BASIS SET STATISTICS AND STARTUP INFO

 # of primitive gaussian shells          ...  123
 # of primitive gaussian functions       ...  247
 # of contracted shells                  ...   19
 # of contracted basis functions         ...   59
 Highest angular momentum                ...    3
 Maximum contraction depth               ...   18
 Integral package used                   ... LIBINT
 Integral threshhold            Thresh   ...  1.000e-10
 Primitive cut-off              TCut     ...  1.000e-11


------------------------------ INTEGRAL EVALUATION ----------------------------


 * One electron integrals 
 Pre-screening matrix                    ... done
 Shell pair data                         ... done (   0.000 sec)



           ************************************************************
           *        Program running with 24 parallel MPI-processes    *
           *              working on a common directory               *
           ************************************************************
-------------------------------------------------------------------------------
                                 ORCA SCF
-------------------------------------------------------------------------------

------------
SCF SETTINGS
------------
Hamiltonian:
 Density Functional     Method          .... DFT(GTOs)
 Exchange Functional    Exchange        .... WB97X-V
 Correlation Functional Correlation     .... WB97X-V
 Gradients option       PostSCFGGA      .... off
 Hybrid DFT is turned on
   Fraction HF Exchange ScalHFX         ....  0.167000
   Scaling of DF-GGA-X  ScalDFX         ....  0.000000
   Scaling of DF-GGA-C  ScalDFC         ....  1.000000
   Scaling of DF-LDA-C  ScalLDAC        ....  1.000000
   Perturbative correction              ....  0.000000
   Density functional embedding theory  .... OFF
 Long-range corrected/Screened/Range-Separated Hybrid DFT is turned on
   Amount of maximum screened exact exchange              ....  0.833000
   Range separation parameter mu (erf(mu*r12)/r12)        ....  0.300000
   NL short-range parameter             ....  6.000000
   NL long-range parameter              ....  0.010000


General Settings:
 Integral files         IntName         .... 74_Br
 Hartree-Fock type      HFTyp           .... UHF
 Total Charge           Charge          ....    0
 Multiplicity           Mult            ....    2
 Number of Electrons    NEL             ....   35
 Basis Dimension        Dim             ....   59
 Nuclear Repulsion      ENuc            ....      0.0000000000 Eh

Convergence Acceleration:
 DIIS                   CNVDIIS         .... on
   Start iteration      DIISMaxIt       ....    12
   Startup error        DIISStart       ....  0.200000
   # of expansion vecs  DIISMaxEq       ....     5
   Bias factor          DIISBfac        ....   1.050
   Max. coefficient     DIISMaxC        ....  10.000
 Newton-Raphson         CNVNR           .... off
 SOSCF                  CNVSOSCF        .... off
 Level Shifting         CNVShift        .... on
   Level shift para.    LevelShift      ....    0.2500
   Turn off err/grad.   ShiftErr        ....    0.0010
 Zerner damping         CNVZerner       .... off
 Static damping         CNVDamp         .... on
   Fraction old density DampFac         ....    0.7000
   Max. Damping (<1)    DampMax         ....    0.9800
   Min. Damping (>=0)   DampMin         ....    0.0000
   Turn off err/grad.   DampErr         ....    0.1000
 Fernandez-Rico         CNVRico         .... off

SCF Procedure:
 Maximum # iterations   MaxIter         ....   125
 SCF integral mode      SCFMode         .... Direct
   Integral package                     .... LIBINT
 Reset frequency        DirectResetFreq ....    20
 Integral Threshold     Thresh          ....  1.000e-10 Eh
 Primitive CutOff       TCut            ....  1.000e-11 Eh

Convergence Tolerance:
 Convergence Check Mode ConvCheckMode   .... Total+1el-Energy
 Convergence forced     ConvForced      .... 0
 Energy Change          TolE            ....  1.000e-06 Eh
 1-El. energy change                    ....  1.000e-03 Eh
 DIIS Error             TolErr          ....  1.000e-06


Diagonalization of the overlap matrix:
Smallest eigenvalue                        ... 7.625e-03
Time for diagonalization                   ...    0.002 sec
Threshold for overlap eigenvalues          ... 1.000e-08
Number of eigenvalues below threshold      ... 0
Time for construction of square roots      ...    0.001 sec
Total time needed                          ...    0.003 sec

-------------------
DFT GRID GENERATION
-------------------

General Integration Accuracy     IntAcc      ...  4.670
Radial Grid Type                 RadialGrid  ... Gauss-Chebyshev
Angular Grid (max. acc.)         AngularGrid ... Lebedev-302
Angular grid pruning method      GridPruning ... 3 (G Style)
Weight generation scheme         WeightScheme... Becke
Basis function cutoff            BFCut       ...    1.0000e-10
Integration weight cutoff        WCut        ...    1.0000e-14
Grids for H and He will be reduced by one unit

# of grid points (after initial pruning)     ...   9616 (   0.0 sec)
# of grid points (after weights+screening)   ...   9616 (   0.0 sec)
Grid point division into batches done        ...    0.1 sec
Reduced shell lists constructed in    0.1 sec

Total number of grid points                  ...     9616
Total number of batches                      ...      151
Average number of points per batch           ...       63
Average number of grid points per atom       ...     9616
Average number of shells per batch           ...     4.62 (24.34%)
Average number of basis functions per batch  ...    12.88 (21.82%)
Average number of large shells per batch     ...     3.62 (78.38%)
Average number of large basis fcns per batch ...    10.62 (82.52%)
Maximum spatial batch extension              ...  20.96, 16.71, 16.71 au
Average spatial batch extension              ...   0.72,  0.66,  0.65 au

Time for grid setup =    0.122 sec

------------------------------
INITIAL GUESS: MODEL POTENTIAL
------------------------------
Loading Hartree-Fock densities                     ... done
Calculating cut-offs                               ... done
Setting up the integral package                    ... done
Initializing the effective Hamiltonian             ... done
Starting the Coulomb interaction                   ... done (   0.0 sec)
Reading the grid                                   ... done
Mapping shells                                     ... done
Starting the XC term evaluation                    ... done (   0.0 sec)
  promolecular density results
     # of electrons  =     34.999995890
     EX              =    -69.248211915
     EC              =     -2.258991047
     EX+EC           =    -71.507202962
Transforming the Hamiltonian                       ... done (   0.0 sec)
Diagonalizing the Hamiltonian                      ... done (   0.0 sec)
Back transforming the eigenvectors                 ... done (   0.0 sec)
Now organizing SCF variables                       ... done
                      ------------------
                      INITIAL GUESS DONE (   0.2 sec)
                      ------------------
--------------
SCF ITERATIONS
--------------
ITER       Energy         Delta-E        Max-DP      RMS-DP      [F,P]     Damp
               ***  Starting incremental Fock matrix formation  ***
  0  -2573.8551943268   0.000000000000 0.05533575  0.00207219  0.4256233 0.7000
  1  -2573.9378336234  -0.082639296585 0.02989854  0.00128362  0.2289511 0.7000
                               ***Turning on DIIS***
  2  -2573.9826690171  -0.044835393679 0.01598268  0.00074641  0.1135013 0.7000
  3  -2574.0097554959  -0.027086478824 0.04893119  0.00149408  0.0545055 0.0000
  4  -2574.0687241637  -0.058968667795 0.00634662  0.00031636  0.0093317 0.0000
  5  -2574.0691984529  -0.000474289197 0.00423460  0.00014650  0.0028433 0.0000
  6  -2574.0692653322  -0.000066879378 0.00129316  0.00005214  0.0012663 0.0000
  7  -2574.0692755626  -0.000010230310 0.00091082  0.00003302  0.0005052 0.0000
  8  -2574.0692775477  -0.000001985146 0.00005354  0.00000195  0.0000250 0.0000
                 **** Energy Check signals convergence ****

               *****************************************************
               *                     SUCCESS                       *
               *           SCF CONVERGED AFTER   9 CYCLES          *
               *****************************************************


Setting up the DFT-NL grid :

General Integration Accuracy     IntAcc      ...  4.340
Radial Grid Type                 RadialGrid  ... Gauss-Chebyshev
Angular Grid (max. acc.)         AngularGrid ... Lebedev-110
Angular grid pruning method      GridPruning ... 3 (G Style)
Weight generation scheme         WeightScheme... Becke
Basis function cutoff            BFCut       ...    1.0000e-10
Integration weight cutoff        WCut        ...    1.0000e-14
Grids for H and He will be reduced by one unit

# of grid points (after initial pruning)     ...   2890 (   0.0 sec)
# of grid points (after weights+screening)   ...   2890 (   0.0 sec)
Grid point division into batches done        ...    0.0 sec
Reduced shell lists constructed in    0.0 sec

Total number of grid points                  ...     2890
Total number of batches                      ...       46
Average number of points per batch           ...       62
Average number of grid points per atom       ...     2890
Average number of shells per batch           ...    12.00 (63.16%)
Average number of basis functions per batch  ...    36.00 (61.02%)
Average number of large shells per batch     ...     7.33 (61.11%)
Average number of large basis fcns per batch ...    26.00 (72.22%)
Maximum spatial batch extension              ...  14.66, 21.55, 21.55 au
Average spatial batch extension              ...   0.64,  0.94,  0.94 au

Final grid set up in    0.0 sec

-------------------------------------------------------------------------------
                         DFT-NL dispersion correction                          
-------------------------------------------------------------------------------

SC Energy -2574.069277557 
NL    Energy 0.148602141 
SC+NL Energy -2573.920675416 
NL done in    0.0 sec
-------------------------------------------------------------------------------

----------------
TOTAL SCF ENERGY
----------------

Total Energy       :        -2573.92067542 Eh          -70039.94234 eV

Components:
Nuclear Repulsion  :            0.00000000 Eh               0.00000 eV
Electronic Energy  :        -2573.92067542 Eh          -70039.94234 eV
One Electron Energy:        -3581.08224481 Eh          -97446.20195 eV
Two Electron Energy:         1007.16156940 Eh           27406.25961 eV

Virial components:
Potential Energy   :        -5144.51912667 Eh         -139989.48236 eV
Kinetic Energy     :         2570.59845125 Eh           69949.54002 eV
Virial Ratio       :            2.00129239


DFT components:
N(Alpha)           :       17.999999894013 electrons
N(Beta)            :       16.999999893605 electrons
N(Total)           :       34.999999787618 electrons
E(X)               :      -69.207197919001 Eh       
E(C)               :       -2.250352629983 Eh       
NL Energy, E(C,NL) :        0.148602140867 Eh       
E(XC)              :      -71.308948408117 Eh       
DFET-embed. en.    :        0.000000000000 Eh       

---------------
SCF CONVERGENCE
---------------

  Last Energy change         ...   -9.3969e-09  Tolerance :   1.0000e-06
  Last MAX-Density change    ...    1.0769e-05  Tolerance :   1.0000e-05
  Last RMS-Density change    ...    3.5374e-07  Tolerance :   1.0000e-06
  Last DIIS Error            ...    4.2450e-06  Tolerance :   1.0000e-06

             **** THE GBW FILE WAS UPDATED (74_Br.gbw) ****
             **** DENSITY FILE WAS UPDATED (74_Br.scfp) ****
             **** ENERGY FILE WAS UPDATED (74_Br.en.tmp) ****
----------------------
UHF SPIN CONTAMINATION
----------------------

Warning: in a DFT calculation there is little theoretical justification to 
         calculate <S**2> as in Hartree-Fock theory. We will do it anyways
         but you should keep in mind that the values have only limited relevance

Expectation value of <S**2>     :     0.752504
Ideal value S*(S+1) for S=0.5   :     0.750000
Deviation                       :     0.002504

             **** THE GBW FILE WAS UPDATED (74_Br.gbw) ****
             **** DENSITY FILE WAS UPDATED (74_Br.scfp) ****
----------------
ORBITAL ENERGIES
----------------
                 SPIN UP ORBITALS
  NO   OCC          E(Eh)            E(eV) 
   0   1.0000    -482.702725    -13135.0089 
   1   1.0000     -62.575701     -1702.7714 
   2   1.0000     -56.384901     -1534.3111 
   3   1.0000     -56.377373     -1534.1063 
   4   1.0000     -56.377373     -1534.1063 
   5   1.0000      -8.840258      -240.5557 
   6   1.0000      -6.676520      -181.6773 
   7   1.0000      -6.654962      -181.0907 
   8   1.0000      -6.654962      -181.0907 
   9   1.0000      -2.796398       -76.0939 
  10   1.0000      -2.791093       -75.9495 
  11   1.0000      -2.791093       -75.9495 
  12   1.0000      -2.775198       -75.5170 
  13   1.0000      -2.775198       -75.5170 
  14   1.0000      -0.924668       -25.1615 
  15   1.0000      -0.475948       -12.9512 
  16   1.0000      -0.429423       -11.6852 
  17   1.0000      -0.429423       -11.6852 
  18   0.0000       0.077525         2.1096 
  19   0.0000       0.085130         2.3165 
  20   0.0000       0.091697         2.4952 
  21   0.0000       0.091697         2.4952 
  22   0.0000       0.225634         6.1398 
  23   0.0000       0.229404         6.2424 
  24   0.0000       0.229404         6.2424 
  25   0.0000       0.241293         6.5659 
  26   0.0000       0.241293         6.5659 
  27   0.0000       0.435794        11.8586 
  28   0.0000       0.454169        12.3586 
  29   0.0000       0.454169        12.3586 
  30   0.0000       0.574367        15.6293 
  31   0.0000       0.647194        17.6110 
  32   0.0000       0.654519        17.8104 
  33   0.0000       0.654519        17.8104 
  34   0.0000       0.678854        18.4726 
  35   0.0000       0.678854        18.4726 
  36   0.0000       0.844497        22.9799 
  37   0.0000       0.847282        23.0557 
  38   0.0000       0.847282        23.0557 
  39   0.0000       0.855346        23.2751 
  40   0.0000       0.855346        23.2751 
  41   0.0000       0.869531        23.6612 
  42   0.0000       0.869531        23.6612 
  43   0.0000       1.859815        50.6081 
  44   0.0000       1.894413        51.5496 
  45   0.0000       1.894413        51.5496 
  46   0.0000       2.017571        54.9009 
  47   0.0000       2.025971        55.1295 
  48   0.0000       2.025971        55.1295 
  49   0.0000       2.053226        55.8711 
  50   0.0000       2.053226        55.8711 
  51   0.0000       2.057947        55.9996 
  52   0.0000       2.062703        56.1290 
  53   0.0000       2.062703        56.1290 
  54   0.0000       2.077056        56.5196 
  55   0.0000       2.077056        56.5196 
  56   0.0000       2.101855        57.1944 
  57   0.0000       2.101855        57.1944 
  58   0.0000       3.136675        85.3533 

                 SPIN DOWN ORBITALS
  NO   OCC          E(Eh)            E(eV) 
   0   1.0000    -482.700408    -13134.9459 
   1   1.0000     -62.574514     -1702.7391 
   2   1.0000     -56.379633     -1534.1678 
   3   1.0000     -56.376339     -1534.0782 
   4   1.0000     -56.376339     -1534.0782 
   5   1.0000      -8.836998      -240.4670 
   6   1.0000      -6.667249      -181.4251 
   7   1.0000      -6.653518      -181.0514 
   8   1.0000      -6.653518      -181.0514 
   9   1.0000      -2.789267       -75.8998 
  10   1.0000      -2.785667       -75.8019 
  11   1.0000      -2.785667       -75.8019 
  12   1.0000      -2.774358       -75.4941 
  13   1.0000      -2.774358       -75.4941 
  14   1.0000      -0.874386       -23.7932 
  15   1.0000      -0.416372       -11.3301 
  16   1.0000      -0.416372       -11.3301 
  17   0.0000      -0.140012        -3.8099 
  18   0.0000       0.080718         2.1965 
  19   0.0000       0.092518         2.5175 
  20   0.0000       0.092518         2.5175 
  21   0.0000       0.093218         2.5366 
  22   0.0000       0.241369         6.5680 
  23   0.0000       0.241369         6.5680 
  24   0.0000       0.241674         6.5763 
  25   0.0000       0.241674         6.5763 
  26   0.0000       0.242308         6.5935 
  27   0.0000       0.454473        12.3668 
  28   0.0000       0.456972        12.4348 
  29   0.0000       0.456972        12.4348 
  30   0.0000       0.583763        15.8850 
  31   0.0000       0.683303        18.5936 
  32   0.0000       0.683303        18.5936 
  33   0.0000       0.683651        18.6031 
  34   0.0000       0.683651        18.6031 
  35   0.0000       0.684792        18.6341 
  36   0.0000       0.853964        23.2375 
  37   0.0000       0.857473        23.3330 
  38   0.0000       0.857473        23.3330 
  39   0.0000       0.862671        23.4745 
  40   0.0000       0.862671        23.4745 
  41   0.0000       0.869971        23.6731 
  42   0.0000       0.869971        23.6731 
  43   0.0000       1.891154        51.4609 
  44   0.0000       1.901082        51.7311 
  45   0.0000       1.901082        51.7311 
  46   0.0000       2.049597        55.7724 
  47   0.0000       2.051168        55.8151 
  48   0.0000       2.051168        55.8151 
  49   0.0000       2.058232        56.0073 
  50   0.0000       2.058232        56.0073 
  51   0.0000       2.096875        57.0589 
  52   0.0000       2.097424        57.0738 
  53   0.0000       2.097424        57.0738 
  54   0.0000       2.099286        57.1245 
  55   0.0000       2.099286        57.1245 
  56   0.0000       2.105600        57.2963 
  57   0.0000       2.105600        57.2963 
  58   0.0000       3.147373        85.6444 

                    ********************************
                    * MULLIKEN POPULATION ANALYSIS *
                    ********************************

--------------------------------------------
MULLIKEN ATOMIC CHARGES AND SPIN POPULATIONS
--------------------------------------------
   0 Br:   -0.000000    1.000000
Sum of atomic charges         :   -0.0000000
Sum of atomic spin populations:    1.0000000

-----------------------------------------------------
MULLIKEN REDUCED ORBITAL CHARGES AND SPIN POPULATIONS
-----------------------------------------------------
CHARGE
  0 Brs       :     7.998959  s :     7.998959
      pz      :     5.000411  p :    16.999036
      px      :     5.999551
      py      :     5.999075
      dz2     :     2.001038  d :    10.001041
      dxz     :     2.000000
      dyz     :     2.000002
      dx2y2   :     2.000000
      dxy     :     2.000000
      f0      :     0.000385  f :     0.000964
      f+1     :     0.000288
      f-1     :     0.000289
      f+2     :     0.000001
      f-2     :     0.000001
      f+3     :     0.000000
      f-3     :     0.000000

SPIN
  0 Brs       :    -0.000625  s :    -0.000625
      pz      :     0.998818  p :     0.999077
      px      :    -0.000109
      py      :     0.000368
      dz2     :     0.000624  d :     0.000625
      dxz     :     0.000000
      dyz     :     0.000001
      dx2y2   :     0.000000
      dxy     :     0.000000
      f0      :     0.000385  f :     0.000923
      f+1     :     0.000268
      f-1     :     0.000268
      f+2     :     0.000001
      f-2     :     0.000001
      f+3     :     0.000000
      f-3     :     0.000000


                     *******************************
                     * LOEWDIN POPULATION ANALYSIS *
                     *******************************

-------------------------------------------
LOEWDIN ATOMIC CHARGES AND SPIN POPULATIONS
-------------------------------------------
   0 Br:    0.000000    1.000000

----------------------------------------------------
LOEWDIN REDUCED ORBITAL CHARGES AND SPIN POPULATIONS
----------------------------------------------------
CHARGE
  0 Brs       :     7.998959  s :     7.998959
      pz      :     5.000411  p :    16.999036
      px      :     5.999551
      py      :     5.999075
      dz2     :     2.001038  d :    10.001041
      dxz     :     2.000000
      dyz     :     2.000002
      dx2y2   :     2.000000
      dxy     :     2.000000
      f0      :     0.000385  f :     0.000964
      f+1     :     0.000288
      f-1     :     0.000289
      f+2     :     0.000001
      f-2     :     0.000001
      f+3     :     0.000000
      f-3     :     0.000000

SPIN
  0 Brs       :    -0.000625  s :    -0.000625
      pz      :     0.998818  p :     0.999077
      px      :    -0.000109
      py      :     0.000368
      dz2     :     0.000624  d :     0.000625
      dxz     :     0.000000
      dyz     :     0.000001
      dx2y2   :     0.000000
      dxy     :     0.000000
      f0      :     0.000385  f :     0.000923
      f+1     :     0.000268
      f-1     :     0.000268
      f+2     :     0.000001
      f-2     :     0.000001
      f+3     :     0.000000
      f-3     :     0.000000


                      *****************************
                      * MAYER POPULATION ANALYSIS *
                      *****************************

  NA   - Mulliken gross atomic population
  ZA   - Total nuclear charge
  QA   - Mulliken gross atomic charge
  VA   - Mayer's total valence
  BVA  - Mayer's bonded valence
  FA   - Mayer's free valence

  ATOM       NA         ZA         QA         VA         BVA        FA
  0 Br    35.0000    35.0000     0.0000     1.0050     0.0000     1.0050

  Mayer bond orders larger than 0.100000


-------
TIMINGS
-------

Total SCF time: 0 days 0 hours 0 min 11 sec 

Total time                  ....      11.356 sec
Sum of individual times     ....      11.081 sec  ( 97.6%)

Fock matrix formation       ....      10.815 sec  ( 95.2%)
  XC integration            ....       0.097 sec  (  0.9% of F)
    Basis function eval.    ....       0.016 sec  ( 16.3% of XC)
    Density eval.           ....       0.008 sec  (  7.8% of XC)
    XC-Functional eval.     ....       0.007 sec  (  7.0% of XC)
    XC-Potential eval.      ....       0.010 sec  ( 10.0% of XC)
Diagonalization             ....       0.013 sec  (  0.1%)
Density matrix formation    ....       0.004 sec  (  0.0%)
Population analysis         ....       0.003 sec  (  0.0%)
Initial guess               ....       0.097 sec  (  0.9%)
Orbital Transformation      ....       0.000 sec  (  0.0%)
Orbital Orthonormalization  ....       0.000 sec  (  0.0%)
DIIS solution               ....       0.006 sec  (  0.1%)
Grid generation             ....       0.144 sec  (  1.3%)

-------------------------   --------------------
FINAL SINGLE POINT ENERGY     -2573.920675416235
-------------------------   --------------------


                            ***************************************
                            *     ORCA property calculations      *
                            ***************************************

                                    ---------------------
                                    Active property flags
                                    ---------------------
   (+) Dipole Moment


------------------------------------------------------------------------------
                       ORCA ELECTRIC PROPERTIES CALCULATION
------------------------------------------------------------------------------

Dipole Moment Calculation                       ... on
Quadrupole Moment Calculation                   ... off
Polarizability Calculation                      ... off
GBWName                                         ... 74_Br.gbw
Electron density file                           ... 74_Br.scfp
The origin for moment calculation is the CENTER OF MASS  = ( 0.000000,  0.000000  0.000000)

-------------
DIPOLE MOMENT
-------------
                                X             Y             Z
Electronic contribution:     -0.00000       0.00000       0.00000
Nuclear contribution   :      0.00000       0.00000       0.00000
                        -----------------------------------------
Total Dipole Moment    :     -0.00000       0.00000       0.00000
                        -----------------------------------------
Magnitude (a.u.)       :      0.00000
Magnitude (Debye)      :      0.00000



--------------------
Rotational spectrum 
--------------------
 
Rotational constants in cm-1:     0.000000     0.000000     0.000000 
Rotational constants in MHz :     0.000000     0.000000     0.000000 

 Dipole components along the rotational axes: 
x,y,z [a.u.] :    -0.000000     0.000000     0.000000 
x,y,z [Debye]:    -0.000000     0.000000     0.000000 

 

Timings for individual modules:

Sum of individual times         ...       13.027 sec (=   0.217 min)
GTO integral calculation        ...        1.207 sec (=   0.020 min)   9.3 %
SCF iterations                  ...       11.819 sec (=   0.197 min)  90.7 %
                             ****ORCA TERMINATED NORMALLY****
TOTAL RUN TIME: 0 days 0 hours 0 minutes 13 seconds 540 msec
