
                                 *****************
                                 * O   R   C   A *
                                 *****************

           --- An Ab Initio, DFT and Semiempirical electronic structure package ---

                  #######################################################
                  #                        -***-                        #
                  #          Department of theory and spectroscopy      #
                  #               Directorship: Frank Neese             #
                  #        Max Planck Institute fuer Kohlenforschung    #
                  #                Kaiser Wilhelm Platz 1               #
                  #                 D-45470 Muelheim/Ruhr               #
                  #                      Germany                        #
                  #                                                     #
                  #                  All rights reserved                #
                  #                        -***-                        #
                  #######################################################


                         Program Version 4.2.0 -  RELEASE  -


 With contributions from (in alphabetic order):
   Daniel Aravena         : Magnetic Suceptibility
   Michael Atanasov       : Ab Initio Ligand Field Theory (pilot matlab implementation)
   Alexander A. Auer      : GIAO ZORA, VPT2
   Ute Becker             : Parallelization
   Giovanni Bistoni       : ED, misc. LED, open-shell LED, HFLED
   Martin Brehm           : Molecular dynamics
   Dmytro Bykov           : SCF Hessian
   Vijay G. Chilkuri      : MRCI spin determinant printing, contributions to CSF-ICE
   Dipayan Datta          : RHF DLPNO-CCSD density
   Achintya Kumar Dutta   : EOM-CC, STEOM-CC
   Dmitry Ganyushin       : Spin-Orbit,Spin-Spin,Magnetic field MRCI
   Miquel Garcia          : C-PCM Hessian, Gaussian charge scheme
   Yang Guo               : DLPNO-NEVPT2, CIM, IAO-localization
   Andreas Hansen         : Spin unrestricted coupled pair/coupled cluster methods
   Benjamin Helmich-Paris : CASSCF linear response (MC-RPA)
   Lee Huntington         : MR-EOM, pCC
   Robert Izsak           : Overlap fitted RIJCOSX, COSX-SCS-MP3, EOM
   Christian Kollmar      : KDIIS, OOCD, Brueckner-CCSD(T), CCSD density
   Simone Kossmann        : Meta GGA functionals, TD-DFT gradient, OOMP2, MP2 Hessian
   Martin Krupicka        : AUTO-CI
   Lucas Lang             : DCDCAS
   Dagmar Lenk            : GEPOL surface, SMD
   Dimitrios Liakos       : Extrapolation schemes; Compound Job, initial MDCI parallelization
   Dimitrios Manganas     : Further ROCIS development; embedding schemes
   Dimitrios Pantazis     : SARC Basis sets
   Taras Petrenko         : DFT Hessian,TD-DFT gradient, ASA, ECA, R-Raman, ABS, FL, XAS/XES, NRVS
   Peter Pinski           : DLPNO-MP2, DLPNO-MP2 Gradient
   Christoph Reimann      : Effective Core Potentials
   Marius Retegan         : Local ZFS, SOC
   Christoph Riplinger    : Optimizer, TS searches, QM/MM, DLPNO-CCSD(T), (RO)-DLPNO pert. Triples
   Tobias Risthaus        : Range-separated hybrids, TD-DFT gradient, RPA, STAB
   Michael Roemelt        : Original ROCIS implementation
   Masaaki Saitow         : Open-shell DLPNO-CCSD energy and density
   Barbara Sandhoefer     : DKH picture change effects
   Avijit Sen             : IP-ROCIS
   Kantharuban Sivalingam : CASSCF convergence, NEVPT2, FIC-MRCI
   Bernardo de Souza      : ESD, SOC TD-DFT
   Georgi Stoychev        : AutoAux, RI-MP2 NMR
   Willem Van den Heuvel  : Paramagnetic NMR
   Boris Wezisla          : Elementary symmetry handling
   Frank Wennmohs         : Technical directorship


 We gratefully acknowledge several colleagues who have allowed us to
 interface, adapt or use parts of their codes:
   Stefan Grimme, W. Hujo, H. Kruse,             : VdW corrections, initial TS optimization,
                  C. Bannwarth                     DFT functionals, gCP, sTDA/sTD-DF
   Ed Valeev, F. Pavosevic, A. Kumar             : LibInt (2-el integral package), F12 methods
   Garnet Chan, S. Sharma, J. Yang, R. Olivares  : DMRG
   Ulf Ekstrom                                   : XCFun DFT Library
   Mihaly Kallay                                 : mrcc  (arbitrary order and MRCC methods)
   Andreas Klamt, Michael Diedenhofen            : otool_cosmo (COSMO solvation model)
   Jiri Pittner, Ondrej Demel                    : Mk-CCSD
   Frank Weinhold                                : gennbo (NPA and NBO analysis)
   Christopher J. Cramer and Donald G. Truhlar   : smd solvation model
   Lars Goerigk                                  : TD-DFT with DH, B97 family of functionals
   V. Asgeirsson, H. Jonsson                     : NEB implementation
   FAccTs GmbH                                   : IRC, NEB, NEB-TS, Multilevel, MM, QM/MM, CI optimization
   S Lehtola, MJT Oliveira, MAL Marques          : LibXC Library


 Your calculation uses the libint2 library for the computation of 2-el integrals
 For citations please refer to: http://libint.valeyev.net

 Your ORCA version has been built with support for libXC version: 4.2.3
 For citations please refer to: https://tddft.org/programs/libxc/

 This ORCA versions uses:
   CBLAS   interface :  Fast vector & matrix operations
   LAPACKE interface :  Fast linear algebra routines
   SCALAPACK package :  Parallel linear algebra routines


Your calculation utilizes the atom-pairwise dispersion correction
with the Becke-Johnson damping scheme (D3BJ)
Cite in your paper:
S.Grimme, S.Ehrlich, L.Goerigk, J Comput Chem, (2011), 32, 1456–1465 
S.Grimme, J.Antony, S.Ehrlich and H.Krieg, J.Chem.Phys., 132, (2010), 154104 
   

----- Orbital basis set information -----
Your calculation utilizes the basis: aug-cc-pVTZ 
    H, B-Ne : Obtained from the ccRepo (grant-hill.group.shef.ac.uk/ccrepo) Feb. 2017
              R. A. Kendall, T. H. Dunning, Jr., R. J. Harrison, J. Chem. Phys. 96, 6796 (1992)
         He : Obtained from the ccRepo (grant-hill.group.shef.ac.uk/ccrepo) Feb. 2017
              D. E. Woon, T. H. Dunning, Jr., J. Chem. Phys. 100, 2975 (1994)
  Li-Be, Na : Obtained from the ccRepo (grant-hill.group.shef.ac.uk/ccrepo) Feb. 2017
              B. P. Prascher, D. E. Woon, K. A. Peterson, T. H. Dunning, Jr., A. K. Wilson, Theor. Chem. Acc. 128, 69 (2011)
         Mg : Obtained from the Peterson Research Group Website (tyr0.chem.wsu.edu/~kipeters) Feb. 2017
              B. P. Prascher, D. E. Woon, K. A. Peterson, T. H. Dunning, Jr., A. K. Wilson, Theor. Chem. Acc. 128, 69 (2011)
      Al-Ar : Obtained from the ccRepo (grant-hill.group.shef.ac.uk/ccrepo) Feb. 2017
              D. E. Woon, T. H. Dunning, Jr., J. Chem. Phys. 98, 1358 (1993)
      Sc-Zn : Obtained from the ccRepo (grant-hill.group.shef.ac.uk/ccrepo) Feb. 2017
              N. B. Balabanov, K. A. Peterson, J. Chem. Phys. 123, 064107 (2005)
              N. B. Balabanov, K. A. Peterson, J. Chem. Phys. 125, 074110 (2006)
      Ga-Kr : Obtained from the ccRepo (grant-hill.group.shef.ac.uk/ccrepo) Feb. 2017
              A. K. Wilson, D. E. Woon, K. A. Peterson, T. H. Dunning, Jr., J. Chem. Phys. 110, 7667 (1999)
     Ag, Au : Obtained from the Peterson Research Group Website (tyr0.chem.wsu.edu/~kipeters) Feb. 2017
              K. A. Peterson, C. Puzzarini, Theor. Chem. Acc. 114, 283 (2005)

----- AuxJ basis set information -----
Your calculation utilizes the auxiliary basis: def2/J
   F. Weigend, Phys. Chem. Chem. Phys. 8, 1057 (2006).

================================================================================
                                        WARNINGS
                       Please study these warnings very carefully!
================================================================================


WARNING: your system is open-shell and RHF/RKS was chosen
  ===> : WILL SWITCH to UHF/UKS


WARNING: The SCAN functional is very grid-sensitive!
         Use at least GRID5 and a higher intacc

INFO   : the flag for use of LIBINT has been found!

================================================================================
                                       INPUT FILE
================================================================================
NAME = 06_ScS.in
|  1> #
|  2> # 06_ScS scanfunc/aug-cc-pvtz
|  3> #
|  4> ! scanfunc d3bj aug-cc-pvtz def2/j grid4 nofinalgrid
|  5> 
|  6> *xyz 0 2
|  7>   Sc  0.00000000000000      0.00000000000000     -0.07079618847288
|  8>   S   0.00000000000000      0.00000000000000      2.07079618847288
|  9> *
| 10> 
| 11> %pal
| 12> nprocs 24
| 13> end
| 14> 
| 15> 
| 16>                          ****END OF INPUT****
================================================================================

                       ****************************
                       * Single Point Calculation *
                       ****************************

---------------------------------
CARTESIAN COORDINATES (ANGSTROEM)
---------------------------------
  Sc     0.000000    0.000000   -0.070796
  S      0.000000    0.000000    2.070796

----------------------------
CARTESIAN COORDINATES (A.U.)
----------------------------
  NO LB      ZA    FRAG     MASS         X           Y           Z
   0 Sc   21.0000    0    44.960    0.000000    0.000000   -0.133785
   1 S    16.0000    0    32.060    0.000000    0.000000    3.913238

--------------------------------
INTERNAL COORDINATES (ANGSTROEM)
--------------------------------
 Sc     0   0   0     0.000000000000     0.00000000     0.00000000
 S      1   0   0     2.141592376946     0.00000000     0.00000000

---------------------------
INTERNAL COORDINATES (A.U.)
---------------------------
 Sc     0   0   0     0.000000000000     0.00000000     0.00000000
 S      1   0   0     4.047023082921     0.00000000     0.00000000

---------------------
BASIS SET INFORMATION
---------------------
There are 2 groups of distinct atoms

 Group   1 Type Sc  : 116s77p23d3f2g contracted to 8s7p5d3f2g pattern {19191919191911/151515151511/77711/111/11}
 Group   2 Type S   : 42s17p3d2f contracted to 6s5p3d2f pattern {131313111/77111/111/11}

Atom   0Sc   basis set group =>   1
Atom   1S    basis set group =>   2
---------------------------------
AUXILIARY/J BASIS SET INFORMATION
---------------------------------
There are 2 groups of distinct atoms

 Group   1 Type Sc  : 19s5p5d3f3g contracted to 8s5p5d2f3g pattern {121111111/11111/11111/21/111}
 Group   2 Type S   : 14s5p5d2f1g contracted to 8s4p3d1f1g pattern {71111111/2111/311/2/1}

Atom   0Sc   basis set group =>   1
Atom   1S    basis set group =>   2


           ************************************************************
           *        Program running with 24 parallel MPI-processes    *
           *              working on a common directory               *
           ************************************************************
------------------------------------------------------------------------------
                           ORCA GTO INTEGRAL CALCULATION
                           -- RI-GTO INTEGRALS CHOSEN --
------------------------------------------------------------------------------

                         BASIS SET STATISTICS AND STARTUP INFO

Gaussian basis set:
 # of primitive gaussian shells          ...  285
 # of primitive gaussian functions       ...  623
 # of contracted shells                  ...   41
 # of contracted basis functions         ...  143
 Highest angular momentum                ...    4
 Maximum contraction depth               ...   19
Auxiliary gaussian basis set:
 # of primitive gaussian shells          ...   62
 # of primitive gaussian functions       ...  184
 # of contracted shells                  ...   40
 # of contracted aux-basis functions     ...  140
 Highest angular momentum                ...    4
 Maximum contraction depth               ...   12
Ratio of auxiliary to basis functions    ...  0.98
Integral package used                  ... LIBINT
 One Electron integrals                  ... done
 Ordering auxiliary basis shells         ... done
 Integral threshhold             Thresh  ...  1.000e-10
 Primitive cut-off               TCut    ...  1.000e-11
 Pre-screening matrix                    ... done
 Shell pair data                         ... 
 Ordering of the shell pairs             ... done (   0.000 sec) 861 of 861 pairs
 Determination of significant pairs      ... done (   0.000 sec)
 Creation of shell pair data             ... done (   0.001 sec)
 Storage of shell pair data              ... done (   0.007 sec)
 Shell pair data done in (   0.009 sec)
 Computing two index integrals           ... done
 Cholesky decomposition of the V-matrix  ... done


Timings:
 Total evaluation time                   ...   2.649 sec (  0.044 min)
 One electron matrix time                ...   0.045 sec (  0.001 min) =  1.7%
 Schwartz matrix evaluation time         ...   2.563 sec (  0.043 min) = 96.8%
 Two index repulsion integral time       ...   0.001 sec (  0.000 min) =  0.0%
 Cholesky decomposition of V             ...   0.001 sec (  0.000 min) =  0.0%
 Three index repulsion integral time     ...   0.000 sec (  0.000 min) =  0.0%



           ************************************************************
           *        Program running with 24 parallel MPI-processes    *
           *              working on a common directory               *
           ************************************************************
-------------------------------------------------------------------------------
                                 ORCA SCF
-------------------------------------------------------------------------------

------------
SCF SETTINGS
------------
Hamiltonian:
 Density Functional     Method          .... DFT(GTOs)
 Exchange Functional    Exchange        .... SCAN
 Correlation Functional Correlation     .... SCAN
 Gradients option       PostSCFGGA      .... off
   Density functional embedding theory  .... OFF
   NL short-range parameter             ....  6.400000
 RI-approximation to the Coulomb term is turned on
   Number of auxiliary basis functions  .... 140


General Settings:
 Integral files         IntName         .... 06_ScS
 Hartree-Fock type      HFTyp           .... UHF
 Total Charge           Charge          ....    0
 Multiplicity           Mult            ....    2
 Number of Electrons    NEL             ....   37
 Basis Dimension        Dim             ....  143
 Nuclear Repulsion      ENuc            ....     83.0239890200 Eh

Convergence Acceleration:
 DIIS                   CNVDIIS         .... on
   Start iteration      DIISMaxIt       ....    12
   Startup error        DIISStart       ....  0.200000
   # of expansion vecs  DIISMaxEq       ....     5
   Bias factor          DIISBfac        ....   1.050
   Max. coefficient     DIISMaxC        ....  10.000
 Newton-Raphson         CNVNR           .... off
 SOSCF                  CNVSOSCF        .... off
 Level Shifting         CNVShift        .... on
   Level shift para.    LevelShift      ....    0.2500
   Turn off err/grad.   ShiftErr        ....    0.0010
 Zerner damping         CNVZerner       .... off
 Static damping         CNVDamp         .... on
   Fraction old density DampFac         ....    0.7000
   Max. Damping (<1)    DampMax         ....    0.9800
   Min. Damping (>=0)   DampMin         ....    0.0000
   Turn off err/grad.   DampErr         ....    0.1000
 Fernandez-Rico         CNVRico         .... off

SCF Procedure:
 Maximum # iterations   MaxIter         ....   125
 SCF integral mode      SCFMode         .... Direct
   Integral package                     .... LIBINT
 Reset frequency        DirectResetFreq ....    20
 Integral Threshold     Thresh          ....  1.000e-10 Eh
 Primitive CutOff       TCut            ....  1.000e-11 Eh

Convergence Tolerance:
 Convergence Check Mode ConvCheckMode   .... Total+1el-Energy
 Convergence forced     ConvForced      .... 0
 Energy Change          TolE            ....  1.000e-06 Eh
 1-El. energy change                    ....  1.000e-03 Eh
 DIIS Error             TolErr          ....  1.000e-06


Diagonalization of the overlap matrix:
Smallest eigenvalue                        ... 6.249e-05
Time for diagonalization                   ...    0.005 sec
Threshold for overlap eigenvalues          ... 1.000e-08
Number of eigenvalues below threshold      ... 0
Time for construction of square roots      ...    0.003 sec
Total time needed                          ...    0.008 sec

-------------------
DFT GRID GENERATION
-------------------

General Integration Accuracy     IntAcc      ...  4.670
Radial Grid Type                 RadialGrid  ... Gauss-Chebyshev
Angular Grid (max. acc.)         AngularGrid ... Lebedev-302
Angular grid pruning method      GridPruning ... 3 (G Style)
Weight generation scheme         WeightScheme... Becke
Basis function cutoff            BFCut       ...    1.0000e-10
Integration weight cutoff        WCut        ...    1.0000e-14
Grids for H and He will be reduced by one unit

# of grid points (after initial pruning)     ...  16510 (   0.0 sec)
# of grid points (after weights+screening)   ...  16482 (   0.0 sec)
nearest neighbour list constructed           ...    0.0 sec
Grid point re-assignment to atoms done       ...    0.0 sec
Grid point division into batches done        ...    0.1 sec
Reduced shell lists constructed in    0.1 sec

Total number of grid points                  ...    16482
Total number of batches                      ...      259
Average number of points per batch           ...       63
Average number of grid points per atom       ...     8241
Average number of shells per batch           ...    21.33 (52.03%)
Average number of basis functions per batch  ...    68.50 (47.90%)
Average number of large shells per batch     ...    14.00 (65.62%)
Average number of large basis fcns per batch ...    45.50 (66.42%)
Maximum spatial batch extension              ...  26.53, 26.21, 18.83 au
Average spatial batch extension              ...   0.91,  0.90,  0.69 au

Time for grid setup =    0.164 sec

------------------------------
INITIAL GUESS: MODEL POTENTIAL
------------------------------
Loading Hartree-Fock densities                     ... done
Calculating cut-offs                               ... done
Setting up the integral package                    ... done
Initializing the effective Hamiltonian             ... done
Starting the Coulomb interaction                   ... done (   0.0 sec)
Reading the grid                                   ... done
Mapping shells                                     ... done
Starting the XC term evaluation                    ... done (   0.0 sec)
  promolecular density results
     # of electrons  =     37.000027201
     EX              =    -70.556446396
     EC              =     -0.633009614
     EX+EC           =    -71.189456010
Transforming the Hamiltonian                       ... done (   0.0 sec)
Diagonalizing the Hamiltonian                      ... done (   0.0 sec)
Back transforming the eigenvectors                 ... done (   0.0 sec)
Now organizing SCF variables                       ... done
                      ------------------
                      INITIAL GUESS DONE (   0.3 sec)
                      ------------------
--------------
SCF ITERATIONS
--------------
ITER       Energy         Delta-E        Max-DP      RMS-DP      [F,P]     Damp
               ***  Starting incremental Fock matrix formation  ***
  0  -1158.7339437554   0.000000000000 0.61656726  0.01217822  0.2394875 0.7000
  1  -1158.8562882059  -0.122344450438 0.45656701  0.00837527  0.1288854 0.7000
                               ***Turning on DIIS***
  2  -1158.9086768700  -0.052388664182 1.09557885  0.01830405  0.0480663 0.0000
  3  -1158.9649604303  -0.056283560239 0.12081211  0.00194765  0.0825015 0.0000
  4  -1158.9917762072  -0.026815776955 0.04779357  0.00084779  0.0365038 0.0000
  5  -1158.9961111822  -0.004334974989 0.00758686  0.00015269  0.0144438 0.0000
  6  -1158.9970110716  -0.000899889332 0.00985337  0.00017643  0.0062236 0.0000
  7  -1158.9972241054  -0.000213033856 0.00318952  0.00005637  0.0041782 0.0000
  8  -1158.9973002767  -0.000076171312 0.00433928  0.00006819  0.0027222 0.0000
  9  -1158.9973332461  -0.000032969379 0.00791127  0.00008770  0.0019513 0.0000
 10  -1158.9973497645  -0.000016518388 0.00207991  0.00003058  0.0015633 0.0000
 11  -1158.9973577411  -0.000007976611 0.96829066  0.00602537  0.0009009 0.0000
 12  -1159.0066416746  -0.009283933546 0.00355520  0.00003785  0.0963042 0.0000
 13  -1159.0063256809   0.000315993697 0.00231178  0.00002303  0.0969759 0.0000
 14  -1159.0061526505   0.000173030465 0.00092683  0.00001173  0.0972687 0.0000
 15  -1159.0060960280   0.000056622455 0.00128808  0.00001367  0.0972378 0.0000
 16  -1159.0060564835   0.000039544574 0.35963256  0.00771001  0.0971746 0.0000
 17  -1158.9761728695   0.029883613904 0.06503569  0.00138068  0.1712594 0.7000
 18  -1158.9903250625  -0.014152192935 0.05022317  0.00107020  0.1459193 0.7000
 19  -1159.0039725742  -0.013647511701 0.04002640  0.00081338  0.1155812 0.7000
               *** Restarting incremental Fock matrix formation ***
                                   *** Resetting DIIS ***
 20  -1159.0141468489  -0.010174274694 0.32601334  0.00616951  0.0874455 0.0000
 21  -1158.9821857273   0.031961121596 0.04982452  0.00090659  0.1349108 0.7000
 22  -1158.9960404025  -0.013854675183 0.03781184  0.00070435  0.1157292 0.7000
 23  -1159.0090362672  -0.012995864721 0.09033214  0.00172290  0.0922144 0.0000
 24  -1159.0309706971  -0.021934429960 0.01957700  0.00037166  0.0146590 0.0000
 25  -1159.0315985763  -0.000627879147 0.00770165  0.00009238  0.0062888 0.0000
 26  -1159.0316868790  -0.000088302682 0.00188489  0.00002798  0.0011480 0.0000
 27  -1159.0316964322  -0.000009553270 0.00378393  0.00005006  0.0004656 0.0000
 28  -1159.0316976307  -0.000001198476 0.00190767  0.00002922  0.0013222 0.0000
 29  -1159.0317001333  -0.000002502566 0.00048865  0.00001051  0.0008445 0.0000
 30  -1159.0317017603  -0.000001627055 0.00061253  0.00000660  0.0000469 0.0000
                 **** Energy Check signals convergence ****

               *****************************************************
               *                     SUCCESS                       *
               *           SCF CONVERGED AFTER  31 CYCLES          *
               *****************************************************


----------------
TOTAL SCF ENERGY
----------------

Total Energy       :        -1159.03170169 Eh          -31538.85601 eV

Components:
Nuclear Repulsion  :           83.02398902 Eh            2259.19760 eV
Electronic Energy  :        -1242.05569071 Eh          -33798.05360 eV
One Electron Energy:        -1757.44061929 Eh          -47822.39049 eV
Two Electron Energy:          515.38492859 Eh           14024.33689 eV

Virial components:
Potential Energy   :        -2315.60788135 Eh          -63010.89386 eV
Kinetic Energy     :         1156.57617966 Eh           31472.03786 eV
Virial Ratio       :            2.00212310


DFT components:
N(Alpha)           :       19.000002335666 electrons
N(Beta)            :       18.000003132902 electrons
N(Total)           :       37.000005468568 electrons
E(X)               :      -63.345582479995 Eh       
E(C)               :       -1.444573262403 Eh       
E(XC)              :      -64.790155742398 Eh       
DFET-embed. en.    :        0.000000000000 Eh       

---------------
SCF CONVERGENCE
---------------

  Last Energy change         ...    7.3494e-08  Tolerance :   1.0000e-06
  Last MAX-Density change    ...    1.4230e-04  Tolerance :   1.0000e-05
  Last RMS-Density change    ...    1.7472e-06  Tolerance :   1.0000e-06
  Last DIIS Error            ...    3.2818e-05  Tolerance :   1.0000e-06

             **** THE GBW FILE WAS UPDATED (06_ScS.gbw) ****
             **** DENSITY FILE WAS UPDATED (06_ScS.scfp) ****
             **** ENERGY FILE WAS UPDATED (06_ScS.en.tmp) ****
----------------------
UHF SPIN CONTAMINATION
----------------------

Warning: in a DFT calculation there is little theoretical justification to 
         calculate <S**2> as in Hartree-Fock theory. We will do it anyways
         but you should keep in mind that the values have only limited relevance

Expectation value of <S**2>     :     0.755461
Ideal value S*(S+1) for S=0.5   :     0.750000
Deviation                       :     0.005461

             **** THE GBW FILE WAS UPDATED (06_ScS.gbw) ****
             **** DENSITY FILE WAS UPDATED (06_ScS.scfp) ****
----------------
ORBITAL ENERGIES
----------------
                 SPIN UP ORBITALS
  NO   OCC          E(Eh)            E(eV) 
   0   1.0000    -161.396502     -4391.8221 
   1   1.0000     -88.587452     -2410.5871 
   2   1.0000     -17.533563      -477.1125 
   3   1.0000     -14.456841      -393.3906 
   4   1.0000     -14.456841      -393.3906 
   5   1.0000     -14.446464      -393.1083 
   6   1.0000      -7.797397      -212.1780 
   7   1.0000      -5.733158      -156.0072 
   8   1.0000      -5.733158      -156.0072 
   9   1.0000      -5.733080      -156.0050 
  10   1.0000      -2.072901       -56.4065 
  11   1.0000      -1.277081       -34.7511 
  12   1.0000      -1.277081       -34.7511 
  13   1.0000      -1.266670       -34.4679 
  14   1.0000      -0.578104       -15.7310 
  15   1.0000      -0.233073        -6.3422 
  16   1.0000      -0.219408        -5.9704 
  17   1.0000      -0.219408        -5.9704 
  18   1.0000      -0.164296        -4.4707 
  19   0.0000      -0.125440        -3.4134 
  20   0.0000      -0.125370        -3.4115 
  21   0.0000      -0.104222        -2.8360 
  22   0.0000      -0.104222        -2.8360 
  23   0.0000      -0.089301        -2.4300 
  24   0.0000      -0.031361        -0.8534 
  25   0.0000      -0.031361        -0.8534 
  26   0.0000       0.018397         0.5006 
  27   0.0000       0.031455         0.8559 
  28   0.0000       0.033524         0.9122 
  29   0.0000       0.033526         0.9123 
  30   0.0000       0.048637         1.3235 
  31   0.0000       0.049235         1.3397 
  32   0.0000       0.049749         1.3537 
  33   0.0000       0.061323         1.6687 
  34   0.0000       0.061332         1.6689 
  35   0.0000       0.067231         1.8294 
  36   0.0000       0.095700         2.6041 
  37   0.0000       0.096855         2.6356 
  38   0.0000       0.099580         2.7097 
  39   0.0000       0.110424         3.0048 
  40   0.0000       0.110427         3.0049 
  41   0.0000       0.114631         3.1193 
  42   0.0000       0.117170         3.1884 
  43   0.0000       0.117176         3.1885 
  44   0.0000       0.126485         3.4418 
  45   0.0000       0.126814         3.4508 
  46   0.0000       0.131365         3.5746 
  47   0.0000       0.137719         3.7475 
  48   0.0000       0.137721         3.7476 
  49   0.0000       0.142525         3.8783 
  50   0.0000       0.142526         3.8783 
  51   0.0000       0.162481         4.4213 
  52   0.0000       0.196810         5.3555 
  53   0.0000       0.196812         5.3555 
  54   0.0000       0.223851         6.0913 
  55   0.0000       0.269230         7.3261 
  56   0.0000       0.271697         7.3933 
  57   0.0000       0.272052         7.4029 
  58   0.0000       0.308172         8.3858 
  59   0.0000       0.308172         8.3858 
  60   0.0000       0.344851         9.3839 
  61   0.0000       0.345711         9.4073 
  62   0.0000       0.352380         9.5888 
  63   0.0000       0.369728        10.0608 
  64   0.0000       0.372817        10.1449 
  65   0.0000       0.372819        10.1449 
  66   0.0000       0.404958        11.0195 
  67   0.0000       0.404958        11.0195 
  68   0.0000       0.406689        11.0666 
  69   0.0000       0.406795        11.0695 
  70   0.0000       0.418565        11.3897 
  71   0.0000       0.420629        11.4459 
  72   0.0000       0.422178        11.4880 
  73   0.0000       0.437940        11.9170 
  74   0.0000       0.437941        11.9170 
  75   0.0000       0.472137        12.8475 
  76   0.0000       0.477914        13.0047 
  77   0.0000       0.477918        13.0048 
  78   0.0000       0.502724        13.6798 
  79   0.0000       0.502724        13.6798 
  80   0.0000       0.576964        15.7000 
  81   0.0000       0.577079        15.7031 
  82   0.0000       0.582290        15.8449 
  83   0.0000       0.582290        15.8449 
  84   0.0000       0.619536        16.8584 
  85   0.0000       0.634648        17.2696 
  86   0.0000       0.634649        17.2697 
  87   0.0000       0.685886        18.6639 
  88   0.0000       0.686299        18.6752 
  89   0.0000       0.708296        19.2737 
  90   0.0000       0.850128        23.1332 
  91   0.0000       0.868651        23.6372 
  92   0.0000       0.868651        23.6372 
  93   0.0000       0.939198        25.5569 
  94   0.0000       0.939200        25.5569 
  95   0.0000       1.007860        27.4253 
  96   0.0000       1.058011        28.7899 
  97   0.0000       1.058297        28.7977 
  98   0.0000       1.118236        30.4287 
  99   0.0000       1.118237        30.4288 
 100   0.0000       1.131334        30.7852 
 101   0.0000       1.335582        36.3430 
 102   0.0000       1.336126        36.3578 
 103   0.0000       1.423251        38.7286 
 104   0.0000       1.470216        40.0066 
 105   0.0000       1.470216        40.0066 
 106   0.0000       1.638061        44.5739 
 107   0.0000       1.638062        44.5739 
 108   0.0000       1.649683        44.8901 
 109   0.0000       1.740589        47.3638 
 110   0.0000       1.823160        49.6107 
 111   0.0000       1.823183        49.6113 
 112   0.0000       1.825183        49.6658 
 113   0.0000       1.825184        49.6658 
 114   0.0000       1.842181        50.1283 
 115   0.0000       1.842382        50.1338 
 116   0.0000       1.949646        53.0526 
 117   0.0000       1.974171        53.7199 
 118   0.0000       1.974171        53.7199 
 119   0.0000       1.976582        53.7855 
 120   0.0000       1.976855        53.7929 
 121   0.0000       2.038955        55.4828 
 122   0.0000       2.038955        55.4828 
 123   0.0000       2.054362        55.9020 
 124   0.0000       2.088296        56.8254 
 125   0.0000       2.088549        56.8323 
 126   0.0000       2.108775        57.3827 
 127   0.0000       2.108775        57.3827 
 128   0.0000       2.173156        59.1346 
 129   0.0000       2.173157        59.1346 
 130   0.0000       2.251718        61.2723 
 131   0.0000       2.251718        61.2723 
 132   0.0000       2.312898        62.9372 
 133   0.0000       2.313266        62.9472 
 134   0.0000       2.313266        62.9472 
 135   0.0000       2.352918        64.0262 
 136   0.0000       2.354099        64.0583 
 137   0.0000       2.489266        67.7364 
 138   0.0000       2.595355        70.6232 
 139   0.0000       2.724657        74.1417 
 140   0.0000       2.724657        74.1417 
 141   0.0000       3.582437        97.4831 
 142   0.0000       5.514839       150.0664 

                 SPIN DOWN ORBITALS
  NO   OCC          E(Eh)            E(eV) 
   0   1.0000    -161.396246     -4391.8151 
   1   1.0000     -88.587904     -2410.5994 
   2   1.0000     -17.533254      -477.1041 
   3   1.0000     -14.455008      -393.3408 
   4   1.0000     -14.455008      -393.3408 
   5   1.0000     -14.445261      -393.0755 
   6   1.0000      -7.798293      -212.2023 
   7   1.0000      -5.734140      -156.0339 
   8   1.0000      -5.734140      -156.0339 
   9   1.0000      -5.733729      -156.0227 
  10   1.0000      -2.063743       -56.1573 
  11   1.0000      -1.268334       -34.5131 
  12   1.0000      -1.268334       -34.5131 
  13   1.0000      -1.253313       -34.1044 
  14   1.0000      -0.579382       -15.7658 
  15   1.0000      -0.229818        -6.2537 
  16   1.0000      -0.219430        -5.9710 
  17   1.0000      -0.219430        -5.9710 
  18   0.0000      -0.101099        -2.7510 
  19   0.0000      -0.098900        -2.6912 
  20   0.0000      -0.098851        -2.6899 
  21   0.0000      -0.076891        -2.0923 
  22   0.0000      -0.076891        -2.0923 
  23   0.0000      -0.071605        -1.9485 
  24   0.0000      -0.050790        -1.3821 
  25   0.0000      -0.037836        -1.0296 
  26   0.0000      -0.037832        -1.0295 
  27   0.0000      -0.002257        -0.0614 
  28   0.0000       0.003817         0.1039 
  29   0.0000       0.003817         0.1039 
  30   0.0000       0.004019         0.1094 
  31   0.0000       0.004267         0.1161 
  32   0.0000       0.024556         0.6682 
  33   0.0000       0.026048         0.7088 
  34   0.0000       0.026049         0.7088 
  35   0.0000       0.037510         1.0207 
  36   0.0000       0.062683         1.7057 
  37   0.0000       0.063801         1.7361 
  38   0.0000       0.063802         1.7361 
  39   0.0000       0.070300         1.9130 
  40   0.0000       0.070370         1.9149 
  41   0.0000       0.075925         2.0660 
  42   0.0000       0.099140         2.6977 
  43   0.0000       0.099142         2.6978 
  44   0.0000       0.100796         2.7428 
  45   0.0000       0.100796         2.7428 
  46   0.0000       0.108866         2.9624 
  47   0.0000       0.109185         2.9711 
  48   0.0000       0.122109         3.3227 
  49   0.0000       0.122109         3.3228 
  50   0.0000       0.123166         3.3515 
  51   0.0000       0.132210         3.5976 
  52   0.0000       0.153452         4.1756 
  53   0.0000       0.153452         4.1756 
  54   0.0000       0.200715         5.4617 
  55   0.0000       0.257847         7.0164 
  56   0.0000       0.262609         7.1459 
  57   0.0000       0.262665         7.1475 
  58   0.0000       0.296044         8.0558 
  59   0.0000       0.296046         8.0558 
  60   0.0000       0.313393         8.5279 
  61   0.0000       0.338672         9.2157 
  62   0.0000       0.338908         9.2222 
  63   0.0000       0.348004         9.4697 
  64   0.0000       0.348005         9.4697 
  65   0.0000       0.352277         9.5859 
  66   0.0000       0.364183         9.9099 
  67   0.0000       0.364462         9.9175 
  68   0.0000       0.379643        10.3306 
  69   0.0000       0.380670        10.3585 
  70   0.0000       0.380670        10.3586 
  71   0.0000       0.388213        10.5638 
  72   0.0000       0.388817        10.5802 
  73   0.0000       0.399111        10.8604 
  74   0.0000       0.399112        10.8604 
  75   0.0000       0.452127        12.3030 
  76   0.0000       0.456890        12.4326 
  77   0.0000       0.456893        12.4327 
  78   0.0000       0.511259        13.9121 
  79   0.0000       0.511260        13.9121 
  80   0.0000       0.573027        15.5929 
  81   0.0000       0.573058        15.5937 
  82   0.0000       0.574988        15.6462 
  83   0.0000       0.574988        15.6462 
  84   0.0000       0.603283        16.4162 
  85   0.0000       0.629257        17.1230 
  86   0.0000       0.629258        17.1230 
  87   0.0000       0.686724        18.6867 
  88   0.0000       0.687321        18.7029 
  89   0.0000       0.710081        19.3223 
  90   0.0000       0.847913        23.0729 
  91   0.0000       0.870142        23.6778 
  92   0.0000       0.870142        23.6778 
  93   0.0000       0.923925        25.1413 
  94   0.0000       0.923926        25.1413 
  95   0.0000       0.988964        26.9111 
  96   0.0000       1.048974        28.5440 
  97   0.0000       1.049228        28.5510 
  98   0.0000       1.090990        29.6873 
  99   0.0000       1.090990        29.6873 
 100   0.0000       1.114232        30.3198 
 101   0.0000       1.345731        36.6192 
 102   0.0000       1.346232        36.6328 
 103   0.0000       1.418991        38.6127 
 104   0.0000       1.477997        40.2183 
 105   0.0000       1.477997        40.2183 
 106   0.0000       1.641198        44.6593 
 107   0.0000       1.641199        44.6593 
 108   0.0000       1.641988        44.6808 
 109   0.0000       1.746403        47.5220 
 110   0.0000       1.838599        50.0308 
 111   0.0000       1.839025        50.0424 
 112   0.0000       1.841188        50.1013 
 113   0.0000       1.841188        50.1013 
 114   0.0000       1.846412        50.2434 
 115   0.0000       1.846677        50.2506 
 116   0.0000       1.962343        53.3981 
 117   0.0000       1.977041        53.7980 
 118   0.0000       1.977041        53.7980 
 119   0.0000       1.982699        53.9520 
 120   0.0000       1.983994        53.9872 
 121   0.0000       2.065483        56.2046 
 122   0.0000       2.065483        56.2046 
 123   0.0000       2.066335        56.2278 
 124   0.0000       2.101792        57.1927 
 125   0.0000       2.101792        57.1927 
 126   0.0000       2.108362        57.3715 
 127   0.0000       2.108610        57.3782 
 128   0.0000       2.188858        59.5619 
 129   0.0000       2.188859        59.5619 
 130   0.0000       2.250604        61.2421 
 131   0.0000       2.250604        61.2421 
 132   0.0000       2.308383        62.8143 
 133   0.0000       2.313583        62.9558 
 134   0.0000       2.313583        62.9558 
 135   0.0000       2.349481        63.9326 
 136   0.0000       2.350404        63.9577 
 137   0.0000       2.482014        67.5390 
 138   0.0000       2.584440        70.3262 
 139   0.0000       2.729849        74.2830 
 140   0.0000       2.729849        74.2830 
 141   0.0000       3.577552        97.3501 
 142   0.0000       5.507419       149.8645 

                    ********************************
                    * MULLIKEN POPULATION ANALYSIS *
                    ********************************

--------------------------------------------
MULLIKEN ATOMIC CHARGES AND SPIN POPULATIONS
--------------------------------------------
   0 Sc:    0.297225    1.067096
   1 S :   -0.297225   -0.067096
Sum of atomic charges         :   -0.0000000
Sum of atomic spin populations:    1.0000000

-----------------------------------------------------
MULLIKEN REDUCED ORBITAL CHARGES AND SPIN POPULATIONS
-----------------------------------------------------
CHARGE
  0 Scs       :     6.952391  s :     6.952391
      pz      :     4.143708  p :    12.277780
      px      :     4.067036
      py      :     4.067036
      dz2     :     0.610451  d :     1.425092
      dxz     :     0.407320
      dyz     :     0.407320
      dx2y2   :     0.000000
      dxy     :     0.000000
      f0      :     0.005110  f :     0.036818
      f+1     :     0.015854
      f-1     :     0.015854
      f+2     :     0.000000
      f-2     :     0.000000
      f+3     :     0.000000
      f-3     :     0.000000
      g0      :    -0.000213  g :     0.010695
      g+1     :     0.005454
      g-1     :     0.005454
      g+2     :     0.000000
      g-2     :    -0.000000
      g+3     :     0.000000
      g-3     :     0.000000
      g+4     :     0.000000
      g-4     :     0.000000
  1 S s       :     5.882697  s :     5.882697
      pz      :     3.396896  p :    10.381353
      px      :     3.492228
      py      :     3.492228
      dz2     :     0.006983  d :     0.027754
      dxz     :     0.010386
      dyz     :     0.010386
      dx2y2   :     0.000000
      dxy     :     0.000000
      f0      :     0.001977  f :     0.005421
      f+1     :     0.001722
      f-1     :     0.001722
      f+2     :     0.000000
      f-2     :     0.000000
      f+3     :     0.000000
      f-3     :     0.000000

SPIN
  0 Scs       :     0.694460  s :     0.694460
      pz      :     0.092822  p :     0.101999
      px      :     0.004588
      py      :     0.004588
      dz2     :     0.210284  d :     0.273828
      dxz     :     0.031772
      dyz     :     0.031772
      dx2y2   :     0.000000
      dxy     :     0.000000
      f0      :     0.000833  f :    -0.003342
      f+1     :    -0.002087
      f-1     :    -0.002087
      f+2     :     0.000000
      f-2     :     0.000000
      f+3     :     0.000000
      f-3     :     0.000000
      g0      :     0.000362  g :     0.000151
      g+1     :    -0.000106
      g-1     :    -0.000106
      g+2     :    -0.000000
      g-2     :    -0.000000
      g+3     :     0.000000
      g-3     :     0.000000
      g+4     :     0.000000
      g-4     :     0.000000
  1 S s       :     0.031305  s :     0.031305
      pz      :    -0.030738  p :    -0.100758
      px      :    -0.035010
      py      :    -0.035010
      dz2     :     0.000341  d :     0.001967
      dxz     :     0.000813
      dyz     :     0.000813
      dx2y2   :     0.000000
      dxy     :     0.000000
      f0      :     0.000331  f :     0.000390
      f+1     :     0.000030
      f-1     :     0.000030
      f+2     :     0.000000
      f-2     :     0.000000
      f+3     :    -0.000000
      f-3     :    -0.000000


                     *******************************
                     * LOEWDIN POPULATION ANALYSIS *
                     *******************************

-------------------------------------------
LOEWDIN ATOMIC CHARGES AND SPIN POPULATIONS
-------------------------------------------
   0 Sc:    0.092006    0.953440
   1 S :   -0.092006    0.046560

----------------------------------------------------
LOEWDIN REDUCED ORBITAL CHARGES AND SPIN POPULATIONS
----------------------------------------------------
CHARGE
  0 Scs       :     6.558626  s :     6.558626
      pz      :     4.236939  p :    12.214897
      px      :     3.988979
      py      :     3.988979
      dz2     :     0.774901  d :     1.675406
      dxz     :     0.450252
      dyz     :     0.450252
      dx2y2   :     0.000000
      dxy     :     0.000000
      f0      :     0.120232  f :     0.282132
      f+1     :     0.080950
      f-1     :     0.080950
      f+2     :     0.000000
      f-2     :     0.000000
      f+3     :     0.000000
      f-3     :     0.000000
      g0      :     0.065942  g :     0.176933
      g+1     :     0.055495
      g-1     :     0.055495
      g+2     :     0.000000
      g-2     :     0.000000
      g+3     :     0.000000
      g-3     :     0.000000
      g+4     :     0.000000
      g-4     :     0.000000
  1 S s       :     5.425194  s :     5.425194
      pz      :     3.524286  p :    10.167873
      px      :     3.321793
      py      :     3.321793
      dz2     :     0.188892  d :     0.308415
      dxz     :     0.059762
      dyz     :     0.059762
      dx2y2   :     0.000000
      dxy     :     0.000000
      f0      :     0.104988  f :     0.190525
      f+1     :     0.042769
      f-1     :     0.042769
      f+2     :     0.000000
      f-2     :     0.000000
      f+3     :     0.000000
      f-3     :     0.000000

SPIN
  0 Scs       :     0.628826  s :     0.628826
      pz      :     0.091687  p :     0.093021
      px      :     0.000667
      py      :     0.000667
      dz2     :     0.197670  d :     0.244387
      dxz     :     0.023358
      dyz     :     0.023358
      dx2y2   :     0.000000
      dxy     :     0.000000
      f0      :     0.000695  f :    -0.009399
      f+1     :    -0.005047
      f-1     :    -0.005047
      f+2     :     0.000000
      f-2     :     0.000000
      f+3     :     0.000000
      f-3     :     0.000000
      g0      :    -0.000300  g :    -0.003394
      g+1     :    -0.001547
      g-1     :    -0.001547
      g+2     :     0.000000
      g-2     :     0.000000
      g+3     :     0.000000
      g-3     :     0.000000
      g+4     :     0.000000
      g-4     :     0.000000
  1 S s       :     0.030988  s :     0.030988
      pz      :     0.042066  p :     0.001223
      px      :    -0.020422
      py      :    -0.020422
      dz2     :     0.006985  d :     0.011503
      dxz     :     0.002259
      dyz     :     0.002259
      dx2y2   :     0.000000
      dxy     :     0.000000
      f0      :     0.001383  f :     0.002846
      f+1     :     0.000731
      f-1     :     0.000731
      f+2     :     0.000000
      f-2     :     0.000000
      f+3     :    -0.000000
      f-3     :    -0.000000


                      *****************************
                      * MAYER POPULATION ANALYSIS *
                      *****************************

  NA   - Mulliken gross atomic population
  ZA   - Total nuclear charge
  QA   - Mulliken gross atomic charge
  VA   - Mayer's total valence
  BVA  - Mayer's bonded valence
  FA   - Mayer's free valence

  ATOM       NA         ZA         QA         VA         BVA        FA
  0 Sc    20.7028    21.0000     0.2972     3.4240     2.4955     0.9285
  1 S     16.2972    16.0000    -0.2972     2.5013     2.4955     0.0057

  Mayer bond orders larger than 0.100000
B(  0-Sc,  1-S ) :   2.4955 

-------
TIMINGS
-------

Total SCF time: 0 days 0 hours 0 min 6 sec 

Total time                  ....       6.708 sec
Sum of individual times     ....       6.520 sec  ( 97.2%)

Fock matrix formation       ....       5.989 sec  ( 89.3%)
  Split-RI-J                ....       4.220 sec  ( 70.5% of F)
  XC integration            ....       1.502 sec  ( 25.1% of F)
    Basis function eval.    ....       0.176 sec  ( 11.7% of XC)
    Density eval.           ....       0.199 sec  ( 13.2% of XC)
    XC-Functional eval.     ....       0.034 sec  (  2.2% of XC)
    XC-Potential eval.      ....       0.617 sec  ( 41.1% of XC)
Diagonalization             ....       0.173 sec  (  2.6%)
Density matrix formation    ....       0.021 sec  (  0.3%)
Population analysis         ....       0.008 sec  (  0.1%)
Initial guess               ....       0.102 sec  (  1.5%)
Orbital Transformation      ....       0.000 sec  (  0.0%)
Orbital Orthonormalization  ....       0.000 sec  (  0.0%)
DIIS solution               ....       0.064 sec  (  1.0%)
Grid generation             ....       0.164 sec  (  2.4%)


-------------------------------------------------------------------------------
                          DFT DISPERSION CORRECTION                            
                                                                               
                              DFTD3 V3.1  Rev 1                                
                          USING Becke-Johnson damping                          
-------------------------------------------------------------------------------
The SCAN functional is recognized
Active option DFTDOPT                   ...         4   

molecular C6(AA) [au] = 1166.728510 


            DFT-D V3
 parameters
 s6 scaling factor         :     1.0000 
 a1 scaling factor         :     0.5380 
 s8 scaling factor         :     0.0000 
 a2 scaling factor         :     5.4200 
 ad hoc parameters k1-k3   :    16.0000     1.3333    -4.0000 

 Edisp/kcal,au: -0.134563051868  -0.000214439850 
 E6   /kcal   :  -0.134563052 
 E8   /kcal   :  -0.000000000 
 % E8         :   0.000000000 

-------------------------   ----------------
Dispersion correction           -0.000214440
-------------------------   ----------------


-------------------------   --------------------
FINAL SINGLE POINT ENERGY     -1159.031916126697
-------------------------   --------------------


                            ***************************************
                            *     ORCA property calculations      *
                            ***************************************

                                    ---------------------
                                    Active property flags
                                    ---------------------
   (+) Dipole Moment


------------------------------------------------------------------------------
                       ORCA ELECTRIC PROPERTIES CALCULATION
------------------------------------------------------------------------------

Dipole Moment Calculation                       ... on
Quadrupole Moment Calculation                   ... off
Polarizability Calculation                      ... off
GBWName                                         ... 06_ScS.gbw
Electron density file                           ... 06_ScS.scfp
The origin for moment calculation is the CENTER OF MASS  = ( 0.000000,  0.000000  1.550810)

-------------
DIPOLE MOMENT
-------------
                                X             Y             Z
Electronic contribution:     -0.00000       0.00000      -4.52167
Nuclear contribution   :      0.00000       0.00000       2.42233
                        -----------------------------------------
Total Dipole Moment    :     -0.00000       0.00000      -2.09934
                        -----------------------------------------
Magnitude (a.u.)       :      2.09934
Magnitude (Debye)      :      5.33610



--------------------
Rotational spectrum 
--------------------
 
Rotational constants in cm-1:     0.000000     0.196398     0.196398 
Rotational constants in MHz :     0.000000  5887.862686  5887.862686 

 Dipole components along the rotational axes: 
x,y,z [a.u.] :    -2.099342     0.000000    -0.000000 
x,y,z [Debye]:    -5.336103     0.000001    -0.000001 

 

Timings for individual modules:

Sum of individual times         ...       10.114 sec (=   0.169 min)
GTO integral calculation        ...        3.044 sec (=   0.051 min)  30.1 %
SCF iterations                  ...        7.070 sec (=   0.118 min)  69.9 %
                             ****ORCA TERMINATED NORMALLY****
TOTAL RUN TIME: 0 days 0 hours 0 minutes 10 seconds 703 msec
