
                                 *****************
                                 * O   R   C   A *
                                 *****************

           --- An Ab Initio, DFT and Semiempirical electronic structure package ---

                  #######################################################
                  #                        -***-                        #
                  #          Department of theory and spectroscopy      #
                  #               Directorship: Frank Neese             #
                  #        Max Planck Institute fuer Kohlenforschung    #
                  #                Kaiser Wilhelm Platz 1               #
                  #                 D-45470 Muelheim/Ruhr               #
                  #                      Germany                        #
                  #                                                     #
                  #                  All rights reserved                #
                  #                        -***-                        #
                  #######################################################


                         Program Version 4.2.0 -  RELEASE  -


 With contributions from (in alphabetic order):
   Daniel Aravena         : Magnetic Suceptibility
   Michael Atanasov       : Ab Initio Ligand Field Theory (pilot matlab implementation)
   Alexander A. Auer      : GIAO ZORA, VPT2
   Ute Becker             : Parallelization
   Giovanni Bistoni       : ED, misc. LED, open-shell LED, HFLED
   Martin Brehm           : Molecular dynamics
   Dmytro Bykov           : SCF Hessian
   Vijay G. Chilkuri      : MRCI spin determinant printing, contributions to CSF-ICE
   Dipayan Datta          : RHF DLPNO-CCSD density
   Achintya Kumar Dutta   : EOM-CC, STEOM-CC
   Dmitry Ganyushin       : Spin-Orbit,Spin-Spin,Magnetic field MRCI
   Miquel Garcia          : C-PCM Hessian, Gaussian charge scheme
   Yang Guo               : DLPNO-NEVPT2, CIM, IAO-localization
   Andreas Hansen         : Spin unrestricted coupled pair/coupled cluster methods
   Benjamin Helmich-Paris : CASSCF linear response (MC-RPA)
   Lee Huntington         : MR-EOM, pCC
   Robert Izsak           : Overlap fitted RIJCOSX, COSX-SCS-MP3, EOM
   Christian Kollmar      : KDIIS, OOCD, Brueckner-CCSD(T), CCSD density
   Simone Kossmann        : Meta GGA functionals, TD-DFT gradient, OOMP2, MP2 Hessian
   Martin Krupicka        : AUTO-CI
   Lucas Lang             : DCDCAS
   Dagmar Lenk            : GEPOL surface, SMD
   Dimitrios Liakos       : Extrapolation schemes; Compound Job, initial MDCI parallelization
   Dimitrios Manganas     : Further ROCIS development; embedding schemes
   Dimitrios Pantazis     : SARC Basis sets
   Taras Petrenko         : DFT Hessian,TD-DFT gradient, ASA, ECA, R-Raman, ABS, FL, XAS/XES, NRVS
   Peter Pinski           : DLPNO-MP2, DLPNO-MP2 Gradient
   Christoph Reimann      : Effective Core Potentials
   Marius Retegan         : Local ZFS, SOC
   Christoph Riplinger    : Optimizer, TS searches, QM/MM, DLPNO-CCSD(T), (RO)-DLPNO pert. Triples
   Tobias Risthaus        : Range-separated hybrids, TD-DFT gradient, RPA, STAB
   Michael Roemelt        : Original ROCIS implementation
   Masaaki Saitow         : Open-shell DLPNO-CCSD energy and density
   Barbara Sandhoefer     : DKH picture change effects
   Avijit Sen             : IP-ROCIS
   Kantharuban Sivalingam : CASSCF convergence, NEVPT2, FIC-MRCI
   Bernardo de Souza      : ESD, SOC TD-DFT
   Georgi Stoychev        : AutoAux, RI-MP2 NMR
   Willem Van den Heuvel  : Paramagnetic NMR
   Boris Wezisla          : Elementary symmetry handling
   Frank Wennmohs         : Technical directorship


 We gratefully acknowledge several colleagues who have allowed us to
 interface, adapt or use parts of their codes:
   Stefan Grimme, W. Hujo, H. Kruse,             : VdW corrections, initial TS optimization,
                  C. Bannwarth                     DFT functionals, gCP, sTDA/sTD-DF
   Ed Valeev, F. Pavosevic, A. Kumar             : LibInt (2-el integral package), F12 methods
   Garnet Chan, S. Sharma, J. Yang, R. Olivares  : DMRG
   Ulf Ekstrom                                   : XCFun DFT Library
   Mihaly Kallay                                 : mrcc  (arbitrary order and MRCC methods)
   Andreas Klamt, Michael Diedenhofen            : otool_cosmo (COSMO solvation model)
   Jiri Pittner, Ondrej Demel                    : Mk-CCSD
   Frank Weinhold                                : gennbo (NPA and NBO analysis)
   Christopher J. Cramer and Donald G. Truhlar   : smd solvation model
   Lars Goerigk                                  : TD-DFT with DH, B97 family of functionals
   V. Asgeirsson, H. Jonsson                     : NEB implementation
   FAccTs GmbH                                   : IRC, NEB, NEB-TS, Multilevel, MM, QM/MM, CI optimization
   S Lehtola, MJT Oliveira, MAL Marques          : LibXC Library


 Your calculation uses the libint2 library for the computation of 2-el integrals
 For citations please refer to: http://libint.valeyev.net

 Your ORCA version has been built with support for libXC version: 4.2.3
 For citations please refer to: https://tddft.org/programs/libxc/

 This ORCA versions uses:
   CBLAS   interface :  Fast vector & matrix operations
   LAPACKE interface :  Fast linear algebra routines
   SCALAPACK package :  Parallel linear algebra routines


Your calculation utilizes the atom-pairwise dispersion correction
with the Becke-Johnson damping scheme (D3BJ)
Cite in your paper:
S.Grimme, S.Ehrlich, L.Goerigk, J Comput Chem, (2011), 32, 1456–1465 
S.Grimme, J.Antony, S.Ehrlich and H.Krieg, J.Chem.Phys., 132, (2010), 154104 
   

----- Orbital basis set information -----
Your calculation utilizes the basis: aug-cc-pVTZ 
    H, B-Ne : Obtained from the ccRepo (grant-hill.group.shef.ac.uk/ccrepo) Feb. 2017
              R. A. Kendall, T. H. Dunning, Jr., R. J. Harrison, J. Chem. Phys. 96, 6796 (1992)
         He : Obtained from the ccRepo (grant-hill.group.shef.ac.uk/ccrepo) Feb. 2017
              D. E. Woon, T. H. Dunning, Jr., J. Chem. Phys. 100, 2975 (1994)
  Li-Be, Na : Obtained from the ccRepo (grant-hill.group.shef.ac.uk/ccrepo) Feb. 2017
              B. P. Prascher, D. E. Woon, K. A. Peterson, T. H. Dunning, Jr., A. K. Wilson, Theor. Chem. Acc. 128, 69 (2011)
         Mg : Obtained from the Peterson Research Group Website (tyr0.chem.wsu.edu/~kipeters) Feb. 2017
              B. P. Prascher, D. E. Woon, K. A. Peterson, T. H. Dunning, Jr., A. K. Wilson, Theor. Chem. Acc. 128, 69 (2011)
      Al-Ar : Obtained from the ccRepo (grant-hill.group.shef.ac.uk/ccrepo) Feb. 2017
              D. E. Woon, T. H. Dunning, Jr., J. Chem. Phys. 98, 1358 (1993)
      Sc-Zn : Obtained from the ccRepo (grant-hill.group.shef.ac.uk/ccrepo) Feb. 2017
              N. B. Balabanov, K. A. Peterson, J. Chem. Phys. 123, 064107 (2005)
              N. B. Balabanov, K. A. Peterson, J. Chem. Phys. 125, 074110 (2006)
      Ga-Kr : Obtained from the ccRepo (grant-hill.group.shef.ac.uk/ccrepo) Feb. 2017
              A. K. Wilson, D. E. Woon, K. A. Peterson, T. H. Dunning, Jr., J. Chem. Phys. 110, 7667 (1999)
     Ag, Au : Obtained from the Peterson Research Group Website (tyr0.chem.wsu.edu/~kipeters) Feb. 2017
              K. A. Peterson, C. Puzzarini, Theor. Chem. Acc. 114, 283 (2005)

----- AuxJ basis set information -----
Your calculation utilizes the auxiliary basis: def2/J
   F. Weigend, Phys. Chem. Chem. Phys. 8, 1057 (2006).

================================================================================
                                        WARNINGS
                       Please study these warnings very carefully!
================================================================================


WARNING: your system is open-shell and RHF/RKS was chosen
  ===> : WILL SWITCH to UHF/UKS


WARNING: The SCAN functional is very grid-sensitive!
         Use at least GRID5 and a higher intacc

INFO   : the flag for use of LIBINT has been found!

================================================================================
                                       INPUT FILE
================================================================================
NAME = 08_TiF.in
|  1> #
|  2> # 08_TiF scanfunc/aug-cc-pvtz
|  3> #
|  4> ! scanfunc d3bj aug-cc-pvtz def2/j grid4 nofinalgrid
|  5> 
|  6> *xyz 0 4
|  7>   Ti  0.00000000000000      0.00000000000000      0.11041057480115
|  8>   F   0.00000000000000      0.00000000000000      1.88958942519885
|  9> *
| 10> 
| 11> %pal
| 12> nprocs 24
| 13> end
| 14> 
| 15> 
| 16>                          ****END OF INPUT****
================================================================================

                       ****************************
                       * Single Point Calculation *
                       ****************************

---------------------------------
CARTESIAN COORDINATES (ANGSTROEM)
---------------------------------
  Ti     0.000000    0.000000    0.110411
  F      0.000000    0.000000    1.889589

----------------------------
CARTESIAN COORDINATES (A.U.)
----------------------------
  NO LB      ZA    FRAG     MASS         X           Y           Z
   0 Ti   22.0000    0    47.900    0.000000    0.000000    0.208646
   1 F     9.0000    0    18.998    0.000000    0.000000    3.570807

--------------------------------
INTERNAL COORDINATES (ANGSTROEM)
--------------------------------
 Ti     0   0   0     0.000000000000     0.00000000     0.00000000
 F      1   0   0     1.779178850398     0.00000000     0.00000000

---------------------------
INTERNAL COORDINATES (A.U.)
---------------------------
 Ti     0   0   0     0.000000000000     0.00000000     0.00000000
 F      1   0   0     3.362160770517     0.00000000     0.00000000

---------------------
BASIS SET INFORMATION
---------------------
There are 2 groups of distinct atoms

 Group   1 Type Ti  : 116s77p23d3f2g contracted to 8s7p5d3f2g pattern {19191919191911/151515151511/77711/111/11}
 Group   2 Type F   : 19s6p3d2f contracted to 5s4p3d2f pattern {88111/3111/111/11}

Atom   0Ti   basis set group =>   1
Atom   1F    basis set group =>   2
---------------------------------
AUXILIARY/J BASIS SET INFORMATION
---------------------------------
There are 2 groups of distinct atoms

 Group   1 Type Ti  : 19s5p5d3f3g contracted to 8s5p5d2f3g pattern {121111111/11111/11111/21/111}
 Group   2 Type F   : 12s5p4d2f1g contracted to 6s4p3d1f1g pattern {711111/2111/211/2/1}

Atom   0Ti   basis set group =>   1
Atom   1F    basis set group =>   2


           ************************************************************
           *        Program running with 24 parallel MPI-processes    *
           *              working on a common directory               *
           ************************************************************
------------------------------------------------------------------------------
                           ORCA GTO INTEGRAL CALCULATION
                           -- RI-GTO INTEGRALS CHOSEN --
------------------------------------------------------------------------------

                         BASIS SET STATISTICS AND STARTUP INFO

Gaussian basis set:
 # of primitive gaussian shells          ...  251
 # of primitive gaussian functions       ...  567
 # of contracted shells                  ...   39
 # of contracted basis functions         ...  139
 Highest angular momentum                ...    4
 Maximum contraction depth               ...   19
Auxiliary gaussian basis set:
 # of primitive gaussian shells          ...   59
 # of primitive gaussian functions       ...  177
 # of contracted shells                  ...   38
 # of contracted aux-basis functions     ...  138
 Highest angular momentum                ...    4
 Maximum contraction depth               ...   12
Ratio of auxiliary to basis functions    ...  0.99
Integral package used                  ... LIBINT
 One Electron integrals                  ... done
 Ordering auxiliary basis shells         ... done
 Integral threshhold             Thresh  ...  1.000e-10
 Primitive cut-off               TCut    ...  1.000e-11
 Pre-screening matrix                    ... done
 Shell pair data                         ... 
 Ordering of the shell pairs             ... done (   0.000 sec) 780 of 780 pairs
 Determination of significant pairs      ... done (   0.000 sec)
 Creation of shell pair data             ... done (   0.001 sec)
 Storage of shell pair data              ... done (   0.014 sec)
 Shell pair data done in (   0.015 sec)
 Computing two index integrals           ... done
 Cholesky decomposition of the V-matrix  ... done


Timings:
 Total evaluation time                   ...   2.261 sec (  0.038 min)
 One electron matrix time                ...   0.044 sec (  0.001 min) =  2.0%
 Schwartz matrix evaluation time         ...   2.163 sec (  0.036 min) = 95.7%
 Two index repulsion integral time       ...   0.001 sec (  0.000 min) =  0.0%
 Cholesky decomposition of V             ...   0.001 sec (  0.000 min) =  0.0%
 Three index repulsion integral time     ...   0.000 sec (  0.000 min) =  0.0%



           ************************************************************
           *        Program running with 24 parallel MPI-processes    *
           *              working on a common directory               *
           ************************************************************
-------------------------------------------------------------------------------
                                 ORCA SCF
-------------------------------------------------------------------------------

------------
SCF SETTINGS
------------
Hamiltonian:
 Density Functional     Method          .... DFT(GTOs)
 Exchange Functional    Exchange        .... SCAN
 Correlation Functional Correlation     .... SCAN
 Gradients option       PostSCFGGA      .... off
   Density functional embedding theory  .... OFF
   NL short-range parameter             ....  6.400000
 RI-approximation to the Coulomb term is turned on
   Number of auxiliary basis functions  .... 138


General Settings:
 Integral files         IntName         .... 08_TiF
 Hartree-Fock type      HFTyp           .... UHF
 Total Charge           Charge          ....    0
 Multiplicity           Mult            ....    4
 Number of Electrons    NEL             ....   31
 Basis Dimension        Dim             ....  139
 Nuclear Repulsion      ENuc            ....     58.8906996168 Eh

Convergence Acceleration:
 DIIS                   CNVDIIS         .... on
   Start iteration      DIISMaxIt       ....    12
   Startup error        DIISStart       ....  0.200000
   # of expansion vecs  DIISMaxEq       ....     5
   Bias factor          DIISBfac        ....   1.050
   Max. coefficient     DIISMaxC        ....  10.000
 Newton-Raphson         CNVNR           .... off
 SOSCF                  CNVSOSCF        .... off
 Level Shifting         CNVShift        .... on
   Level shift para.    LevelShift      ....    0.2500
   Turn off err/grad.   ShiftErr        ....    0.0010
 Zerner damping         CNVZerner       .... off
 Static damping         CNVDamp         .... on
   Fraction old density DampFac         ....    0.7000
   Max. Damping (<1)    DampMax         ....    0.9800
   Min. Damping (>=0)   DampMin         ....    0.0000
   Turn off err/grad.   DampErr         ....    0.1000
 Fernandez-Rico         CNVRico         .... off

SCF Procedure:
 Maximum # iterations   MaxIter         ....   125
 SCF integral mode      SCFMode         .... Direct
   Integral package                     .... LIBINT
 Reset frequency        DirectResetFreq ....    20
 Integral Threshold     Thresh          ....  1.000e-10 Eh
 Primitive CutOff       TCut            ....  1.000e-11 Eh

Convergence Tolerance:
 Convergence Check Mode ConvCheckMode   .... Total+1el-Energy
 Convergence forced     ConvForced      .... 0
 Energy Change          TolE            ....  1.000e-06 Eh
 1-El. energy change                    ....  1.000e-03 Eh
 DIIS Error             TolErr          ....  1.000e-06


Diagonalization of the overlap matrix:
Smallest eigenvalue                        ... 5.754e-05
Time for diagonalization                   ...    0.005 sec
Threshold for overlap eigenvalues          ... 1.000e-08
Number of eigenvalues below threshold      ... 0
Time for construction of square roots      ...    0.017 sec
Total time needed                          ...    0.022 sec

-------------------
DFT GRID GENERATION
-------------------

General Integration Accuracy     IntAcc      ...  4.670
Radial Grid Type                 RadialGrid  ... Gauss-Chebyshev
Angular Grid (max. acc.)         AngularGrid ... Lebedev-302
Angular grid pruning method      GridPruning ... 3 (G Style)
Weight generation scheme         WeightScheme... Becke
Basis function cutoff            BFCut       ...    1.0000e-10
Integration weight cutoff        WCut        ...    1.0000e-14
Grids for H and He will be reduced by one unit

# of grid points (after initial pruning)     ...  15936 (   0.0 sec)
# of grid points (after weights+screening)   ...  15887 (   0.0 sec)
nearest neighbour list constructed           ...    0.0 sec
Grid point re-assignment to atoms done       ...    0.0 sec
Grid point division into batches done        ...    0.1 sec
Reduced shell lists constructed in    0.1 sec

Total number of grid points                  ...    15887
Total number of batches                      ...      250
Average number of points per batch           ...       63
Average number of grid points per atom       ...     7944
Average number of shells per batch           ...    18.42 (47.22%)
Average number of basis functions per batch  ...    52.08 (37.47%)
Average number of large shells per batch     ...    12.25 (66.52%)
Average number of large basis fcns per batch ...    35.42 (68.00%)
Maximum spatial batch extension              ...  28.57, 31.41, 18.49 au
Average spatial batch extension              ...   0.88,  0.94,  0.67 au

Time for grid setup =    0.148 sec

------------------------------
INITIAL GUESS: MODEL POTENTIAL
------------------------------
Loading Hartree-Fock densities                     ... done
Calculating cut-offs                               ... done
Setting up the integral package                    ... done
Initializing the effective Hamiltonian             ... done
Starting the Coulomb interaction                   ... done (   0.0 sec)
Reading the grid                                   ... done
Mapping shells                                     ... done
Starting the XC term evaluation                    ... done (   0.0 sec)
  promolecular density results
     # of electrons  =     31.000007701
     EX              =    -57.092975751
     EC              =     -0.528211923
     EX+EC           =    -57.621187674
Transforming the Hamiltonian                       ... done (   0.0 sec)
Diagonalizing the Hamiltonian                      ... done (   0.0 sec)
Back transforming the eigenvectors                 ... done (   0.0 sec)
Now organizing SCF variables                       ... done
                      ------------------
                      INITIAL GUESS DONE (   0.2 sec)
                      ------------------
--------------
SCF ITERATIONS
--------------
ITER       Energy         Delta-E        Max-DP      RMS-DP      [F,P]     Damp
               ***  Starting incremental Fock matrix formation  ***
  0   -948.8967486034   0.000000000000 0.59785697  0.01127170  0.5576582 0.7000
  1   -949.1077018038  -0.210953200395 0.38306437  0.00793800  0.1942226 0.7000
                               ***Turning on DIIS***
  2   -949.1699144954  -0.062212691583 0.95070009  0.01692403  0.0412610 0.0000
  3   -949.2671894006  -0.097274905244 0.01299402  0.00026543  0.1129539 0.7000
  4   -949.2789442039  -0.011754803268 0.05744207  0.00113132  0.0980829 0.0000
  5   -949.3136088793  -0.034664675397 0.05689919  0.00089467  0.0411871 0.0000
  6   -949.3227133465  -0.009104467205 0.04547717  0.00066113  0.0190694 0.0000
  7   -949.3290398940  -0.006326547510 0.04936961  0.00076336  0.0151494 0.0000
  8   -949.3359093900  -0.006869496014 0.05323219  0.00058581  0.0160127 0.0000
  9   -949.3421611849  -0.006251794864 0.05199859  0.00065672  0.0164718 0.0000
 10   -949.3480582272  -0.005897042276 0.05129323  0.00054049  0.0167304 0.0000
 11   -949.3528760206  -0.004817793429 0.06665809  0.00108292  0.0144582 0.0000
 12   -949.3565741735  -0.003698152891 0.03234188  0.00058748  0.0145707 0.0000
 13   -949.3595026100  -0.002928436516 0.03298288  0.00056259  0.0113061 0.0000
 14   -949.3613235537  -0.001820943692 0.01953979  0.00035838  0.0092554 0.0000
 15   -949.3625700399  -0.001246486208 0.01713169  0.00024770  0.0079084 0.0000
 16   -949.3634967009  -0.000926661053 0.01493721  0.00022595  0.0063656 0.0000
 17   -949.3641155041  -0.000618803127 0.01329130  0.00022554  0.0051956 0.0000
 18   -949.3645325459  -0.000417041822 0.01133021  0.00016119  0.0042909 0.0000
 19   -949.3648335545  -0.000301008644 0.01007705  0.00016643  0.0034910 0.0000
               *** Restarting incremental Fock matrix formation ***
                                   *** Resetting DIIS ***
 20   -949.3650228926  -0.000189338072 0.01686233  0.00029352  0.0030329 0.0000
 21   -949.3651434264  -0.000120533793 0.00964479  0.00018579  0.0040823 0.0000
 22   -949.3652374014  -0.000093975000 0.00442830  0.00005960  0.0018399 0.0000
 23   -949.3652928296  -0.000055428174 0.00422590  0.00006289  0.0016124 0.0000
 24   -949.3653357628  -0.000042933235 0.00602216  0.00009128  0.0013861 0.0000
 25   -949.3653695542  -0.000033791433 0.00271729  0.00005736  0.0011772 0.0000
 26   -949.3653895103  -0.000019956087 0.00640336  0.00009398  0.0010034 0.0000
 27   -949.3654087997  -0.000019289378 0.01280003  0.00012917  0.0008599 0.0000
 28   -949.3654482468  -0.000039447112 0.00218552  0.00003159  0.0004623 0.0000
 29   -949.3654509741  -0.000002727271 0.00185668  0.00001665  0.0001677 0.0000
 30   -949.3654523508  -0.000001376683 0.00155557  0.00001376  0.0001617 0.0000
 31   -949.3654535798  -0.000001229050 0.00019391  0.00000342  0.0001756 0.0000
 32   -949.3654535031   0.000000076707 0.00092628  0.00000959  0.0001768 0.0000
                 **** Energy Check signals convergence ****

               *****************************************************
               *                     SUCCESS                       *
               *           SCF CONVERGED AFTER  33 CYCLES          *
               *****************************************************


----------------
TOTAL SCF ENERGY
----------------

Total Energy       :         -949.36545440 Eh          -25833.54737 eV

Components:
Nuclear Repulsion  :           58.89069962 Eh            1602.49741 eV
Electronic Energy  :        -1008.25615401 Eh          -27436.04477 eV
One Electron Energy:        -1422.05351950 Eh          -38696.04353 eV
Two Electron Energy:          413.79736549 Eh           11259.99876 eV

Virial components:
Potential Energy   :        -1896.89411665 Eh          -51617.11308 eV
Kinetic Energy     :          947.52866226 Eh           25783.56571 eV
Virial Ratio       :            2.00193851


DFT components:
N(Alpha)           :       17.000005648536 electrons
N(Beta)            :       14.000006641681 electrons
N(Total)           :       31.000012290218 electrons
E(X)               :      -51.439062963392 Eh       
E(C)               :       -1.196294215239 Eh       
E(XC)              :      -52.635357178631 Eh       
DFET-embed. en.    :        0.000000000000 Eh       

---------------
SCF CONVERGENCE
---------------

  Last Energy change         ...   -8.9399e-07  Tolerance :   1.0000e-06
  Last MAX-Density change    ...    6.3778e-04  Tolerance :   1.0000e-05
  Last RMS-Density change    ...    5.7374e-06  Tolerance :   1.0000e-06
  Last DIIS Error            ...    1.8525e-04  Tolerance :   1.0000e-06

             **** THE GBW FILE WAS UPDATED (08_TiF.gbw) ****
             **** DENSITY FILE WAS UPDATED (08_TiF.scfp) ****
             **** ENERGY FILE WAS UPDATED (08_TiF.en.tmp) ****
----------------------
UHF SPIN CONTAMINATION
----------------------

Warning: in a DFT calculation there is little theoretical justification to 
         calculate <S**2> as in Hartree-Fock theory. We will do it anyways
         but you should keep in mind that the values have only limited relevance

Expectation value of <S**2>     :     3.756676
Ideal value S*(S+1) for S=1.5   :     3.750000
Deviation                       :     0.006676

             **** THE GBW FILE WAS UPDATED (08_TiF.gbw) ****
             **** DENSITY FILE WAS UPDATED (08_TiF.scfp) ****
----------------
ORBITAL ENERGIES
----------------
                 SPIN UP ORBITALS
  NO   OCC          E(Eh)            E(eV) 
   0   1.0000    -178.522788     -4857.8520 
   1   1.0000     -24.458134      -665.5397 
   2   1.0000     -19.736807      -537.0658 
   3   1.0000     -16.455274      -447.7708 
   4   1.0000     -16.447259      -447.5527 
   5   1.0000     -16.442498      -447.4231 
   6   1.0000      -2.294141       -62.4267 
   7   1.0000      -1.434614       -39.0378 
   8   1.0000      -1.421425       -38.6789 
   9   1.0000      -1.418856       -38.6090 
  10   1.0000      -1.058594       -28.8058 
  11   1.0000      -0.363925        -9.9029 
  12   1.0000      -0.355643        -9.6775 
  13   1.0000      -0.346298        -9.4233 
  14   1.0000      -0.172001        -4.6804 
  15   1.0000      -0.166145        -4.5210 
  16   1.0000      -0.137090        -3.7304 
  17   0.0000      -0.103454        -2.8151 
  18   0.0000      -0.097833        -2.6622 
  19   0.0000      -0.067797        -1.8449 
  20   0.0000      -0.036747        -0.9999 
  21   0.0000      -0.034400        -0.9361 
  22   0.0000       0.014916         0.4059 
  23   0.0000       0.019562         0.5323 
  24   0.0000       0.031789         0.8650 
  25   0.0000       0.033996         0.9251 
  26   0.0000       0.047795         1.3006 
  27   0.0000       0.048046         1.3074 
  28   0.0000       0.049094         1.3359 
  29   0.0000       0.050441         1.3726 
  30   0.0000       0.051088         1.3902 
  31   0.0000       0.061350         1.6694 
  32   0.0000       0.099319         2.7026 
  33   0.0000       0.130334         3.5466 
  34   0.0000       0.137998         3.7551 
  35   0.0000       0.138066         3.7570 
  36   0.0000       0.141234         3.8432 
  37   0.0000       0.145782         3.9669 
  38   0.0000       0.146085         3.9752 
  39   0.0000       0.146672         3.9912 
  40   0.0000       0.201178         5.4743 
  41   0.0000       0.238265         6.4835 
  42   0.0000       0.246936         6.7195 
  43   0.0000       0.248646         6.7660 
  44   0.0000       0.248650         6.7661 
  45   0.0000       0.248745         6.7687 
  46   0.0000       0.249903         6.8002 
  47   0.0000       0.251312         6.8385 
  48   0.0000       0.342405         9.3173 
  49   0.0000       0.349885         9.5209 
  50   0.0000       0.355392         9.6707 
  51   0.0000       0.388091        10.5605 
  52   0.0000       0.488526        13.2935 
  53   0.0000       0.504609        13.7311 
  54   0.0000       0.525281        14.2936 
  55   0.0000       0.525931        14.3113 
  56   0.0000       0.530756        14.4426 
  57   0.0000       0.533960        14.5298 
  58   0.0000       0.546876        14.8812 
  59   0.0000       0.605758        16.4835 
  60   0.0000       0.772570        21.0227 
  61   0.0000       0.792674        21.5698 
  62   0.0000       0.796363        21.6701 
  63   0.0000       0.883348        24.0371 
  64   0.0000       0.893483        24.3129 
  65   0.0000       0.894331        24.3360 
  66   0.0000       0.903508        24.5857 
  67   0.0000       0.904947        24.6249 
  68   0.0000       0.907508        24.6945 
  69   0.0000       0.909713        24.7545 
  70   0.0000       0.916305        24.9339 
  71   0.0000       0.917444        24.9649 
  72   0.0000       0.921707        25.0809 
  73   0.0000       0.955700        26.0059 
  74   0.0000       0.998467        27.1697 
  75   0.0000       1.003006        27.2932 
  76   0.0000       1.049931        28.5701 
  77   0.0000       1.083616        29.4867 
  78   0.0000       1.085986        29.5512 
  79   0.0000       1.182617        32.1806 
  80   0.0000       1.186687        32.2914 
  81   0.0000       1.386446        37.7271 
  82   0.0000       1.507882        41.0315 
  83   0.0000       1.639836        44.6222 
  84   0.0000       1.646565        44.8053 
  85   0.0000       1.878012        51.1033 
  86   0.0000       1.880643        51.1749 
  87   0.0000       1.882484        51.2250 
  88   0.0000       2.042088        55.5680 
  89   0.0000       2.056709        55.9659 
  90   0.0000       2.068709        56.2924 
  91   0.0000       2.111226        57.4494 
  92   0.0000       2.139830        58.2277 
  93   0.0000       2.228813        60.6491 
  94   0.0000       2.527506        68.7769 
  95   0.0000       2.608960        70.9934 
  96   0.0000       2.610430        71.0334 
  97   0.0000       2.655920        72.2713 
  98   0.0000       2.658875        72.3517 
  99   0.0000       2.803215        76.2794 
 100   0.0000       2.804593        76.3169 
 101   0.0000       2.984824        81.2212 
 102   0.0000       2.986891        81.2774 
 103   0.0000       3.062511        83.3352 
 104   0.0000       3.200044        87.0776 
 105   0.0000       3.203264        87.1652 
 106   0.0000       3.258931        88.6800 
 107   0.0000       3.261984        88.7631 
 108   0.0000       3.262471        88.7763 
 109   0.0000       3.270567        88.9967 
 110   0.0000       3.315505        90.2195 
 111   0.0000       3.402513        92.5871 
 112   0.0000       3.417253        92.9882 
 113   0.0000       3.428001        93.2807 
 114   0.0000       3.428434        93.2924 
 115   0.0000       3.486847        94.8819 
 116   0.0000       3.503991        95.3484 
 117   0.0000       3.613292        98.3227 
 118   0.0000       3.622148        98.5636 
 119   0.0000       3.765992       102.4779 
 120   0.0000       4.069351       110.7327 
 121   0.0000       4.073397       110.8428 
 122   0.0000       4.506583       122.6303 
 123   0.0000       5.004755       136.1863 
 124   0.0000       5.008946       136.3003 
 125   0.0000       5.562281       151.3574 
 126   0.0000       8.558709       232.8943 
 127   0.0000       8.559284       232.9100 
 128   0.0000       8.682027       236.2500 
 129   0.0000       8.683132       236.2800 
 130   0.0000       8.935564       243.1490 
 131   0.0000       8.936831       243.1835 
 132   0.0000       8.962009       243.8687 
 133   0.0000       8.964073       243.9248 
 134   0.0000       8.978705       244.3230 
 135   0.0000       9.047032       246.1823 
 136   0.0000       9.051770       246.3112 
 137   0.0000       9.208192       250.5676 
 138   0.0000      13.518071       367.8454 

                 SPIN DOWN ORBITALS
  NO   OCC          E(Eh)            E(eV) 
   0   1.0000    -178.522586     -4857.8465 
   1   1.0000     -24.459172      -665.5679 
   2   1.0000     -19.715275      -536.4799 
   3   1.0000     -16.435862      -447.2425 
   4   1.0000     -16.431128      -447.1137 
   5   1.0000     -16.418541      -446.7712 
   6   1.0000      -2.246656       -61.1346 
   7   1.0000      -1.380013       -37.5521 
   8   1.0000      -1.374819       -37.4107 
   9   1.0000      -1.337638       -36.3990 
  10   1.0000      -1.057681       -28.7810 
  11   1.0000      -0.364629        -9.9221 
  12   1.0000      -0.349896        -9.5212 
  13   1.0000      -0.342152        -9.3104 
  14   0.0000      -0.065062        -1.7704 
  15   0.0000      -0.049906        -1.3580 
  16   0.0000      -0.041267        -1.1229 
  17   0.0000      -0.022408        -0.6098 
  18   0.0000      -0.020794        -0.5658 
  19   0.0000      -0.013535        -0.3683 
  20   0.0000      -0.002038        -0.0554 
  21   0.0000       0.004303         0.1171 
  22   0.0000       0.012102         0.3293 
  23   0.0000       0.018637         0.5071 
  24   0.0000       0.031880         0.8675 
  25   0.0000       0.036052         0.9810 
  26   0.0000       0.036122         0.9829 
  27   0.0000       0.041955         1.1417 
  28   0.0000       0.042284         1.1506 
  29   0.0000       0.043411         1.1813 
  30   0.0000       0.043624         1.1871 
  31   0.0000       0.071667         1.9502 
  32   0.0000       0.100560         2.7364 
  33   0.0000       0.141647         3.8544 
  34   0.0000       0.142729         3.8839 
  35   0.0000       0.143524         3.9055 
  36   0.0000       0.144735         3.9384 
  37   0.0000       0.147231         4.0064 
  38   0.0000       0.151907         4.1336 
  39   0.0000       0.153668         4.1815 
  40   0.0000       0.212615         5.7856 
  41   0.0000       0.237250         6.4559 
  42   0.0000       0.246289         6.7019 
  43   0.0000       0.247181         6.7261 
  44   0.0000       0.248014         6.7488 
  45   0.0000       0.249178         6.7805 
  46   0.0000       0.252371         6.8674 
  47   0.0000       0.257217         6.9992 
  48   0.0000       0.328460         8.9379 
  49   0.0000       0.331031         9.0078 
  50   0.0000       0.331115         9.0101 
  51   0.0000       0.407332        11.0841 
  52   0.0000       0.499839        13.6013 
  53   0.0000       0.554164        15.0796 
  54   0.0000       0.556935        15.1550 
  55   0.0000       0.559378        15.2215 
  56   0.0000       0.562962        15.3190 
  57   0.0000       0.576514        15.6877 
  58   0.0000       0.587894        15.9974 
  59   0.0000       0.635724        17.2989 
  60   0.0000       0.782611        21.2959 
  61   0.0000       0.805390        21.9158 
  62   0.0000       0.806006        21.9325 
  63   0.0000       0.903781        24.5931 
  64   0.0000       0.905571        24.6418 
  65   0.0000       0.910594        24.7785 
  66   0.0000       0.913918        24.8690 
  67   0.0000       0.919386        25.0178 
  68   0.0000       0.920081        25.0367 
  69   0.0000       0.954357        25.9694 
  70   0.0000       0.955262        25.9940 
  71   0.0000       0.959243        26.1023 
  72   0.0000       0.992086        26.9960 
  73   0.0000       0.994059        27.0497 
  74   0.0000       1.013974        27.5916 
  75   0.0000       1.016634        27.6640 
  76   0.0000       1.063192        28.9309 
  77   0.0000       1.083192        29.4752 
  78   0.0000       1.088070        29.6079 
  79   0.0000       1.198249        32.6060 
  80   0.0000       1.199680        32.6450 
  81   0.0000       1.391726        37.8708 
  82   0.0000       1.535678        41.7879 
  83   0.0000       1.668365        45.3985 
  84   0.0000       1.673212        45.5304 
  85   0.0000       1.932688        52.5911 
  86   0.0000       1.935502        52.6677 
  87   0.0000       1.952439        53.1286 
  88   0.0000       2.116906        57.6039 
  89   0.0000       2.141212        58.2654 
  90   0.0000       2.171988        59.1028 
  91   0.0000       2.193294        59.6826 
  92   0.0000       2.197351        59.7930 
  93   0.0000       2.261106        61.5278 
  94   0.0000       2.543136        69.2022 
  95   0.0000       2.622483        71.3614 
  96   0.0000       2.623953        71.4014 
  97   0.0000       2.683203        73.0137 
  98   0.0000       2.691303        73.2341 
  99   0.0000       2.818033        76.6826 
 100   0.0000       2.818051        76.6831 
 101   0.0000       3.016516        82.0836 
 102   0.0000       3.017919        82.1217 
 103   0.0000       3.120352        84.9091 
 104   0.0000       3.248596        88.3988 
 105   0.0000       3.258763        88.6755 
 106   0.0000       3.383499        92.0697 
 107   0.0000       3.406214        92.6878 
 108   0.0000       3.406737        92.7020 
 109   0.0000       3.421379        93.1005 
 110   0.0000       3.422717        93.1369 
 111   0.0000       3.533484        96.1510 
 112   0.0000       3.538536        96.2885 
 113   0.0000       3.541358        96.3653 
 114   0.0000       3.548203        96.5515 
 115   0.0000       3.600721        97.9806 
 116   0.0000       3.613852        98.3379 
 117   0.0000       3.700256       100.6891 
 118   0.0000       3.736876       101.6856 
 119   0.0000       3.832397       104.2848 
 120   0.0000       4.147008       112.8458 
 121   0.0000       4.162624       113.2708 
 122   0.0000       4.563290       124.1734 
 123   0.0000       5.016017       136.4928 
 124   0.0000       5.022296       136.6636 
 125   0.0000       5.578803       151.8069 
 126   0.0000       8.564920       233.0633 
 127   0.0000       8.564959       233.0644 
 128   0.0000       8.687177       236.3901 
 129   0.0000       8.687442       236.3973 
 130   0.0000       8.941731       243.3169 
 131   0.0000       8.943006       243.3516 
 132   0.0000       8.961789       243.8627 
 133   0.0000       8.967060       244.0061 
 134   0.0000       8.983508       244.4537 
 135   0.0000       9.045620       246.1438 
 136   0.0000       9.051052       246.2917 
 137   0.0000       9.201940       250.3975 
 138   0.0000      13.530465       368.1827 

                    ********************************
                    * MULLIKEN POPULATION ANALYSIS *
                    ********************************

--------------------------------------------
MULLIKEN ATOMIC CHARGES AND SPIN POPULATIONS
--------------------------------------------
   0 Ti:    0.565897    3.019178
   1 F :   -0.565897   -0.019178
Sum of atomic charges         :    0.0000000
Sum of atomic spin populations:    3.0000000

-----------------------------------------------------
MULLIKEN REDUCED ORBITAL CHARGES AND SPIN POPULATIONS
-----------------------------------------------------
CHARGE
  0 Tis       :     6.830426  s :     6.830426
      pz      :     4.041942  p :    12.152161
      px      :     4.019416
      py      :     4.090802
      dz2     :     0.348456  d :     2.425264
      dxz     :     0.181546
      dyz     :     0.882611
      dx2y2   :     0.375986
      dxy     :     0.636666
      f0      :     0.008993  f :     0.023809
      f+1     :     0.005322
      f-1     :     0.008681
      f+2     :     0.000249
      f-2     :     0.000276
      f+3     :     0.000149
      f-3     :     0.000139
      g0      :     0.001473  g :     0.002443
      g+1     :     0.000051
      g-1     :     0.000647
      g+2     :     0.000051
      g-2     :     0.000030
      g+3     :     0.000005
      g-3     :     0.000004
      g+4     :     0.000032
      g-4     :     0.000151
  1 F s       :     3.982283  s :     3.982283
      pz      :     1.768430  p :     5.567471
      px      :     1.877466
      py      :     1.921575
      dz2     :     0.003123  d :     0.014101
      dxz     :     0.005167
      dyz     :     0.005216
      dx2y2   :     0.000234
      dxy     :     0.000360
      f0      :     0.000729  f :     0.002042
      f+1     :     0.000562
      f-1     :     0.000640
      f+2     :     0.000043
      f-2     :     0.000067
      f+3     :     0.000000
      f-3     :     0.000000

SPIN
  0 Tis       :     0.789855  s :     0.789855
      pz      :     0.042179  p :     0.134165
      px      :     0.009965
      py      :     0.082022
      dz2     :     0.178634  d :     2.094309
      dxz     :     0.095831
      dyz     :     0.807471
      dx2y2   :     0.375805
      dxy     :     0.636569
      f0      :    -0.000562  f :     0.001419
      f+1     :    -0.001168
      f-1     :     0.002554
      f+2     :     0.000191
      f-2     :     0.000246
      f+3     :     0.000106
      f-3     :     0.000052
      g0      :    -0.000054  g :    -0.000571
      g+1     :    -0.000741
      g-1     :    -0.000026
      g+2     :     0.000046
      g-2     :     0.000027
      g+3     :     0.000003
      g-3     :     0.000002
      g+4     :     0.000031
      g-4     :     0.000141
  1 F s       :     0.002222  s :     0.002222
      pz      :    -0.027049  p :    -0.024677
      px      :    -0.015009
      py      :     0.017381
      dz2     :     0.000896  d :     0.002876
      dxz     :     0.000719
      dyz     :     0.000669
      dx2y2   :     0.000233
      dxy     :     0.000359
      f0      :     0.000121  f :     0.000401
      f+1     :     0.000052
      f-1     :     0.000119
      f+2     :     0.000043
      f-2     :     0.000067
      f+3     :    -0.000000
      f-3     :    -0.000000


                     *******************************
                     * LOEWDIN POPULATION ANALYSIS *
                     *******************************

-------------------------------------------
LOEWDIN ATOMIC CHARGES AND SPIN POPULATIONS
-------------------------------------------
   0 Ti:    0.287739    2.903799
   1 F :   -0.287739    0.096201

----------------------------------------------------
LOEWDIN REDUCED ORBITAL CHARGES AND SPIN POPULATIONS
----------------------------------------------------
CHARGE
  0 Tis       :     6.560587  s :     6.560587
      pz      :     4.056264  p :    12.135647
      px      :     3.992547
      py      :     4.086835
      dz2     :     0.482841  d :     2.578894
      dxz     :     0.223643
      dyz     :     0.868095
      dx2y2   :     0.372895
      dxy     :     0.631420
      f0      :     0.115543  f :     0.259427
      f+1     :     0.064768
      f-1     :     0.077758
      f+2     :     0.000447
      f-2     :     0.000624
      f+3     :     0.000149
      f-3     :     0.000139
      g0      :     0.067247  g :     0.177706
      g+1     :     0.052537
      g-1     :     0.057363
      g+2     :     0.000163
      g-2     :     0.000204
      g+3     :     0.000005
      g-3     :     0.000004
      g+4     :     0.000032
      g-4     :     0.000151
  1 F s       :     3.662601  s :     3.662601
      pz      :     1.891649  p :     5.369683
      px      :     1.720781
      py      :     1.757253
      dz2     :     0.126537  d :     0.217014
      dxz     :     0.030406
      dyz     :     0.053284
      dx2y2   :     0.002530
      dxy     :     0.004257
      f0      :     0.022585  f :     0.038441
      f+1     :     0.004850
      f-1     :     0.009584
      f+2     :     0.000529
      f-2     :     0.000893
      f+3     :     0.000000
      f-3     :     0.000000

SPIN
  0 Tis       :     0.717298  s :     0.717298
      pz      :     0.051861  p :     0.169310
      px      :     0.011874
      py      :     0.105575
      dz2     :     0.172193  d :     2.004614
      dxz     :     0.087873
      dyz     :     0.740510
      dx2y2   :     0.372715
      dxy     :     0.631323
      f0      :    -0.000077  f :     0.010510
      f+1     :    -0.001096
      f-1     :     0.010541
      f+2     :     0.000389
      f-2     :     0.000594
      f+3     :     0.000106
      f-3     :     0.000052
      g0      :    -0.000126  g :     0.002067
      g+1     :    -0.001225
      g-1     :     0.002882
      g+2     :     0.000158
      g-2     :     0.000201
      g+3     :     0.000003
      g-3     :     0.000002
      g+4     :     0.000031
      g-4     :     0.000141
  1 F s       :     0.023468  s :     0.023468
      pz      :     0.020616  p :     0.028450
      px      :    -0.011464
      py      :     0.019298
      dz2     :     0.000301  d :     0.036284
      dxz     :     0.003133
      dyz     :     0.026066
      dx2y2   :     0.002528
      dxy     :     0.004257
      f0      :     0.000709  f :     0.007999
      f+1     :     0.000553
      f-1     :     0.005317
      f+2     :     0.000528
      f-2     :     0.000893
      f+3     :    -0.000000
      f-3     :    -0.000000


                      *****************************
                      * MAYER POPULATION ANALYSIS *
                      *****************************

  NA   - Mulliken gross atomic population
  ZA   - Total nuclear charge
  QA   - Mulliken gross atomic charge
  VA   - Mayer's total valence
  BVA  - Mayer's bonded valence
  FA   - Mayer's free valence

  ATOM       NA         ZA         QA         VA         BVA        FA
  0 Ti    21.4341    22.0000     0.5659     3.7287     0.7792     2.9495
  1 F      9.5659     9.0000    -0.5659     0.7820     0.7792     0.0028

  Mayer bond orders larger than 0.100000
B(  0-Ti,  1-F ) :   0.7792 

-------
TIMINGS
-------

Total SCF time: 0 days 0 hours 0 min 6 sec 

Total time                  ....       6.795 sec
Sum of individual times     ....       6.588 sec  ( 96.9%)

Fock matrix formation       ....       6.077 sec  ( 89.4%)
  Split-RI-J                ....       4.507 sec  ( 74.2% of F)
  XC integration            ....       1.278 sec  ( 21.0% of F)
    Basis function eval.    ....       0.170 sec  ( 13.3% of XC)
    Density eval.           ....       0.199 sec  ( 15.6% of XC)
    XC-Functional eval.     ....       0.035 sec  (  2.8% of XC)
    XC-Potential eval.      ....       0.577 sec  ( 45.1% of XC)
Diagonalization             ....       0.169 sec  (  2.5%)
Density matrix formation    ....       0.020 sec  (  0.3%)
Population analysis         ....       0.007 sec  (  0.1%)
Initial guess               ....       0.102 sec  (  1.5%)
Orbital Transformation      ....       0.000 sec  (  0.0%)
Orbital Orthonormalization  ....       0.000 sec  (  0.0%)
DIIS solution               ....       0.064 sec  (  0.9%)
Grid generation             ....       0.148 sec  (  2.2%)


-------------------------------------------------------------------------------
                          DFT DISPERSION CORRECTION                            
                                                                               
                              DFTD3 V3.1  Rev 1                                
                          USING Becke-Johnson damping                          
-------------------------------------------------------------------------------
The SCAN functional is recognized
Active option DFTDOPT                   ...         4   

molecular C6(AA) [au] = 561.272477 


            DFT-D V3
 parameters
 s6 scaling factor         :     1.0000 
 a1 scaling factor         :     0.5380 
 s8 scaling factor         :     0.0000 
 a2 scaling factor         :     5.4200 
 ad hoc parameters k1-k3   :    16.0000     1.3333    -4.0000 

 Edisp/kcal,au: -0.050522494599  -0.000080512711 
 E6   /kcal   :  -0.050522495 
 E8   /kcal   :  -0.000000000 
 % E8         :   0.000000000 

-------------------------   ----------------
Dispersion correction           -0.000080513
-------------------------   ----------------


-------------------------   --------------------
FINAL SINGLE POINT ENERGY      -949.365534909820
-------------------------   --------------------


                            ***************************************
                            *     ORCA property calculations      *
                            ***************************************

                                    ---------------------
                                    Active property flags
                                    ---------------------
   (+) Dipole Moment


------------------------------------------------------------------------------
                       ORCA ELECTRIC PROPERTIES CALCULATION
------------------------------------------------------------------------------

Dipole Moment Calculation                       ... on
Quadrupole Moment Calculation                   ... off
Polarizability Calculation                      ... off
GBWName                                         ... 08_TiF.gbw
Electron density file                           ... 08_TiF.scfp
The origin for moment calculation is the CENTER OF MASS  = ( 0.000000,  0.000000  1.163448)

-------------
DIPOLE MOMENT
-------------
                                X             Y             Z
Electronic contribution:      0.00000      -0.00000      -1.62206
Nuclear contribution   :      0.00000       0.00000       0.66059
                        -----------------------------------------
Total Dipole Moment    :      0.00000      -0.00000      -0.96146
                        -----------------------------------------
Magnitude (a.u.)       :      0.96146
Magnitude (Debye)      :      2.44385



--------------------
Rotational spectrum 
--------------------
 
Rotational constants in cm-1:     0.000000     0.391496     0.391496 
Rotational constants in MHz :     0.000000 11736.757371 11736.757371 

 Dipole components along the rotational axes: 
x,y,z [a.u.] :    -0.961464    -0.000003     0.000001 
x,y,z [Debye]:    -2.443848    -0.000008     0.000003 

 

Timings for individual modules:

Sum of individual times         ...        9.860 sec (=   0.164 min)
GTO integral calculation        ...        2.735 sec (=   0.046 min)  27.7 %
SCF iterations                  ...        7.125 sec (=   0.119 min)  72.3 %
                             ****ORCA TERMINATED NORMALLY****
TOTAL RUN TIME: 0 days 0 hours 0 minutes 10 seconds 420 msec
