
                                 *****************
                                 * O   R   C   A *
                                 *****************

           --- An Ab Initio, DFT and Semiempirical electronic structure package ---

                  #######################################################
                  #                        -***-                        #
                  #          Department of theory and spectroscopy      #
                  #               Directorship: Frank Neese             #
                  #        Max Planck Institute fuer Kohlenforschung    #
                  #                Kaiser Wilhelm Platz 1               #
                  #                 D-45470 Muelheim/Ruhr               #
                  #                      Germany                        #
                  #                                                     #
                  #                  All rights reserved                #
                  #                        -***-                        #
                  #######################################################


                         Program Version 4.2.0 -  RELEASE  -


 With contributions from (in alphabetic order):
   Daniel Aravena         : Magnetic Suceptibility
   Michael Atanasov       : Ab Initio Ligand Field Theory (pilot matlab implementation)
   Alexander A. Auer      : GIAO ZORA, VPT2
   Ute Becker             : Parallelization
   Giovanni Bistoni       : ED, misc. LED, open-shell LED, HFLED
   Martin Brehm           : Molecular dynamics
   Dmytro Bykov           : SCF Hessian
   Vijay G. Chilkuri      : MRCI spin determinant printing, contributions to CSF-ICE
   Dipayan Datta          : RHF DLPNO-CCSD density
   Achintya Kumar Dutta   : EOM-CC, STEOM-CC
   Dmitry Ganyushin       : Spin-Orbit,Spin-Spin,Magnetic field MRCI
   Miquel Garcia          : C-PCM Hessian, Gaussian charge scheme
   Yang Guo               : DLPNO-NEVPT2, CIM, IAO-localization
   Andreas Hansen         : Spin unrestricted coupled pair/coupled cluster methods
   Benjamin Helmich-Paris : CASSCF linear response (MC-RPA)
   Lee Huntington         : MR-EOM, pCC
   Robert Izsak           : Overlap fitted RIJCOSX, COSX-SCS-MP3, EOM
   Christian Kollmar      : KDIIS, OOCD, Brueckner-CCSD(T), CCSD density
   Simone Kossmann        : Meta GGA functionals, TD-DFT gradient, OOMP2, MP2 Hessian
   Martin Krupicka        : AUTO-CI
   Lucas Lang             : DCDCAS
   Dagmar Lenk            : GEPOL surface, SMD
   Dimitrios Liakos       : Extrapolation schemes; Compound Job, initial MDCI parallelization
   Dimitrios Manganas     : Further ROCIS development; embedding schemes
   Dimitrios Pantazis     : SARC Basis sets
   Taras Petrenko         : DFT Hessian,TD-DFT gradient, ASA, ECA, R-Raman, ABS, FL, XAS/XES, NRVS
   Peter Pinski           : DLPNO-MP2, DLPNO-MP2 Gradient
   Christoph Reimann      : Effective Core Potentials
   Marius Retegan         : Local ZFS, SOC
   Christoph Riplinger    : Optimizer, TS searches, QM/MM, DLPNO-CCSD(T), (RO)-DLPNO pert. Triples
   Tobias Risthaus        : Range-separated hybrids, TD-DFT gradient, RPA, STAB
   Michael Roemelt        : Original ROCIS implementation
   Masaaki Saitow         : Open-shell DLPNO-CCSD energy and density
   Barbara Sandhoefer     : DKH picture change effects
   Avijit Sen             : IP-ROCIS
   Kantharuban Sivalingam : CASSCF convergence, NEVPT2, FIC-MRCI
   Bernardo de Souza      : ESD, SOC TD-DFT
   Georgi Stoychev        : AutoAux, RI-MP2 NMR
   Willem Van den Heuvel  : Paramagnetic NMR
   Boris Wezisla          : Elementary symmetry handling
   Frank Wennmohs         : Technical directorship


 We gratefully acknowledge several colleagues who have allowed us to
 interface, adapt or use parts of their codes:
   Stefan Grimme, W. Hujo, H. Kruse,             : VdW corrections, initial TS optimization,
                  C. Bannwarth                     DFT functionals, gCP, sTDA/sTD-DF
   Ed Valeev, F. Pavosevic, A. Kumar             : LibInt (2-el integral package), F12 methods
   Garnet Chan, S. Sharma, J. Yang, R. Olivares  : DMRG
   Ulf Ekstrom                                   : XCFun DFT Library
   Mihaly Kallay                                 : mrcc  (arbitrary order and MRCC methods)
   Andreas Klamt, Michael Diedenhofen            : otool_cosmo (COSMO solvation model)
   Jiri Pittner, Ondrej Demel                    : Mk-CCSD
   Frank Weinhold                                : gennbo (NPA and NBO analysis)
   Christopher J. Cramer and Donald G. Truhlar   : smd solvation model
   Lars Goerigk                                  : TD-DFT with DH, B97 family of functionals
   V. Asgeirsson, H. Jonsson                     : NEB implementation
   FAccTs GmbH                                   : IRC, NEB, NEB-TS, Multilevel, MM, QM/MM, CI optimization
   S Lehtola, MJT Oliveira, MAL Marques          : LibXC Library


 Your calculation uses the libint2 library for the computation of 2-el integrals
 For citations please refer to: http://libint.valeyev.net

 Your ORCA version has been built with support for libXC version: 4.2.3
 For citations please refer to: https://tddft.org/programs/libxc/

 This ORCA versions uses:
   CBLAS   interface :  Fast vector & matrix operations
   LAPACKE interface :  Fast linear algebra routines
   SCALAPACK package :  Parallel linear algebra routines


Your calculation utilizes the atom-pairwise dispersion correction
with the Becke-Johnson damping scheme (D3BJ)
Cite in your paper:
S.Grimme, S.Ehrlich, L.Goerigk, J Comput Chem, (2011), 32, 1456–1465 
S.Grimme, J.Antony, S.Ehrlich and H.Krieg, J.Chem.Phys., 132, (2010), 154104 
   

----- Orbital basis set information -----
Your calculation utilizes the basis: aug-cc-pVTZ 
    H, B-Ne : Obtained from the ccRepo (grant-hill.group.shef.ac.uk/ccrepo) Feb. 2017
              R. A. Kendall, T. H. Dunning, Jr., R. J. Harrison, J. Chem. Phys. 96, 6796 (1992)
         He : Obtained from the ccRepo (grant-hill.group.shef.ac.uk/ccrepo) Feb. 2017
              D. E. Woon, T. H. Dunning, Jr., J. Chem. Phys. 100, 2975 (1994)
  Li-Be, Na : Obtained from the ccRepo (grant-hill.group.shef.ac.uk/ccrepo) Feb. 2017
              B. P. Prascher, D. E. Woon, K. A. Peterson, T. H. Dunning, Jr., A. K. Wilson, Theor. Chem. Acc. 128, 69 (2011)
         Mg : Obtained from the Peterson Research Group Website (tyr0.chem.wsu.edu/~kipeters) Feb. 2017
              B. P. Prascher, D. E. Woon, K. A. Peterson, T. H. Dunning, Jr., A. K. Wilson, Theor. Chem. Acc. 128, 69 (2011)
      Al-Ar : Obtained from the ccRepo (grant-hill.group.shef.ac.uk/ccrepo) Feb. 2017
              D. E. Woon, T. H. Dunning, Jr., J. Chem. Phys. 98, 1358 (1993)
      Sc-Zn : Obtained from the ccRepo (grant-hill.group.shef.ac.uk/ccrepo) Feb. 2017
              N. B. Balabanov, K. A. Peterson, J. Chem. Phys. 123, 064107 (2005)
              N. B. Balabanov, K. A. Peterson, J. Chem. Phys. 125, 074110 (2006)
      Ga-Kr : Obtained from the ccRepo (grant-hill.group.shef.ac.uk/ccrepo) Feb. 2017
              A. K. Wilson, D. E. Woon, K. A. Peterson, T. H. Dunning, Jr., J. Chem. Phys. 110, 7667 (1999)
     Ag, Au : Obtained from the Peterson Research Group Website (tyr0.chem.wsu.edu/~kipeters) Feb. 2017
              K. A. Peterson, C. Puzzarini, Theor. Chem. Acc. 114, 283 (2005)

----- AuxJ basis set information -----
Your calculation utilizes the auxiliary basis: def2/J
   F. Weigend, Phys. Chem. Chem. Phys. 8, 1057 (2006).

================================================================================
                                        WARNINGS
                       Please study these warnings very carefully!
================================================================================


WARNING: your system is open-shell and RHF/RKS was chosen
  ===> : WILL SWITCH to UHF/UKS


WARNING: The SCAN functional is very grid-sensitive!
         Use at least GRID5 and a higher intacc

INFO   : the flag for use of LIBINT has been found!

================================================================================
                                       INPUT FILE
================================================================================
NAME = 16_VBr.in
|  1> #
|  2> # 16_VBr scanfunc/aug-cc-pvtz
|  3> #
|  4> ! scanfunc d3bj aug-cc-pvtz def2/j grid4 nofinalgrid
|  5> 
|  6> *xyz 0 5
|  7>   V   0.00000000000000      0.00000000000000     -0.18045152200616
|  8>   Br  0.00000000000000      0.00000000000000      2.18045152200616
|  9> *
| 10> 
| 11> %pal
| 12> nprocs 24
| 13> end
| 14> 
| 15> 
| 16>                          ****END OF INPUT****
================================================================================

                       ****************************
                       * Single Point Calculation *
                       ****************************

---------------------------------
CARTESIAN COORDINATES (ANGSTROEM)
---------------------------------
  V      0.000000    0.000000   -0.180452
  Br     0.000000    0.000000    2.180452

----------------------------
CARTESIAN COORDINATES (A.U.)
----------------------------
  NO LB      ZA    FRAG     MASS         X           Y           Z
   0 V    23.0000    0    50.940    0.000000    0.000000   -0.341004
   1 Br   35.0000    0    79.900    0.000000    0.000000    4.120456

--------------------------------
INTERNAL COORDINATES (ANGSTROEM)
--------------------------------
 V      0   0   0     0.000000000000     0.00000000     0.00000000
 Br     1   0   0     2.360903044012     0.00000000     0.00000000

---------------------------
INTERNAL COORDINATES (A.U.)
---------------------------
 V      0   0   0     0.000000000000     0.00000000     0.00000000
 Br     1   0   0     4.461460181924     0.00000000     0.00000000

---------------------
BASIS SET INFORMATION
---------------------
There are 2 groups of distinct atoms

 Group   1 Type V   : 116s77p23d3f2g contracted to 8s7p5d3f2g pattern {19191919191911/151515151511/77711/111/11}
 Group   2 Type Br  : 75s36p10d2f contracted to 7s6p4d2f pattern {18181818111/111111111/7111/11}

Atom   0V    basis set group =>   1
Atom   1Br   basis set group =>   2
---------------------------------
AUXILIARY/J BASIS SET INFORMATION
---------------------------------
There are 2 groups of distinct atoms

 Group   1 Type V   : 19s5p5d3f3g contracted to 8s5p5d2f3g pattern {121111111/11111/11111/21/111}
 Group   2 Type Br  : 19s5p5d3f1g contracted to 8s4p3d2f1g pattern {121111111/2111/311/21/1}

Atom   0V    basis set group =>   1
Atom   1Br   basis set group =>   2


           ************************************************************
           *        Program running with 24 parallel MPI-processes    *
           *              working on a common directory               *
           ************************************************************
------------------------------------------------------------------------------
                           ORCA GTO INTEGRAL CALCULATION
                           -- RI-GTO INTEGRALS CHOSEN --
------------------------------------------------------------------------------

                         BASIS SET STATISTICS AND STARTUP INFO

Gaussian basis set:
 # of primitive gaussian shells          ...  344
 # of primitive gaussian functions       ...  748
 # of contracted shells                  ...   44
 # of contracted basis functions         ...  152
 Highest angular momentum                ...    4
 Maximum contraction depth               ...   19
Auxiliary gaussian basis set:
 # of primitive gaussian shells          ...   68
 # of primitive gaussian functions       ...  196
 # of contracted shells                  ...   41
 # of contracted aux-basis functions     ...  147
 Highest angular momentum                ...    4
 Maximum contraction depth               ...   12
Ratio of auxiliary to basis functions    ...  0.97
Integral package used                  ... LIBINT
 One Electron integrals                  ... done
 Ordering auxiliary basis shells         ... done
 Integral threshhold             Thresh  ...  1.000e-10
 Primitive cut-off               TCut    ...  1.000e-11
 Pre-screening matrix                    ... done
 Shell pair data                         ... 
 Ordering of the shell pairs             ... done (   0.000 sec) 990 of 990 pairs
 Determination of significant pairs      ... done (   0.000 sec)
 Creation of shell pair data             ... done (   0.002 sec)
 Storage of shell pair data              ... done (   0.050 sec)
 Shell pair data done in (   0.053 sec)
 Computing two index integrals           ... done
 Cholesky decomposition of the V-matrix  ... done


Timings:
 Total evaluation time                   ...   3.980 sec (  0.066 min)
 One electron matrix time                ...   0.059 sec (  0.001 min) =  1.5%
 Schwartz matrix evaluation time         ...   3.839 sec (  0.064 min) = 96.5%
 Two index repulsion integral time       ...   0.001 sec (  0.000 min) =  0.0%
 Cholesky decomposition of V             ...   0.001 sec (  0.000 min) =  0.0%
 Three index repulsion integral time     ...   0.000 sec (  0.000 min) =  0.0%



           ************************************************************
           *        Program running with 24 parallel MPI-processes    *
           *              working on a common directory               *
           ************************************************************
-------------------------------------------------------------------------------
                                 ORCA SCF
-------------------------------------------------------------------------------

------------
SCF SETTINGS
------------
Hamiltonian:
 Density Functional     Method          .... DFT(GTOs)
 Exchange Functional    Exchange        .... SCAN
 Correlation Functional Correlation     .... SCAN
 Gradients option       PostSCFGGA      .... off
   Density functional embedding theory  .... OFF
   NL short-range parameter             ....  6.400000
 RI-approximation to the Coulomb term is turned on
   Number of auxiliary basis functions  .... 147


General Settings:
 Integral files         IntName         .... 16_VBr
 Hartree-Fock type      HFTyp           .... UHF
 Total Charge           Charge          ....    0
 Multiplicity           Mult            ....    5
 Number of Electrons    NEL             ....   58
 Basis Dimension        Dim             ....  152
 Nuclear Repulsion      ENuc            ....    180.4342002785 Eh

Convergence Acceleration:
 DIIS                   CNVDIIS         .... on
   Start iteration      DIISMaxIt       ....    12
   Startup error        DIISStart       ....  0.200000
   # of expansion vecs  DIISMaxEq       ....     5
   Bias factor          DIISBfac        ....   1.050
   Max. coefficient     DIISMaxC        ....  10.000
 Newton-Raphson         CNVNR           .... off
 SOSCF                  CNVSOSCF        .... off
 Level Shifting         CNVShift        .... on
   Level shift para.    LevelShift      ....    0.2500
   Turn off err/grad.   ShiftErr        ....    0.0010
 Zerner damping         CNVZerner       .... off
 Static damping         CNVDamp         .... on
   Fraction old density DampFac         ....    0.7000
   Max. Damping (<1)    DampMax         ....    0.9800
   Min. Damping (>=0)   DampMin         ....    0.0000
   Turn off err/grad.   DampErr         ....    0.1000
 Fernandez-Rico         CNVRico         .... off

SCF Procedure:
 Maximum # iterations   MaxIter         ....   125
 SCF integral mode      SCFMode         .... Direct
   Integral package                     .... LIBINT
 Reset frequency        DirectResetFreq ....    20
 Integral Threshold     Thresh          ....  1.000e-10 Eh
 Primitive CutOff       TCut            ....  1.000e-11 Eh

Convergence Tolerance:
 Convergence Check Mode ConvCheckMode   .... Total+1el-Energy
 Convergence forced     ConvForced      .... 0
 Energy Change          TolE            ....  1.000e-06 Eh
 1-El. energy change                    ....  1.000e-03 Eh
 DIIS Error             TolErr          ....  1.000e-06


Diagonalization of the overlap matrix:
Smallest eigenvalue                        ... 6.612e-05
Time for diagonalization                   ...    0.006 sec
Threshold for overlap eigenvalues          ... 1.000e-08
Number of eigenvalues below threshold      ... 0
Time for construction of square roots      ...    0.003 sec
Total time needed                          ...    0.008 sec

-------------------
DFT GRID GENERATION
-------------------

General Integration Accuracy     IntAcc      ...  4.670
Radial Grid Type                 RadialGrid  ... Gauss-Chebyshev
Angular Grid (max. acc.)         AngularGrid ... Lebedev-302
Angular grid pruning method      GridPruning ... 3 (G Style)
Weight generation scheme         WeightScheme... Becke
Basis function cutoff            BFCut       ...    1.0000e-10
Integration weight cutoff        WCut        ...    1.0000e-14
Grids for H and He will be reduced by one unit

# of grid points (after initial pruning)     ...  19280 (   0.0 sec)
# of grid points (after weights+screening)   ...  19253 (   0.0 sec)
nearest neighbour list constructed           ...    0.0 sec
Grid point re-assignment to atoms done       ...    0.0 sec
Grid point division into batches done        ...    0.2 sec
Reduced shell lists constructed in    0.2 sec

Total number of grid points                  ...    19253
Total number of batches                      ...      301
Average number of points per batch           ...       63
Average number of grid points per atom       ...     9626
Average number of shells per batch           ...    19.07 (43.34%)
Average number of basis functions per batch  ...    51.93 (34.16%)
Average number of large shells per batch     ...    11.86 (62.17%)
Average number of large basis fcns per batch ...    31.00 (59.70%)
Maximum spatial batch extension              ...  24.49, 24.19, 17.83 au
Average spatial batch extension              ...   0.84,  0.83,  0.67 au

Time for grid setup =    0.256 sec

------------------------------
INITIAL GUESS: MODEL POTENTIAL
------------------------------
Loading Hartree-Fock densities                     ... done
Calculating cut-offs                               ... done
Setting up the integral package                    ... done
Initializing the effective Hamiltonian             ... done
Starting the Coulomb interaction                   ... done (   0.0 sec)
Reading the grid                                   ... done
Mapping shells                                     ... done
Starting the XC term evaluation                    ... done (   0.0 sec)
  promolecular density results
     # of electrons  =     57.999978244
     EX              =   -151.494720118
     EC              =     -1.046975869
     EX+EC           =   -152.541695987
Transforming the Hamiltonian                       ... done (   0.0 sec)
Diagonalizing the Hamiltonian                      ... done (   0.0 sec)
Back transforming the eigenvectors                 ... done (   0.0 sec)
Now organizing SCF variables                       ... done
                      ------------------
                      INITIAL GUESS DONE (   0.4 sec)
                      ------------------
--------------
SCF ITERATIONS
--------------
ITER       Energy         Delta-E        Max-DP      RMS-DP      [F,P]     Damp
               ***  Starting incremental Fock matrix formation  ***
  0  -3518.1547032575   0.000000000000 0.56220474  0.00950075  0.4005397 0.7000
  1  -3518.3950817709  -0.240378513392 0.35126644  0.00604373  0.1010421 0.7000
                               ***Turning on DIIS***
  2  -3518.4250414901  -0.029959719254 0.72100646  0.01046746  0.0725298 0.0000
  3  -3518.5631336937  -0.138092203583 0.07696508  0.00165867  0.0647785 0.0000
  4  -3518.5908683992  -0.027734705509 0.14613814  0.00266694  0.0726125 0.0000
  5  -3518.6045002008  -0.013631801565 0.04144978  0.00058054  0.0230762 0.0000
  6  -3518.6074681418  -0.002967940991 0.02387014  0.00027866  0.0076735 0.0000
  7  -3518.6084967190  -0.001028577218 0.01855649  0.00016284  0.0061291 0.0000
  8  -3518.6090502993  -0.000553580291 0.01522271  0.00017149  0.0050074 0.0000
  9  -3518.6094116627  -0.000361363414 0.01300206  0.00010352  0.0040954 0.0000
 10  -3518.6096264366  -0.000214773893 0.01136125  0.00008298  0.0033274 0.0000
 11  -3518.6097606132  -0.000134176602 0.00824396  0.00012079  0.0024936 0.0000
 12  -3518.6098360208  -0.000075407609 0.00716180  0.00005527  0.0023790 0.0000
 13  -3518.6098947336  -0.000058712775 0.00602586  0.00004414  0.0018722 0.0000
 14  -3518.6099315415  -0.000036807985 0.00495209  0.00004263  0.0014974 0.0000
 15  -3518.6099550638  -0.000023522255 0.00448244  0.00004175  0.0012559 0.0000
 16  -3518.6099717753  -0.000016711520 0.01708387  0.00012975  0.0009760 0.0000
 17  -3518.6099951034  -0.000023328039 0.00133051  0.00002073  0.0011516 0.0000
 18  -3518.6099976715  -0.000002568093 0.00231744  0.00001611  0.0006645 0.0000
 19  -3518.6099988555  -0.000001184073 0.00069272  0.00000690  0.0002645 0.0000
               *** Restarting incremental Fock matrix formation ***
                                   *** Resetting DIIS ***
 20  -3518.6099996379  -0.000000782419 0.00084495  0.00001208  0.0001857 0.0000
 21  -3518.6099986182   0.000001019760 0.00099927  0.00001074  0.0005093 0.0000
                 **** Energy Check signals convergence ****

               *****************************************************
               *                     SUCCESS                       *
               *           SCF CONVERGED AFTER  22 CYCLES          *
               *****************************************************


----------------
TOTAL SCF ENERGY
----------------

Total Energy       :        -3518.60999938 Eh          -95746.24573 eV

Components:
Nuclear Repulsion  :          180.43420028 Eh            4909.86420 eV
Electronic Energy  :        -3699.04419965 Eh         -100656.10993 eV
One Electron Energy:        -5240.65693689 Eh         -142605.52518 eV
Two Electron Energy:         1541.61273723 Eh           41949.41525 eV

Virial components:
Potential Energy   :        -7032.70081916 Eh         -191369.51833 eV
Kinetic Energy     :         3514.09081979 Eh           95623.27260 eV
Virial Ratio       :            2.00128602


DFT components:
N(Alpha)           :       30.999994246829 electrons
N(Beta)            :       26.999997089344 electrons
N(Total)           :       57.999991336173 electrons
E(X)               :     -134.473766866394 Eh       
E(C)               :       -2.657130762280 Eh       
E(XC)              :     -137.130897628674 Eh       
DFET-embed. en.    :        0.000000000000 Eh       

---------------
SCF CONVERGENCE
---------------

  Last Energy change         ...   -7.5738e-07  Tolerance :   1.0000e-06
  Last MAX-Density change    ...    1.6825e-04  Tolerance :   1.0000e-05
  Last RMS-Density change    ...    1.6069e-06  Tolerance :   1.0000e-06
  Last DIIS Error            ...    4.1350e-05  Tolerance :   1.0000e-06

             **** THE GBW FILE WAS UPDATED (16_VBr.gbw) ****
             **** DENSITY FILE WAS UPDATED (16_VBr.scfp) ****
             **** ENERGY FILE WAS UPDATED (16_VBr.en.tmp) ****
----------------------
UHF SPIN CONTAMINATION
----------------------

Warning: in a DFT calculation there is little theoretical justification to 
         calculate <S**2> as in Hartree-Fock theory. We will do it anyways
         but you should keep in mind that the values have only limited relevance

Expectation value of <S**2>     :     6.016001
Ideal value S*(S+1) for S=2.0   :     6.000000
Deviation                       :     0.016001

             **** THE GBW FILE WAS UPDATED (16_VBr.gbw) ****
             **** DENSITY FILE WAS UPDATED (16_VBr.scfp) ****
----------------
ORBITAL ENERGIES
----------------
                 SPIN UP ORBITALS
  NO   OCC          E(Eh)            E(eV) 
   0   1.0000    -482.234571    -13122.2698 
   1   1.0000    -196.429536     -5345.1194 
   2   1.0000     -62.275143     -1694.5928 
   3   1.0000     -56.076511     -1525.9194 
   4   1.0000     -56.076511     -1525.9194 
   5   1.0000     -56.075654     -1525.8961 
   6   1.0000     -22.062711      -600.3569 
   7   1.0000     -18.574910      -505.4490 
   8   1.0000     -18.574910      -505.4490 
   9   1.0000     -18.570087      -505.3178 
  10   1.0000      -8.622618      -234.6334 
  11   1.0000      -6.410017      -174.4254 
  12   1.0000      -6.407670      -174.3616 
  13   1.0000      -6.407670      -174.3616 
  14   1.0000      -2.617975       -71.2387 
  15   1.0000      -2.489637       -67.7465 
  16   1.0000      -2.488807       -67.7239 
  17   1.0000      -2.488807       -67.7239 
  18   1.0000      -2.486932       -67.6728 
  19   1.0000      -2.486880       -67.6714 
  20   1.0000      -1.652054       -44.9547 
  21   1.0000      -1.652054       -44.9547 
  22   1.0000      -1.651961       -44.9521 
  23   1.0000      -0.691837       -18.8258 
  24   1.0000      -0.299088        -8.1386 
  25   1.0000      -0.269981        -7.3466 
  26   1.0000      -0.269981        -7.3466 
  27   1.0000      -0.230212        -6.2644 
  28   1.0000      -0.198087        -5.3902 
  29   1.0000      -0.198087        -5.3902 
  30   1.0000      -0.182818        -4.9747 
  31   0.0000      -0.143281        -3.8989 
  32   0.0000      -0.118219        -3.2169 
  33   0.0000      -0.051283        -1.3955 
  34   0.0000      -0.051283        -1.3955 
  35   0.0000       0.010809         0.2941 
  36   0.0000       0.014832         0.4036 
  37   0.0000       0.030161         0.8207 
  38   0.0000       0.030161         0.8207 
  39   0.0000       0.053831         1.4648 
  40   0.0000       0.055709         1.5159 
  41   0.0000       0.056558         1.5390 
  42   0.0000       0.058241         1.5848 
  43   0.0000       0.059855         1.6287 
  44   0.0000       0.059855         1.6287 
  45   0.0000       0.093400         2.5415 
  46   0.0000       0.117000         3.1837 
  47   0.0000       0.118172         3.2156 
  48   0.0000       0.118172         3.2156 
  49   0.0000       0.153954         4.1893 
  50   0.0000       0.153955         4.1893 
  51   0.0000       0.160094         4.3564 
  52   0.0000       0.161566         4.3964 
  53   0.0000       0.169131         4.6023 
  54   0.0000       0.176276         4.7967 
  55   0.0000       0.176276         4.7967 
  56   0.0000       0.191677         5.2158 
  57   0.0000       0.212093         5.7713 
  58   0.0000       0.213779         5.8172 
  59   0.0000       0.261334         7.1113 
  60   0.0000       0.292869         7.9694 
  61   0.0000       0.292869         7.9694 
  62   0.0000       0.331133         9.0106 
  63   0.0000       0.378520        10.3001 
  64   0.0000       0.378520        10.3001 
  65   0.0000       0.411527        11.1982 
  66   0.0000       0.436438        11.8761 
  67   0.0000       0.438381        11.9289 
  68   0.0000       0.469626        12.7792 
  69   0.0000       0.469626        12.7792 
  70   0.0000       0.537494        14.6260 
  71   0.0000       0.537494        14.6260 
  72   0.0000       0.548350        14.9214 
  73   0.0000       0.581994        15.8369 
  74   0.0000       0.581994        15.8369 
  75   0.0000       0.612504        16.6671 
  76   0.0000       0.630240        17.1497 
  77   0.0000       0.631186        17.1754 
  78   0.0000       0.636828        17.3290 
  79   0.0000       0.642528        17.4841 
  80   0.0000       0.642528        17.4841 
  81   0.0000       0.669295        18.2125 
  82   0.0000       0.694559        18.8999 
  83   0.0000       0.754857        20.5407 
  84   0.0000       0.782574        21.2949 
  85   0.0000       0.782574        21.2949 
  86   0.0000       0.834332        22.7033 
  87   0.0000       0.834333        22.7033 
  88   0.0000       0.849969        23.1288 
  89   0.0000       0.940826        25.6012 
  90   0.0000       0.942692        25.6519 
  91   0.0000       1.115204        30.3462 
  92   0.0000       1.153634        31.3920 
  93   0.0000       1.153634        31.3920 
  94   0.0000       1.337701        36.4007 
  95   0.0000       1.337701        36.4007 
  96   0.0000       1.338931        36.4342 
  97   0.0000       1.353284        36.8247 
  98   0.0000       1.409067        38.3427 
  99   0.0000       1.487108        40.4663 
 100   0.0000       1.487108        40.4663 
 101   0.0000       1.615898        43.9708 
 102   0.0000       1.621693        44.1285 
 103   0.0000       1.627773        44.2940 
 104   0.0000       1.627773        44.2940 
 105   0.0000       1.663585        45.2684 
 106   0.0000       1.761820        47.9416 
 107   0.0000       1.762529        47.9608 
 108   0.0000       1.805287        49.1243 
 109   0.0000       1.819114        49.5006 
 110   0.0000       1.819114        49.5006 
 111   0.0000       1.968508        53.5658 
 112   0.0000       1.968508        53.5658 
 113   0.0000       2.036969        55.4287 
 114   0.0000       2.058137        56.0048 
 115   0.0000       2.058457        56.0135 
 116   0.0000       2.097156        57.0665 
 117   0.0000       2.107672        57.3527 
 118   0.0000       2.107672        57.3527 
 119   0.0000       2.127819        57.9009 
 120   0.0000       2.127819        57.9009 
 121   0.0000       2.165304        58.9209 
 122   0.0000       2.165370        58.9227 
 123   0.0000       2.211542        60.1791 
 124   0.0000       2.211542        60.1791 
 125   0.0000       2.335142        63.5425 
 126   0.0000       2.371489        64.5315 
 127   0.0000       2.371489        64.5315 
 128   0.0000       2.403750        65.4094 
 129   0.0000       2.715849        73.9020 
 130   0.0000       2.769107        75.3512 
 131   0.0000       2.915961        79.3473 
 132   0.0000       2.915961        79.3473 
 133   0.0000       2.964574        80.6702 
 134   0.0000       3.513025        95.5943 
 135   0.0000       4.400079       119.7322 
 136   0.0000       4.804087       130.7259 
 137   0.0000       4.810455       130.8991 
 138   0.0000       4.810455       130.8991 
 139   0.0000       4.813347       130.9778 
 140   0.0000       4.903271       133.4248 
 141   0.0000       4.903271       133.4248 
 142   0.0000       5.176996       140.8732 
 143   0.0000       5.182746       141.0297 
 144   0.0000       5.186014       141.1186 
 145   0.0000       5.186014       141.1186 
 146   0.0000       5.240422       142.5991 
 147   0.0000       5.242301       142.6503 
 148   0.0000       5.249228       142.8388 
 149   0.0000       5.359830       145.8484 
 150   0.0000       5.359830       145.8484 
 151   0.0000       5.474352       148.9647 

                 SPIN DOWN ORBITALS
  NO   OCC          E(Eh)            E(eV) 
   0   1.0000    -482.234590    -13122.2703 
   1   1.0000    -196.431259     -5345.1663 
   2   1.0000     -62.275175     -1694.5937 
   3   1.0000     -56.076781     -1525.9268 
   4   1.0000     -56.076022     -1525.9061 
   5   1.0000     -56.076022     -1525.9061 
   6   1.0000     -22.026311      -599.3664 
   7   1.0000     -18.546349      -504.6718 
   8   1.0000     -18.546349      -504.6718 
   9   1.0000     -18.538187      -504.4497 
  10   1.0000      -8.622708      -234.6358 
  11   1.0000      -6.410548      -174.4399 
  12   1.0000      -6.407568      -174.3588 
  13   1.0000      -6.407568      -174.3588 
  14   1.0000      -2.490131       -67.7599 
  15   1.0000      -2.489186       -67.7342 
  16   1.0000      -2.489186       -67.7342 
  17   1.0000      -2.486752       -67.6680 
  18   1.0000      -2.486699       -67.6665 
  19   1.0000      -2.469866       -67.2085 
  20   1.0000      -1.517267       -41.2869 
  21   1.0000      -1.517267       -41.2869 
  22   1.0000      -1.497209       -40.7411 
  23   1.0000      -0.690413       -18.7871 
  24   1.0000      -0.290660        -7.9093 
  25   1.0000      -0.256558        -6.9813 
  26   1.0000      -0.256558        -6.9813 
  27   0.0000      -0.085127        -2.3164 
  28   0.0000      -0.077719        -2.1148 
  29   0.0000      -0.053196        -1.4475 
  30   0.0000      -0.046658        -1.2696 
  31   0.0000      -0.040466        -1.1011 
  32   0.0000      -0.040466        -1.1011 
  33   0.0000      -0.006008        -0.1635 
  34   0.0000      -0.006008        -0.1635 
  35   0.0000       0.012586         0.3425 
  36   0.0000       0.017197         0.4679 
  37   0.0000       0.038825         1.0565 
  38   0.0000       0.038825         1.0565 
  39   0.0000       0.044159         1.2016 
  40   0.0000       0.045751         1.2449 
  41   0.0000       0.049751         1.3538 
  42   0.0000       0.050296         1.3686 
  43   0.0000       0.050296         1.3686 
  44   0.0000       0.064943         1.7672 
  45   0.0000       0.097576         2.6552 
  46   0.0000       0.117623         3.2007 
  47   0.0000       0.121581         3.3084 
  48   0.0000       0.121581         3.3084 
  49   0.0000       0.155197         4.2231 
  50   0.0000       0.155198         4.2231 
  51   0.0000       0.176866         4.8128 
  52   0.0000       0.178087         4.8460 
  53   0.0000       0.179784         4.8922 
  54   0.0000       0.192257         5.2316 
  55   0.0000       0.192257         5.2316 
  56   0.0000       0.193180         5.2567 
  57   0.0000       0.220526         6.0008 
  58   0.0000       0.220850         6.0096 
  59   0.0000       0.270991         7.3740 
  60   0.0000       0.299577         8.1519 
  61   0.0000       0.299578         8.1519 
  62   0.0000       0.338130         9.2010 
  63   0.0000       0.402231        10.9453 
  64   0.0000       0.402231        10.9453 
  65   0.0000       0.449952        12.2438 
  66   0.0000       0.453730        12.3466 
  67   0.0000       0.455779        12.4024 
  68   0.0000       0.481861        13.1121 
  69   0.0000       0.481861        13.1121 
  70   0.0000       0.544832        14.8256 
  71   0.0000       0.544832        14.8256 
  72   0.0000       0.564853        15.3704 
  73   0.0000       0.616393        16.7729 
  74   0.0000       0.616393        16.7729 
  75   0.0000       0.623638        16.9700 
  76   0.0000       0.638442        17.3729 
  77   0.0000       0.646120        17.5818 
  78   0.0000       0.646658        17.5965 
  79   0.0000       0.677919        18.4471 
  80   0.0000       0.677919        18.4471 
  81   0.0000       0.728685        19.8285 
  82   0.0000       0.741149        20.1677 
  83   0.0000       0.783902        21.3311 
  84   0.0000       0.823691        22.4138 
  85   0.0000       0.823691        22.4138 
  86   0.0000       0.845398        23.0044 
  87   0.0000       0.845398        23.0044 
  88   0.0000       0.875674        23.8283 
  89   0.0000       0.953402        25.9434 
  90   0.0000       0.953731        25.9523 
  91   0.0000       1.143987        31.1295 
  92   0.0000       1.183501        32.2047 
  93   0.0000       1.183501        32.2047 
  94   0.0000       1.441566        39.2270 
  95   0.0000       1.441566        39.2270 
  96   0.0000       1.463230        39.8165 
  97   0.0000       1.464171        39.8421 
  98   0.0000       1.468469        39.9591 
  99   0.0000       1.576010        42.8854 
 100   0.0000       1.576010        42.8854 
 101   0.0000       1.680501        45.7288 
 102   0.0000       1.681766        45.7632 
 103   0.0000       1.702424        46.3253 
 104   0.0000       1.702424        46.3253 
 105   0.0000       1.705267        46.4027 
 106   0.0000       1.824855        49.6568 
 107   0.0000       1.826659        49.7059 
 108   0.0000       1.853873        50.4465 
 109   0.0000       1.858083        50.5610 
 110   0.0000       1.858083        50.5610 
 111   0.0000       1.986695        54.0607 
 112   0.0000       1.986695        54.0607 
 113   0.0000       2.056147        55.9506 
 114   0.0000       2.069231        56.3066 
 115   0.0000       2.069483        56.3135 
 116   0.0000       2.114874        57.5487 
 117   0.0000       2.114874        57.5487 
 118   0.0000       2.169864        59.0450 
 119   0.0000       2.169864        59.0450 
 120   0.0000       2.176755        59.2325 
 121   0.0000       2.177442        59.2512 
 122   0.0000       2.204923        59.9990 
 123   0.0000       2.267114        61.6913 
 124   0.0000       2.267114        61.6913 
 125   0.0000       2.390575        65.0509 
 126   0.0000       2.413225        65.6672 
 127   0.0000       2.413225        65.6672 
 128   0.0000       2.443899        66.5019 
 129   0.0000       2.827115        76.9297 
 130   0.0000       2.857371        77.7530 
 131   0.0000       3.027231        82.3752 
 132   0.0000       3.045240        82.8652 
 133   0.0000       3.045240        82.8652 
 134   0.0000       3.588848        97.6575 
 135   0.0000       4.409330       119.9840 
 136   0.0000       4.934128       134.2645 
 137   0.0000       4.934128       134.2645 
 138   0.0000       4.966790       135.1532 
 139   0.0000       4.987227       135.7094 
 140   0.0000       5.050245       137.4242 
 141   0.0000       5.050245       137.4242 
 142   0.0000       5.349251       145.5605 
 143   0.0000       5.350491       145.5943 
 144   0.0000       5.367599       146.0598 
 145   0.0000       5.367599       146.0598 
 146   0.0000       5.369038       146.0989 
 147   0.0000       5.418629       147.4484 
 148   0.0000       5.433868       147.8631 
 149   0.0000       5.520351       150.2164 
 150   0.0000       5.520351       150.2164 
 151   0.0000       5.621441       152.9672 

                    ********************************
                    * MULLIKEN POPULATION ANALYSIS *
                    ********************************

--------------------------------------------
MULLIKEN ATOMIC CHARGES AND SPIN POPULATIONS
--------------------------------------------
   0 V :    0.312098    4.053697
   1 Br:   -0.312098   -0.053697
Sum of atomic charges         :   -0.0000000
Sum of atomic spin populations:    4.0000000

-----------------------------------------------------
MULLIKEN REDUCED ORBITAL CHARGES AND SPIN POPULATIONS
-----------------------------------------------------
CHARGE
  0 V s       :     6.838682  s :     6.838682
      pz      :     4.151522  p :    12.274527
      px      :     4.061503
      py      :     4.061503
      dz2     :     0.496404  d :     3.547349
      dxz     :     1.025948
      dyz     :     1.025948
      dx2y2   :     0.999049
      dxy     :     0.000000
      f0      :     0.006859  f :     0.024054
      f+1     :     0.008447
      f-1     :     0.008447
      f+2     :     0.000090
      f-2     :     0.000002
      f+3     :     0.000105
      f-3     :     0.000105
      g0      :     0.001161  g :     0.003289
      g+1     :     0.000996
      g-1     :     0.000996
      g+2     :     0.000006
      g-2     :     0.000001
      g+3     :     0.000012
      g-3     :     0.000012
      g+4     :     0.000104
      g-4     :     0.000000
  1 Brs       :     7.959536  s :     7.959536
      pz      :     5.543198  p :    17.329490
      px      :     5.893146
      py      :     5.893146
      dz2     :     2.002550  d :    10.020847
      dxz     :     2.008859
      dyz     :     2.008859
      dx2y2   :     2.000583
      dxy     :     1.999997
      f0      :    -0.000016  f :     0.002225
      f+1     :     0.000984
      f-1     :     0.000984
      f+2     :     0.000272
      f-2     :     0.000000
      f+3     :     0.000000
      f-3     :     0.000000

SPIN
  0 V s       :     0.693796  s :     0.693796
      pz      :     0.073945  p :     0.136148
      px      :     0.031101
      py      :     0.031101
      dz2     :     0.335013  d :     3.225709
      dxz     :     0.945824
      dyz     :     0.945824
      dx2y2   :     0.999048
      dxy     :    -0.000000
      f0      :    -0.000632  f :    -0.001952
      f+1     :    -0.000765
      f-1     :    -0.000765
      f+2     :     0.000087
      f-2     :    -0.000002
      f+3     :     0.000063
      f-3     :     0.000063
      g0      :    -0.000006  g :    -0.000004
      g+1     :    -0.000058
      g-1     :    -0.000058
      g+2     :     0.000005
      g-2     :    -0.000000
      g+3     :     0.000012
      g-3     :     0.000012
      g+4     :     0.000090
      g-4     :     0.000000
  1 Brs       :     0.016030  s :     0.016030
      pz      :    -0.116444  p :    -0.074391
      px      :     0.021027
      py      :     0.021026
      dz2     :    -0.001193  d :     0.005100
      dxz     :     0.002851
      dyz     :     0.002851
      dx2y2   :     0.000589
      dxy     :     0.000002
      f0      :    -0.000598  f :    -0.000434
      f+1     :    -0.000054
      f-1     :    -0.000054
      f+2     :     0.000272
      f-2     :    -0.000000
      f+3     :     0.000000
      f-3     :     0.000000


                     *******************************
                     * LOEWDIN POPULATION ANALYSIS *
                     *******************************

-------------------------------------------
LOEWDIN ATOMIC CHARGES AND SPIN POPULATIONS
-------------------------------------------
   0 V :   -0.097188    3.846421
   1 Br:    0.097188    0.153579

----------------------------------------------------
LOEWDIN REDUCED ORBITAL CHARGES AND SPIN POPULATIONS
----------------------------------------------------
CHARGE
  0 V s       :     6.615203  s :     6.615203
      pz      :     4.236543  p :    12.414909
      px      :     4.089183
      py      :     4.089183
      dz2     :     0.633393  d :     3.758704
      dxz     :     1.065812
      dyz     :     1.065812
      dx2y2   :     0.993684
      dxy     :     0.000002
      f0      :     0.096786  f :     0.277219
      f+1     :     0.089909
      f-1     :     0.089909
      f+2     :     0.000381
      f-2     :     0.000024
      f+3     :     0.000105
      f-3     :     0.000105
      g0      :     0.011887  g :     0.031152
      g+1     :     0.009561
      g-1     :     0.009561
      g+2     :     0.000012
      g-2     :     0.000003
      g+3     :     0.000012
      g-3     :     0.000012
      g+4     :     0.000104
      g-4     :     0.000000
  1 Brs       :     7.576234  s :     7.576234
      pz      :     5.670780  p :    17.039320
      px      :     5.684270
      py      :     5.684270
      dz2     :     2.112808  d :    10.192035
      dxz     :     2.038166
      dyz     :     2.038166
      dx2y2   :     2.002926
      dxy     :     1.999970
      f0      :     0.046262  f :     0.095223
      f+1     :     0.022982
      f-1     :     0.022982
      f+2     :     0.002998
      f-2     :     0.000000
      f+3     :     0.000000
      f-3     :     0.000000

SPIN
  0 V s       :     0.591281  s :     0.591281
      pz      :     0.050846  p :     0.142192
      px      :     0.045673
      py      :     0.045673
      dz2     :     0.317256  d :     3.106141
      dxz     :     0.897602
      dyz     :     0.897602
      dx2y2   :     0.993681
      dxy     :    -0.000000
      f0      :    -0.000300  f :     0.006325
      f+1     :     0.003072
      f-1     :     0.003072
      f+2     :     0.000357
      f-2     :    -0.000000
      f+3     :     0.000063
      f-3     :     0.000063
      g0      :    -0.000335  g :     0.000481
      g+1     :     0.000347
      g-1     :     0.000347
      g+2     :     0.000009
      g-2     :    -0.000000
      g+3     :     0.000012
      g-3     :     0.000012
      g+4     :     0.000090
      g-4     :     0.000000
  1 Brs       :     0.028921  s :     0.028921
      pz      :     0.001169  p :     0.033263
      px      :     0.016047
      py      :     0.016047
      dz2     :     0.010632  d :     0.058791
      dxz     :     0.022602
      dyz     :     0.022602
      dx2y2   :     0.002956
      dxy     :     0.000000
      f0      :     0.000441  f :     0.032604
      f+1     :     0.014583
      f-1     :     0.014583
      f+2     :     0.002998
      f-2     :    -0.000000
      f+3     :     0.000000
      f-3     :     0.000000


                      *****************************
                      * MAYER POPULATION ANALYSIS *
                      *****************************

  NA   - Mulliken gross atomic population
  ZA   - Total nuclear charge
  QA   - Mulliken gross atomic charge
  VA   - Mayer's total valence
  BVA  - Mayer's bonded valence
  FA   - Mayer's free valence

  ATOM       NA         ZA         QA         VA         BVA        FA
  0 V     22.6879    23.0000     0.3121     5.0431     1.2155     3.8276
  1 Br    35.3121    35.0000    -0.3121     1.2404     1.2155     0.0249

  Mayer bond orders larger than 0.100000
B(  0-V ,  1-Br) :   1.2155 

-------
TIMINGS
-------

Total SCF time: 0 days 0 hours 0 min 5 sec 

Total time                  ....       5.898 sec
Sum of individual times     ....       5.729 sec  ( 97.1%)

Fock matrix formation       ....       5.157 sec  ( 87.4%)
  Split-RI-J                ....       3.589 sec  ( 69.6% of F)
  XC integration            ....       1.383 sec  ( 26.8% of F)
    Basis function eval.    ....       0.184 sec  ( 13.3% of XC)
    Density eval.           ....       0.192 sec  ( 13.9% of XC)
    XC-Functional eval.     ....       0.029 sec  (  2.1% of XC)
    XC-Potential eval.      ....       0.532 sec  ( 38.5% of XC)
Diagonalization             ....       0.128 sec  (  2.2%)
Density matrix formation    ....       0.016 sec  (  0.3%)
Population analysis         ....       0.007 sec  (  0.1%)
Initial guess               ....       0.116 sec  (  2.0%)
Orbital Transformation      ....       0.000 sec  (  0.0%)
Orbital Orthonormalization  ....       0.000 sec  (  0.0%)
DIIS solution               ....       0.049 sec  (  0.8%)
Grid generation             ....       0.256 sec  (  4.3%)


-------------------------------------------------------------------------------
                          DFT DISPERSION CORRECTION                            
                                                                               
                              DFTD3 V3.1  Rev 1                                
                          USING Becke-Johnson damping                          
-------------------------------------------------------------------------------
The SCAN functional is recognized
Active option DFTDOPT                   ...         4   

molecular C6(AA) [au] = 1228.125704 


            DFT-D V3
 parameters
 s6 scaling factor         :     1.0000 
 a1 scaling factor         :     0.5380 
 s8 scaling factor         :     0.0000 
 a2 scaling factor         :     5.4200 
 ad hoc parameters k1-k3   :    16.0000     1.3333    -4.0000 

 Edisp/kcal,au: -0.138424313802  -0.000220593162 
 E6   /kcal   :  -0.138424314 
 E8   /kcal   :  -0.000000000 
 % E8         :   0.000000000 

-------------------------   ----------------
Dispersion correction           -0.000220593
-------------------------   ----------------


-------------------------   --------------------
FINAL SINGLE POINT ENERGY     -3518.610219968732
-------------------------   --------------------


                            ***************************************
                            *     ORCA property calculations      *
                            ***************************************

                                    ---------------------
                                    Active property flags
                                    ---------------------
   (+) Dipole Moment


------------------------------------------------------------------------------
                       ORCA ELECTRIC PROPERTIES CALCULATION
------------------------------------------------------------------------------

Dipole Moment Calculation                       ... on
Quadrupole Moment Calculation                   ... off
Polarizability Calculation                      ... off
GBWName                                         ... 16_VBr.gbw
Electron density file                           ... 16_VBr.scfp
The origin for moment calculation is the CENTER OF MASS  = ( 0.000000,  0.000000  2.383474)

-------------
DIPOLE MOMENT
-------------
                                X             Y             Z
Electronic contribution:     -0.00000      -0.00000       0.27835
Nuclear contribution   :      0.00000       0.00000      -1.86860
                        -----------------------------------------
Total Dipole Moment    :     -0.00000      -0.00000      -1.59025
                        -----------------------------------------
Magnitude (a.u.)       :      1.59025
Magnitude (Debye)      :      4.04210



--------------------
Rotational spectrum 
--------------------
 
Rotational constants in cm-1:     0.000000     0.097224     0.097224 
Rotational constants in MHz :     0.000000  2914.715129  2914.715129 

 Dipole components along the rotational axes: 
x,y,z [a.u.] :    -1.590253    -0.000000    -0.000000 
x,y,z [Debye]:    -4.042102    -0.000000    -0.000000 

 

Timings for individual modules:

Sum of individual times         ...       10.647 sec (=   0.177 min)
GTO integral calculation        ...        4.423 sec (=   0.074 min)  41.5 %
SCF iterations                  ...        6.224 sec (=   0.104 min)  58.5 %
                             ****ORCA TERMINATED NORMALLY****
TOTAL RUN TIME: 0 days 0 hours 0 minutes 11 seconds 282 msec
