
                                 *****************
                                 * O   R   C   A *
                                 *****************

           --- An Ab Initio, DFT and Semiempirical electronic structure package ---

                  #######################################################
                  #                        -***-                        #
                  #          Department of theory and spectroscopy      #
                  #               Directorship: Frank Neese             #
                  #        Max Planck Institute fuer Kohlenforschung    #
                  #                Kaiser Wilhelm Platz 1               #
                  #                 D-45470 Muelheim/Ruhr               #
                  #                      Germany                        #
                  #                                                     #
                  #                  All rights reserved                #
                  #                        -***-                        #
                  #######################################################


                         Program Version 4.2.0 -  RELEASE  -


 With contributions from (in alphabetic order):
   Daniel Aravena         : Magnetic Suceptibility
   Michael Atanasov       : Ab Initio Ligand Field Theory (pilot matlab implementation)
   Alexander A. Auer      : GIAO ZORA, VPT2
   Ute Becker             : Parallelization
   Giovanni Bistoni       : ED, misc. LED, open-shell LED, HFLED
   Martin Brehm           : Molecular dynamics
   Dmytro Bykov           : SCF Hessian
   Vijay G. Chilkuri      : MRCI spin determinant printing, contributions to CSF-ICE
   Dipayan Datta          : RHF DLPNO-CCSD density
   Achintya Kumar Dutta   : EOM-CC, STEOM-CC
   Dmitry Ganyushin       : Spin-Orbit,Spin-Spin,Magnetic field MRCI
   Miquel Garcia          : C-PCM Hessian, Gaussian charge scheme
   Yang Guo               : DLPNO-NEVPT2, CIM, IAO-localization
   Andreas Hansen         : Spin unrestricted coupled pair/coupled cluster methods
   Benjamin Helmich-Paris : CASSCF linear response (MC-RPA)
   Lee Huntington         : MR-EOM, pCC
   Robert Izsak           : Overlap fitted RIJCOSX, COSX-SCS-MP3, EOM
   Christian Kollmar      : KDIIS, OOCD, Brueckner-CCSD(T), CCSD density
   Simone Kossmann        : Meta GGA functionals, TD-DFT gradient, OOMP2, MP2 Hessian
   Martin Krupicka        : AUTO-CI
   Lucas Lang             : DCDCAS
   Dagmar Lenk            : GEPOL surface, SMD
   Dimitrios Liakos       : Extrapolation schemes; Compound Job, initial MDCI parallelization
   Dimitrios Manganas     : Further ROCIS development; embedding schemes
   Dimitrios Pantazis     : SARC Basis sets
   Taras Petrenko         : DFT Hessian,TD-DFT gradient, ASA, ECA, R-Raman, ABS, FL, XAS/XES, NRVS
   Peter Pinski           : DLPNO-MP2, DLPNO-MP2 Gradient
   Christoph Reimann      : Effective Core Potentials
   Marius Retegan         : Local ZFS, SOC
   Christoph Riplinger    : Optimizer, TS searches, QM/MM, DLPNO-CCSD(T), (RO)-DLPNO pert. Triples
   Tobias Risthaus        : Range-separated hybrids, TD-DFT gradient, RPA, STAB
   Michael Roemelt        : Original ROCIS implementation
   Masaaki Saitow         : Open-shell DLPNO-CCSD energy and density
   Barbara Sandhoefer     : DKH picture change effects
   Avijit Sen             : IP-ROCIS
   Kantharuban Sivalingam : CASSCF convergence, NEVPT2, FIC-MRCI
   Bernardo de Souza      : ESD, SOC TD-DFT
   Georgi Stoychev        : AutoAux, RI-MP2 NMR
   Willem Van den Heuvel  : Paramagnetic NMR
   Boris Wezisla          : Elementary symmetry handling
   Frank Wennmohs         : Technical directorship


 We gratefully acknowledge several colleagues who have allowed us to
 interface, adapt or use parts of their codes:
   Stefan Grimme, W. Hujo, H. Kruse,             : VdW corrections, initial TS optimization,
                  C. Bannwarth                     DFT functionals, gCP, sTDA/sTD-DF
   Ed Valeev, F. Pavosevic, A. Kumar             : LibInt (2-el integral package), F12 methods
   Garnet Chan, S. Sharma, J. Yang, R. Olivares  : DMRG
   Ulf Ekstrom                                   : XCFun DFT Library
   Mihaly Kallay                                 : mrcc  (arbitrary order and MRCC methods)
   Andreas Klamt, Michael Diedenhofen            : otool_cosmo (COSMO solvation model)
   Jiri Pittner, Ondrej Demel                    : Mk-CCSD
   Frank Weinhold                                : gennbo (NPA and NBO analysis)
   Christopher J. Cramer and Donald G. Truhlar   : smd solvation model
   Lars Goerigk                                  : TD-DFT with DH, B97 family of functionals
   V. Asgeirsson, H. Jonsson                     : NEB implementation
   FAccTs GmbH                                   : IRC, NEB, NEB-TS, Multilevel, MM, QM/MM, CI optimization
   S Lehtola, MJT Oliveira, MAL Marques          : LibXC Library


 Your calculation uses the libint2 library for the computation of 2-el integrals
 For citations please refer to: http://libint.valeyev.net

 Your ORCA version has been built with support for libXC version: 4.2.3
 For citations please refer to: https://tddft.org/programs/libxc/

 This ORCA versions uses:
   CBLAS   interface :  Fast vector & matrix operations
   LAPACKE interface :  Fast linear algebra routines
   SCALAPACK package :  Parallel linear algebra routines


Your calculation utilizes the atom-pairwise dispersion correction
with the Becke-Johnson damping scheme (D3BJ)
Cite in your paper:
S.Grimme, S.Ehrlich, L.Goerigk, J Comput Chem, (2011), 32, 1456–1465 
S.Grimme, J.Antony, S.Ehrlich and H.Krieg, J.Chem.Phys., 132, (2010), 154104 
   

----- Orbital basis set information -----
Your calculation utilizes the basis: aug-cc-pVTZ 
    H, B-Ne : Obtained from the ccRepo (grant-hill.group.shef.ac.uk/ccrepo) Feb. 2017
              R. A. Kendall, T. H. Dunning, Jr., R. J. Harrison, J. Chem. Phys. 96, 6796 (1992)
         He : Obtained from the ccRepo (grant-hill.group.shef.ac.uk/ccrepo) Feb. 2017
              D. E. Woon, T. H. Dunning, Jr., J. Chem. Phys. 100, 2975 (1994)
  Li-Be, Na : Obtained from the ccRepo (grant-hill.group.shef.ac.uk/ccrepo) Feb. 2017
              B. P. Prascher, D. E. Woon, K. A. Peterson, T. H. Dunning, Jr., A. K. Wilson, Theor. Chem. Acc. 128, 69 (2011)
         Mg : Obtained from the Peterson Research Group Website (tyr0.chem.wsu.edu/~kipeters) Feb. 2017
              B. P. Prascher, D. E. Woon, K. A. Peterson, T. H. Dunning, Jr., A. K. Wilson, Theor. Chem. Acc. 128, 69 (2011)
      Al-Ar : Obtained from the ccRepo (grant-hill.group.shef.ac.uk/ccrepo) Feb. 2017
              D. E. Woon, T. H. Dunning, Jr., J. Chem. Phys. 98, 1358 (1993)
      Sc-Zn : Obtained from the ccRepo (grant-hill.group.shef.ac.uk/ccrepo) Feb. 2017
              N. B. Balabanov, K. A. Peterson, J. Chem. Phys. 123, 064107 (2005)
              N. B. Balabanov, K. A. Peterson, J. Chem. Phys. 125, 074110 (2006)
      Ga-Kr : Obtained from the ccRepo (grant-hill.group.shef.ac.uk/ccrepo) Feb. 2017
              A. K. Wilson, D. E. Woon, K. A. Peterson, T. H. Dunning, Jr., J. Chem. Phys. 110, 7667 (1999)
     Ag, Au : Obtained from the Peterson Research Group Website (tyr0.chem.wsu.edu/~kipeters) Feb. 2017
              K. A. Peterson, C. Puzzarini, Theor. Chem. Acc. 114, 283 (2005)

----- AuxJ basis set information -----
Your calculation utilizes the auxiliary basis: def2/J
   F. Weigend, Phys. Chem. Chem. Phys. 8, 1057 (2006).

================================================================================
                                        WARNINGS
                       Please study these warnings very carefully!
================================================================================


WARNING: your system is open-shell and RHF/RKS was chosen
  ===> : WILL SWITCH to UHF/UKS


WARNING: The SCAN functional is very grid-sensitive!
         Use at least GRID5 and a higher intacc

INFO   : the flag for use of LIBINT has been found!

================================================================================
                                       INPUT FILE
================================================================================
NAME = 17_VO.in
|  1> #
|  2> # 17_VO scanfunc/aug-cc-pvtz
|  3> #
|  4> ! scanfunc d3bj aug-cc-pvtz def2/j grid4 nofinalgrid
|  5> 
|  6> *xyz 0 4
|  7>   V   0.00000000000000      0.00000000000000      0.20415600493149
|  8>   O   0.00000000000000      0.00000000000000      1.79584399506851
|  9> *
| 10> 
| 11> %pal
| 12> nprocs 24
| 13> end
| 14> 
| 15> 
| 16>                          ****END OF INPUT****
================================================================================

                       ****************************
                       * Single Point Calculation *
                       ****************************

---------------------------------
CARTESIAN COORDINATES (ANGSTROEM)
---------------------------------
  V      0.000000    0.000000    0.204156
  O      0.000000    0.000000    1.795844

----------------------------
CARTESIAN COORDINATES (A.U.)
----------------------------
  NO LB      ZA    FRAG     MASS         X           Y           Z
   0 V    23.0000    0    50.940    0.000000    0.000000    0.385799
   1 O     8.0000    0    15.999    0.000000    0.000000    3.393653

--------------------------------
INTERNAL COORDINATES (ANGSTROEM)
--------------------------------
 V      0   0   0     0.000000000000     0.00000000     0.00000000
 O      1   0   0     1.591687990137     0.00000000     0.00000000

---------------------------
INTERNAL COORDINATES (A.U.)
---------------------------
 V      0   0   0     0.000000000000     0.00000000     0.00000000
 O      1   0   0     3.007854392011     0.00000000     0.00000000

---------------------
BASIS SET INFORMATION
---------------------
There are 2 groups of distinct atoms

 Group   1 Type V   : 116s77p23d3f2g contracted to 8s7p5d3f2g pattern {19191919191911/151515151511/77711/111/11}
 Group   2 Type O   : 19s6p3d2f contracted to 5s4p3d2f pattern {88111/3111/111/11}

Atom   0V    basis set group =>   1
Atom   1O    basis set group =>   2
---------------------------------
AUXILIARY/J BASIS SET INFORMATION
---------------------------------
There are 2 groups of distinct atoms

 Group   1 Type V   : 19s5p5d3f3g contracted to 8s5p5d2f3g pattern {121111111/11111/11111/21/111}
 Group   2 Type O   : 12s5p4d2f1g contracted to 6s4p3d1f1g pattern {711111/2111/211/2/1}

Atom   0V    basis set group =>   1
Atom   1O    basis set group =>   2


           ************************************************************
           *        Program running with 24 parallel MPI-processes    *
           *              working on a common directory               *
           ************************************************************
------------------------------------------------------------------------------
                           ORCA GTO INTEGRAL CALCULATION
                           -- RI-GTO INTEGRALS CHOSEN --
------------------------------------------------------------------------------

                         BASIS SET STATISTICS AND STARTUP INFO

Gaussian basis set:
 # of primitive gaussian shells          ...  251
 # of primitive gaussian functions       ...  567
 # of contracted shells                  ...   39
 # of contracted basis functions         ...  139
 Highest angular momentum                ...    4
 Maximum contraction depth               ...   19
Auxiliary gaussian basis set:
 # of primitive gaussian shells          ...   59
 # of primitive gaussian functions       ...  177
 # of contracted shells                  ...   38
 # of contracted aux-basis functions     ...  138
 Highest angular momentum                ...    4
 Maximum contraction depth               ...   12
Ratio of auxiliary to basis functions    ...  0.99
Integral package used                  ... LIBINT
 One Electron integrals                  ... done
 Ordering auxiliary basis shells         ... done
 Integral threshhold             Thresh  ...  1.000e-10
 Primitive cut-off               TCut    ...  1.000e-11
 Pre-screening matrix                    ... done
 Shell pair data                         ... 
 Ordering of the shell pairs             ... done (   0.000 sec) 780 of 780 pairs
 Determination of significant pairs      ... done (   0.000 sec)
 Creation of shell pair data             ... done (   0.001 sec)
 Storage of shell pair data              ... done (   0.002 sec)
 Shell pair data done in (   0.003 sec)
 Computing two index integrals           ... done
 Cholesky decomposition of the V-matrix  ... done


Timings:
 Total evaluation time                   ...   2.249 sec (  0.037 min)
 One electron matrix time                ...   0.051 sec (  0.001 min) =  2.3%
 Schwartz matrix evaluation time         ...   2.169 sec (  0.036 min) = 96.4%
 Two index repulsion integral time       ...   0.001 sec (  0.000 min) =  0.0%
 Cholesky decomposition of V             ...   0.001 sec (  0.000 min) =  0.0%
 Three index repulsion integral time     ...   0.000 sec (  0.000 min) =  0.0%



           ************************************************************
           *        Program running with 24 parallel MPI-processes    *
           *              working on a common directory               *
           ************************************************************
-------------------------------------------------------------------------------
                                 ORCA SCF
-------------------------------------------------------------------------------

------------
SCF SETTINGS
------------
Hamiltonian:
 Density Functional     Method          .... DFT(GTOs)
 Exchange Functional    Exchange        .... SCAN
 Correlation Functional Correlation     .... SCAN
 Gradients option       PostSCFGGA      .... off
   Density functional embedding theory  .... OFF
   NL short-range parameter             ....  6.400000
 RI-approximation to the Coulomb term is turned on
   Number of auxiliary basis functions  .... 138


General Settings:
 Integral files         IntName         .... 17_VO
 Hartree-Fock type      HFTyp           .... UHF
 Total Charge           Charge          ....    0
 Multiplicity           Mult            ....    4
 Number of Electrons    NEL             ....   31
 Basis Dimension        Dim             ....  139
 Nuclear Repulsion      ENuc            ....     61.1731739704 Eh

Convergence Acceleration:
 DIIS                   CNVDIIS         .... on
   Start iteration      DIISMaxIt       ....    12
   Startup error        DIISStart       ....  0.200000
   # of expansion vecs  DIISMaxEq       ....     5
   Bias factor          DIISBfac        ....   1.050
   Max. coefficient     DIISMaxC        ....  10.000
 Newton-Raphson         CNVNR           .... off
 SOSCF                  CNVSOSCF        .... off
 Level Shifting         CNVShift        .... on
   Level shift para.    LevelShift      ....    0.2500
   Turn off err/grad.   ShiftErr        ....    0.0010
 Zerner damping         CNVZerner       .... off
 Static damping         CNVDamp         .... on
   Fraction old density DampFac         ....    0.7000
   Max. Damping (<1)    DampMax         ....    0.9800
   Min. Damping (>=0)   DampMin         ....    0.0000
   Turn off err/grad.   DampErr         ....    0.1000
 Fernandez-Rico         CNVRico         .... off

SCF Procedure:
 Maximum # iterations   MaxIter         ....   125
 SCF integral mode      SCFMode         .... Direct
   Integral package                     .... LIBINT
 Reset frequency        DirectResetFreq ....    20
 Integral Threshold     Thresh          ....  1.000e-10 Eh
 Primitive CutOff       TCut            ....  1.000e-11 Eh

Convergence Tolerance:
 Convergence Check Mode ConvCheckMode   .... Total+1el-Energy
 Convergence forced     ConvForced      .... 0
 Energy Change          TolE            ....  1.000e-06 Eh
 1-El. energy change                    ....  1.000e-03 Eh
 DIIS Error             TolErr          ....  1.000e-06


Diagonalization of the overlap matrix:
Smallest eigenvalue                        ... 3.432e-05
Time for diagonalization                   ...    0.005 sec
Threshold for overlap eigenvalues          ... 1.000e-08
Number of eigenvalues below threshold      ... 0
Time for construction of square roots      ...    0.002 sec
Total time needed                          ...    0.007 sec

-------------------
DFT GRID GENERATION
-------------------

General Integration Accuracy     IntAcc      ...  4.670
Radial Grid Type                 RadialGrid  ... Gauss-Chebyshev
Angular Grid (max. acc.)         AngularGrid ... Lebedev-302
Angular grid pruning method      GridPruning ... 3 (G Style)
Weight generation scheme         WeightScheme... Becke
Basis function cutoff            BFCut       ...    1.0000e-10
Integration weight cutoff        WCut        ...    1.0000e-14
Grids for H and He will be reduced by one unit

# of grid points (after initial pruning)     ...  15876 (   0.0 sec)
# of grid points (after weights+screening)   ...  15834 (   0.0 sec)
nearest neighbour list constructed           ...    0.0 sec
Grid point re-assignment to atoms done       ...    0.0 sec
Grid point division into batches done        ...    0.1 sec
Reduced shell lists constructed in    0.1 sec

Total number of grid points                  ...    15834
Total number of batches                      ...      248
Average number of points per batch           ...       63
Average number of grid points per atom       ...     7917
Average number of shells per batch           ...    17.33 (44.44%)
Average number of basis functions per batch  ...    45.67 (32.85%)
Average number of large shells per batch     ...    10.92 (62.98%)
Average number of large basis fcns per batch ...    28.08 (61.50%)
Maximum spatial batch extension              ...  28.57, 31.41, 18.14 au
Average spatial batch extension              ...   0.89,  0.95,  0.67 au

Time for grid setup =    0.186 sec

------------------------------
INITIAL GUESS: MODEL POTENTIAL
------------------------------
Loading Hartree-Fock densities                     ... done
Calculating cut-offs                               ... done
Setting up the integral package                    ... done
Initializing the effective Hamiltonian             ... done
Starting the Coulomb interaction                   ... done (   0.0 sec)
Reading the grid                                   ... done
Mapping shells                                     ... done
Starting the XC term evaluation                    ... done (   0.0 sec)
  promolecular density results
     # of electrons  =     30.999998472
     EX              =    -58.590345239
     EC              =     -0.531432623
     EX+EC           =    -59.121777862
Transforming the Hamiltonian                       ... done (   0.0 sec)
Diagonalizing the Hamiltonian                      ... done (   0.0 sec)
Back transforming the eigenvectors                 ... done (   0.0 sec)
Now organizing SCF variables                       ... done
                      ------------------
                      INITIAL GUESS DONE (   0.3 sec)
                      ------------------
--------------
SCF ITERATIONS
--------------
ITER       Energy         Delta-E        Max-DP      RMS-DP      [F,P]     Damp
               ***  Starting incremental Fock matrix formation  ***
  0  -1018.7217834590   0.000000000000 0.89358780  0.01425621  0.6754272 0.7000
  1  -1018.9723215594  -0.250538100493 0.64256911  0.00964779  0.1451294 0.7000
                               ***Turning on DIIS***
  2  -1019.0443635420  -0.072041982564 1.41934354  0.01863258  0.0970776 0.0000
  3  -1019.1489497554  -0.104586213407 0.05673825  0.00110638  0.2616381 0.7000
  4  -1019.1842550816  -0.035305326224 0.04187498  0.00079001  0.2365526 0.7000
  5  -1019.2175663807  -0.033311299092 0.02839866  0.00048511  0.2027310 0.7000
  6  -1019.2427825121  -0.025216131400 0.02520050  0.00038003  0.1663298 0.7000
  7  -1019.2603629592  -0.017580447028 0.02765286  0.00043622  0.1330255 0.7000
  8  -1019.2762382363  -0.015875277129 0.07218845  0.00151827  0.0863221 0.0000
  9  -1019.2955097819  -0.019271545582 0.04016854  0.00048206  0.0264387 0.0000
 10  -1019.2963193791  -0.000809597226 0.01175979  0.00019704  0.0143684 0.0000
 11  -1019.2966682734  -0.000348894307 0.00710626  0.00009527  0.0077913 0.0000
 12  -1019.2968258638  -0.000157590412 0.00456635  0.00007656  0.0032339 0.0000
 13  -1019.2968958948  -0.000070031029 0.00401391  0.00005928  0.0017273 0.0000
 14  -1019.2969309420  -0.000035047176 0.00349035  0.00005414  0.0010309 0.0000
 15  -1019.2969513507  -0.000020408677 0.01147385  0.00010058  0.0008923 0.0000
 16  -1019.2969731330  -0.000021782256 0.00188521  0.00002048  0.0002406 0.0000
 17  -1019.2969736038  -0.000000470821 0.00031767  0.00000402  0.0000786 0.0000
 18  -1019.2969737735  -0.000000169730 0.00015214  0.00000252  0.0000581 0.0000
 19  -1019.2969739512  -0.000000177723 0.00013950  0.00000216  0.0000905 0.0000
               *** Restarting incremental Fock matrix formation ***
                                   *** Resetting DIIS ***
 20  -1019.2969741000  -0.000000148731 0.00016716  0.00000275  0.0001002 0.0000
 21  -1019.2969740552   0.000000044720 0.00005858  0.00000101  0.0001424 0.0000
                 **** Energy Check signals convergence ****

               *****************************************************
               *                     SUCCESS                       *
               *           SCF CONVERGED AFTER  22 CYCLES          *
               *****************************************************


----------------
TOTAL SCF ENERGY
----------------

Total Energy       :        -1019.29697392 Eh          -27736.48076 eV

Components:
Nuclear Repulsion  :           61.17317397 Eh            1664.60669 eV
Electronic Energy  :        -1080.47014789 Eh          -29401.08745 eV
One Electron Energy:        -1522.19816137 Eh          -41421.11778 eV
Two Electron Energy:          441.72801348 Eh           12020.03033 eV

Virial components:
Potential Energy   :        -2037.10791275 Eh          -55432.52444 eV
Kinetic Energy     :         1017.81093883 Eh           27696.04369 eV
Virial Ratio       :            2.00146003


DFT components:
N(Alpha)           :       16.999994070138 electrons
N(Beta)            :       13.999994034547 electrons
N(Total)           :       30.999988104685 electrons
E(X)               :      -52.705996032906 Eh       
E(C)               :       -1.230065890375 Eh       
E(XC)              :      -53.936061923281 Eh       
DFET-embed. en.    :        0.000000000000 Eh       

---------------
SCF CONVERGENCE
---------------

  Last Energy change         ...    1.3383e-07  Tolerance :   1.0000e-06
  Last MAX-Density change    ...    1.7231e-05  Tolerance :   1.0000e-05
  Last RMS-Density change    ...    3.3209e-07  Tolerance :   1.0000e-06
  Last DIIS Error            ...    4.2044e-05  Tolerance :   1.0000e-06

             **** THE GBW FILE WAS UPDATED (17_VO.gbw) ****
             **** DENSITY FILE WAS UPDATED (17_VO.scfp) ****
             **** ENERGY FILE WAS UPDATED (17_VO.en.tmp) ****
----------------------
UHF SPIN CONTAMINATION
----------------------

Warning: in a DFT calculation there is little theoretical justification to 
         calculate <S**2> as in Hartree-Fock theory. We will do it anyways
         but you should keep in mind that the values have only limited relevance

Expectation value of <S**2>     :     3.829523
Ideal value S*(S+1) for S=1.5   :     3.750000
Deviation                       :     0.079523

             **** THE GBW FILE WAS UPDATED (17_VO.gbw) ****
             **** DENSITY FILE WAS UPDATED (17_VO.scfp) ****
----------------
ORBITAL ENERGIES
----------------
                 SPIN UP ORBITALS
  NO   OCC          E(Eh)            E(eV) 
   0   1.0000    -196.425184     -5345.0010 
   1   1.0000     -22.061977      -600.3369 
   2   1.0000     -18.942336      -515.4472 
   3   1.0000     -18.579654      -505.5781 
   4   1.0000     -18.572711      -505.3892 
   5   1.0000     -18.572711      -505.3892 
   6   1.0000      -2.607162       -70.9445 
   7   1.0000      -1.648708       -44.8636 
   8   1.0000      -1.638020       -44.5728 
   9   1.0000      -1.638020       -44.5728 
  10   1.0000      -0.835319       -22.7302 
  11   1.0000      -0.314766        -8.5652 
  12   1.0000      -0.294901        -8.0247 
  13   1.0000      -0.294897        -8.0246 
  14   1.0000      -0.179949        -4.8967 
  15   1.0000      -0.176273        -4.7966 
  16   1.0000      -0.176223        -4.7953 
  17   0.0000      -0.111602        -3.0368 
  18   0.0000      -0.111601        -3.0368 
  19   0.0000      -0.085909        -2.3377 
  20   0.0000      -0.014276        -0.3885 
  21   0.0000      -0.014275        -0.3884 
  22   0.0000       0.017736         0.4826 
  23   0.0000       0.026696         0.7264 
  24   0.0000       0.035176         0.9572 
  25   0.0000       0.035176         0.9572 
  26   0.0000       0.059903         1.6301 
  27   0.0000       0.059958         1.6315 
  28   0.0000       0.063674         1.7327 
  29   0.0000       0.065098         1.7714 
  30   0.0000       0.065098         1.7714 
  31   0.0000       0.079719         2.1693 
  32   0.0000       0.111350         3.0300 
  33   0.0000       0.159339         4.3358 
  34   0.0000       0.159340         4.3359 
  35   0.0000       0.179543         4.8856 
  36   0.0000       0.179567         4.8863 
  37   0.0000       0.190677         5.1886 
  38   0.0000       0.202296         5.5048 
  39   0.0000       0.202296         5.5048 
  40   0.0000       0.216512         5.8916 
  41   0.0000       0.216512         5.8916 
  42   0.0000       0.217812         5.9270 
  43   0.0000       0.259532         7.0622 
  44   0.0000       0.386388        10.5141 
  45   0.0000       0.386440        10.5156 
  46   0.0000       0.392602        10.6832 
  47   0.0000       0.392602        10.6832 
  48   0.0000       0.413634        11.2556 
  49   0.0000       0.497930        13.5494 
  50   0.0000       0.505354        13.7514 
  51   0.0000       0.505355        13.7514 
  52   0.0000       0.578388        15.7387 
  53   0.0000       0.583758        15.8849 
  54   0.0000       0.583758        15.8849 
  55   0.0000       0.659504        17.9460 
  56   0.0000       0.659646        17.9499 
  57   0.0000       0.729003        19.8372 
  58   0.0000       0.729004        19.8372 
  59   0.0000       0.734119        19.9764 
  60   0.0000       0.768077        20.9004 
  61   0.0000       0.768119        20.9016 
  62   0.0000       0.786495        21.4016 
  63   0.0000       0.786496        21.4017 
  64   0.0000       0.854153        23.2427 
  65   0.0000       1.153021        31.3753 
  66   0.0000       1.185408        32.2566 
  67   0.0000       1.185410        32.2567 
  68   0.0000       1.325892        36.0794 
  69   0.0000       1.325939        36.0806 
  70   0.0000       1.345685        36.6179 
  71   0.0000       1.345685        36.6179 
  72   0.0000       1.387536        37.7568 
  73   0.0000       1.494612        40.6705 
  74   0.0000       1.494613        40.6705 
  75   0.0000       1.581102        43.0240 
  76   0.0000       1.581102        43.0240 
  77   0.0000       1.595986        43.4290 
  78   0.0000       1.630722        44.3742 
  79   0.0000       1.630759        44.3752 
  80   0.0000       1.737951        47.2920 
  81   0.0000       1.738528        47.3078 
  82   0.0000       1.805507        49.1304 
  83   0.0000       1.805509        49.1304 
  84   0.0000       1.945822        52.9485 
  85   0.0000       2.003900        54.5289 
  86   0.0000       2.116766        57.6001 
  87   0.0000       2.116766        57.6001 
  88   0.0000       2.118006        57.6339 
  89   0.0000       2.119230        57.6672 
  90   0.0000       2.192693        59.6662 
  91   0.0000       2.192695        59.6663 
  92   0.0000       2.403534        65.4035 
  93   0.0000       2.434945        66.2582 
  94   0.0000       2.434946        66.2583 
  95   0.0000       2.525300        68.7169 
  96   0.0000       2.591478        70.5177 
  97   0.0000       2.591904        70.5293 
  98   0.0000       2.632642        71.6378 
  99   0.0000       2.632643        71.6378 
 100   0.0000       2.730508        74.3009 
 101   0.0000       2.772029        75.4308 
 102   0.0000       2.772099        75.4326 
 103   0.0000       2.980529        81.1043 
 104   0.0000       3.385227        92.1167 
 105   0.0000       3.385228        92.1167 
 106   0.0000       3.691648       100.4549 
 107   0.0000       4.160974       113.2259 
 108   0.0000       4.160974       113.2259 
 109   0.0000       4.844497       131.8255 
 110   0.0000       4.844497       131.8255 
 111   0.0000       4.914940       133.7423 
 112   0.0000       4.915198       133.7493 
 113   0.0000       4.916177       133.7760 
 114   0.0000       5.154506       140.2612 
 115   0.0000       5.154508       140.2613 
 116   0.0000       5.222064       142.0996 
 117   0.0000       5.222869       142.1215 
 118   0.0000       5.237257       142.5130 
 119   0.0000       5.237257       142.5130 
 120   0.0000       5.269604       143.3932 
 121   0.0000       5.269777       143.3979 
 122   0.0000       5.298716       144.1854 
 123   0.0000       5.298717       144.1854 
 124   0.0000       5.379336       146.3792 
 125   0.0000       5.509176       149.9123 
 126   0.0000       6.313106       171.7883 
 127   0.0000       6.313106       171.7883 
 128   0.0000       6.462091       175.8424 
 129   0.0000       6.462926       175.8652 
 130   0.0000       6.707038       182.5078 
 131   0.0000       6.707041       182.5079 
 132   0.0000       6.772077       184.2776 
 133   0.0000       6.772868       184.2991 
 134   0.0000       6.995108       190.3466 
 135   0.0000       7.192798       195.7260 
 136   0.0000       7.192803       195.7261 
 137   0.0000       7.444792       202.5831 
 138   0.0000      11.878208       323.2225 

                 SPIN DOWN ORBITALS
  NO   OCC          E(Eh)            E(eV) 
   0   1.0000    -196.426696     -5345.0421 
   1   1.0000     -22.027721      -599.4047 
   2   1.0000     -18.941894      -515.4351 
   3   1.0000     -18.567115      -505.2369 
   4   1.0000     -18.540339      -504.5083 
   5   1.0000     -18.540339      -504.5083 
   6   1.0000      -2.489810       -67.7512 
   7   1.0000      -1.588776       -43.2328 
   8   1.0000      -1.502352       -40.8811 
   9   1.0000      -1.502351       -40.8811 
  10   1.0000      -0.860209       -23.4075 
  11   1.0000      -0.309113        -8.4114 
  12   1.0000      -0.305225        -8.3056 
  13   1.0000      -0.305223        -8.3055 
  14   0.0000      -0.076066        -2.0699 
  15   0.0000      -0.050344        -1.3699 
  16   0.0000      -0.050343        -1.3699 
  17   0.0000      -0.034765        -0.9460 
  18   0.0000      -0.034675        -0.9436 
  19   0.0000      -0.034414        -0.9364 
  20   0.0000       0.003037         0.0826 
  21   0.0000       0.003037         0.0826 
  22   0.0000       0.006751         0.1837 
  23   0.0000       0.021308         0.5798 
  24   0.0000       0.045415         1.2358 
  25   0.0000       0.045415         1.2358 
  26   0.0000       0.049172         1.3381 
  27   0.0000       0.052235         1.4214 
  28   0.0000       0.052252         1.4218 
  29   0.0000       0.056265         1.5310 
  30   0.0000       0.056265         1.5311 
  31   0.0000       0.081773         2.2251 
  32   0.0000       0.092705         2.5226 
  33   0.0000       0.171418         4.6645 
  34   0.0000       0.171419         4.6646 
  35   0.0000       0.187274         5.0960 
  36   0.0000       0.202691         5.5155 
  37   0.0000       0.202716         5.5162 
  38   0.0000       0.206989         5.6325 
  39   0.0000       0.206990         5.6325 
  40   0.0000       0.214557         5.8384 
  41   0.0000       0.214557         5.8384 
  42   0.0000       0.217677         5.9233 
  43   0.0000       0.264066         7.1856 
  44   0.0000       0.402251        10.9458 
  45   0.0000       0.402295        10.9470 
  46   0.0000       0.424718        11.5572 
  47   0.0000       0.424718        11.5572 
  48   0.0000       0.428121        11.6498 
  49   0.0000       0.481759        13.1093 
  50   0.0000       0.481761        13.1094 
  51   0.0000       0.497039        13.5251 
  52   0.0000       0.579064        15.7571 
  53   0.0000       0.627187        17.0666 
  54   0.0000       0.627189        17.0667 
  55   0.0000       0.695519        18.9260 
  56   0.0000       0.695575        18.9275 
  57   0.0000       0.734793        19.9947 
  58   0.0000       0.750178        20.4134 
  59   0.0000       0.750179        20.4134 
  60   0.0000       0.795147        21.6371 
  61   0.0000       0.795149        21.6371 
  62   0.0000       0.804123        21.8813 
  63   0.0000       0.804409        21.8891 
  64   0.0000       0.857295        23.3282 
  65   0.0000       1.162930        31.6449 
  66   0.0000       1.186404        32.2837 
  67   0.0000       1.186406        32.2837 
  68   0.0000       1.377545        37.4849 
  69   0.0000       1.394603        37.9491 
  70   0.0000       1.394824        37.9551 
  71   0.0000       1.464743        39.8577 
  72   0.0000       1.464743        39.8577 
  73   0.0000       1.537078        41.8260 
  74   0.0000       1.537078        41.8260 
  75   0.0000       1.626715        44.2652 
  76   0.0000       1.628316        44.3087 
  77   0.0000       1.628317        44.3087 
  78   0.0000       1.706114        46.4257 
  79   0.0000       1.706200        46.4281 
  80   0.0000       1.767525        48.0968 
  81   0.0000       1.767741        48.1027 
  82   0.0000       1.824763        49.6543 
  83   0.0000       1.824764        49.6544 
  84   0.0000       1.944593        52.9151 
  85   0.0000       2.035094        55.3777 
  86   0.0000       2.115253        57.5590 
  87   0.0000       2.116194        57.5846 
  88   0.0000       2.135509        58.1102 
  89   0.0000       2.135510        58.1102 
  90   0.0000       2.268220        61.7214 
  91   0.0000       2.268221        61.7214 
  92   0.0000       2.434550        66.2475 
  93   0.0000       2.444592        66.5207 
  94   0.0000       2.444593        66.5208 
  95   0.0000       2.521901        68.6244 
  96   0.0000       2.611194        71.0542 
  97   0.0000       2.611687        71.0676 
  98   0.0000       2.649342        72.0923 
  99   0.0000       2.649342        72.0923 
 100   0.0000       2.713136        73.8282 
 101   0.0000       2.875321        78.2415 
 102   0.0000       2.875323        78.2415 
 103   0.0000       3.033202        82.5376 
 104   0.0000       3.405098        92.6574 
 105   0.0000       3.405099        92.6574 
 106   0.0000       3.701906       100.7340 
 107   0.0000       4.149201       112.9055 
 108   0.0000       4.149205       112.9056 
 109   0.0000       4.956756       134.8802 
 110   0.0000       4.988914       135.7553 
 111   0.0000       4.988914       135.7553 
 112   0.0000       4.995895       135.9452 
 113   0.0000       4.995960       135.9470 
 114   0.0000       5.238814       142.5554 
 115   0.0000       5.238815       142.5554 
 116   0.0000       5.370510       146.1390 
 117   0.0000       5.370510       146.1390 
 118   0.0000       5.382538       146.4663 
 119   0.0000       5.383183       146.4838 
 120   0.0000       5.395432       146.8172 
 121   0.0000       5.395569       146.8209 
 122   0.0000       5.395569       146.8209 
 123   0.0000       5.395735       146.8254 
 124   0.0000       5.436314       147.9296 
 125   0.0000       5.542203       150.8110 
 126   0.0000       6.282885       170.9660 
 127   0.0000       6.282885       170.9660 
 128   0.0000       6.437347       175.1691 
 129   0.0000       6.439175       175.2189 
 130   0.0000       6.695081       182.1824 
 131   0.0000       6.695085       182.1825 
 132   0.0000       6.726061       183.0254 
 133   0.0000       6.726152       183.0279 
 134   0.0000       6.982472       190.0027 
 135   0.0000       7.150470       194.5742 
 136   0.0000       7.150475       194.5743 
 137   0.0000       7.419889       201.9054 
 138   0.0000      11.846403       322.3570 

                    ********************************
                    * MULLIKEN POPULATION ANALYSIS *
                    ********************************

--------------------------------------------
MULLIKEN ATOMIC CHARGES AND SPIN POPULATIONS
--------------------------------------------
   0 V :    0.478757    3.400214
   1 O :   -0.478757   -0.400214
Sum of atomic charges         :   -0.0000000
Sum of atomic spin populations:    3.0000000

-----------------------------------------------------
MULLIKEN REDUCED ORBITAL CHARGES AND SPIN POPULATIONS
-----------------------------------------------------
CHARGE
  0 V s       :     6.818686  s :     6.818686
      pz      :     4.072210  p :    12.117094
      px      :     4.022442
      py      :     4.022442
      dz2     :     0.737424  d :     3.553486
      dxz     :     0.410130
      dyz     :     0.410137
      dx2y2   :     0.997852
      dxy     :     0.997943
      f0      :     0.008939  f :     0.023837
      f+1     :     0.007241
      f-1     :     0.007241
      f+2     :     0.000208
      f-2     :     0.000208
      f+3     :     0.000000
      f-3     :     0.000000
      g0      :     0.001929  g :     0.008140
      g+1     :     0.003108
      g-1     :     0.003108
      g+2     :    -0.000003
      g-2     :    -0.000003
      g+3     :     0.000000
      g-3     :     0.000000
      g+4     :     0.000000
      g-4     :     0.000000
  1 O s       :     3.930067  s :     3.930067
      pz      :     1.423782  p :     4.520035
      px      :     1.548130
      py      :     1.548123
      dz2     :     0.005451  d :     0.023397
      dxz     :     0.007583
      dyz     :     0.007583
      dx2y2   :     0.001418
      dxy     :     0.001362
      f0      :     0.001511  f :     0.005259
      f+1     :     0.001366
      f-1     :     0.001366
      f+2     :     0.000525
      f-2     :     0.000490
      f+3     :     0.000000
      f-3     :     0.000000

SPIN
  0 V s       :     0.778856  s :     0.778856
      pz      :     0.049979  p :     0.063813
      px      :     0.006916
      py      :     0.006917
      dz2     :     0.301306  d :     2.565077
      dxz     :     0.133982
      dyz     :     0.133995
      dx2y2   :     0.997852
      dxy     :     0.997943
      f0      :    -0.000935  f :    -0.003771
      f+1     :    -0.001626
      f-1     :    -0.001626
      f+2     :     0.000208
      f-2     :     0.000208
      f+3     :     0.000000
      f-3     :     0.000000
      g0      :    -0.000293  g :    -0.003761
      g+1     :    -0.001731
      g-1     :    -0.001731
      g+2     :    -0.000003
      g-2     :    -0.000003
      g+3     :     0.000000
      g-3     :     0.000000
      g+4     :     0.000000
      g-4     :     0.000000
  1 O s       :    -0.012501  s :    -0.012501
      pz      :    -0.119890  p :    -0.399888
      px      :    -0.139992
      py      :    -0.140006
      dz2     :     0.002575  d :     0.009239
      dxz     :     0.001942
      dyz     :     0.001942
      dx2y2   :     0.001418
      dxy     :     0.001362
      f0      :     0.000903  f :     0.002936
      f+1     :     0.000509
      f-1     :     0.000509
      f+2     :     0.000525
      f-2     :     0.000490
      f+3     :     0.000000
      f-3     :     0.000000


                     *******************************
                     * LOEWDIN POPULATION ANALYSIS *
                     *******************************

-------------------------------------------
LOEWDIN ATOMIC CHARGES AND SPIN POPULATIONS
-------------------------------------------
   0 V :    0.570894    3.124109
   1 O :   -0.570894   -0.124109

----------------------------------------------------
LOEWDIN REDUCED ORBITAL CHARGES AND SPIN POPULATIONS
----------------------------------------------------
CHARGE
  0 V s       :     6.370275  s :     6.370275
      pz      :     4.124615  p :    11.962926
      px      :     3.919156
      py      :     3.919155
      dz2     :     0.882705  d :     3.728030
      dxz     :     0.451330
      dyz     :     0.451336
      dx2y2   :     0.971295
      dxy     :     0.971364
      f0      :     0.125574  f :     0.258304
      f+1     :     0.064486
      f-1     :     0.064485
      f+2     :     0.001879
      f-2     :     0.001880
      f+3     :     0.000000
      f-3     :     0.000000
      g0      :     0.039833  g :     0.109571
      g+1     :     0.034293
      g-1     :     0.034293
      g+2     :     0.000575
      g-2     :     0.000577
      g+3     :     0.000000
      g-3     :     0.000000
      g+4     :     0.000000
      g-4     :     0.000000
  1 O s       :     3.536680  s :     3.536680
      pz      :     1.628203  p :     4.475603
      px      :     1.423703
      py      :     1.423698
      dz2     :     0.204101  d :     0.376051
      dxz     :     0.069904
      dyz     :     0.069904
      dx2y2   :     0.016096
      dxy     :     0.016046
      f0      :     0.088014  f :     0.182560
      f+1     :     0.037128
      f-1     :     0.037128
      f+2     :     0.010155
      f-2     :     0.010134
      f+3     :     0.000000
      f-3     :     0.000000

SPIN
  0 V s       :     0.646331  s :     0.646331
      pz      :     0.067756  p :     0.067824
      px      :     0.000034
      py      :     0.000034
      dz2     :     0.282486  d :     2.444182
      dxz     :     0.109513
      dyz     :     0.109524
      dx2y2   :     0.971295
      dxy     :     0.971364
      f0      :    -0.003279  f :    -0.021684
      f+1     :    -0.011082
      f-1     :    -0.011083
      f+2     :     0.001879
      f-2     :     0.001880
      f+3     :     0.000000
      f-3     :     0.000000
      g0      :    -0.001237  g :    -0.012544
      g+1     :    -0.006229
      g-1     :    -0.006229
      g+2     :     0.000575
      g-2     :     0.000577
      g+3     :     0.000000
      g-3     :     0.000000
      g+4     :     0.000000
      g-4     :     0.000000
  1 O s       :     0.034208  s :     0.034208
      pz      :    -0.029728  p :    -0.226876
      px      :    -0.098569
      py      :    -0.098579
      dz2     :     0.000768  d :     0.042573
      dxz     :     0.004831
      dyz     :     0.004832
      dx2y2   :     0.016096
      dxy     :     0.016046
      f0      :     0.002694  f :     0.025985
      f+1     :     0.001501
      f-1     :     0.001501
      f+2     :     0.010155
      f-2     :     0.010134
      f+3     :     0.000000
      f-3     :     0.000000


                      *****************************
                      * MAYER POPULATION ANALYSIS *
                      *****************************

  NA   - Mulliken gross atomic population
  ZA   - Total nuclear charge
  QA   - Mulliken gross atomic charge
  VA   - Mayer's total valence
  BVA  - Mayer's bonded valence
  FA   - Mayer's free valence

  ATOM       NA         ZA         QA         VA         BVA        FA
  0 V     22.5212    23.0000     0.4788     5.3476     2.3235     3.0241
  1 O      8.4788     8.0000    -0.4788     2.3802     2.3235     0.0567

  Mayer bond orders larger than 0.100000
B(  0-V ,  1-O ) :   2.3235 

-------
TIMINGS
-------

Total SCF time: 0 days 0 hours 0 min 4 sec 

Total time                  ....       4.850 sec
Sum of individual times     ....       4.691 sec  ( 96.7%)

Fock matrix formation       ....       4.224 sec  ( 87.1%)
  Split-RI-J                ....       3.085 sec  ( 73.0% of F)
  XC integration            ....       0.948 sec  ( 22.4% of F)
    Basis function eval.    ....       0.115 sec  ( 12.1% of XC)
    Density eval.           ....       0.138 sec  ( 14.6% of XC)
    XC-Functional eval.     ....       0.023 sec  (  2.5% of XC)
    XC-Potential eval.      ....       0.389 sec  ( 41.0% of XC)
Diagonalization             ....       0.116 sec  (  2.4%)
Density matrix formation    ....       0.015 sec  (  0.3%)
Population analysis         ....       0.006 sec  (  0.1%)
Initial guess               ....       0.103 sec  (  2.1%)
Orbital Transformation      ....       0.000 sec  (  0.0%)
Orbital Orthonormalization  ....       0.000 sec  (  0.0%)
DIIS solution               ....       0.042 sec  (  0.9%)
Grid generation             ....       0.186 sec  (  3.8%)


-------------------------------------------------------------------------------
                          DFT DISPERSION CORRECTION                            
                                                                               
                              DFTD3 V3.1  Rev 1                                
                          USING Becke-Johnson damping                          
-------------------------------------------------------------------------------
The SCAN functional is recognized
Active option DFTDOPT                   ...         4   

molecular C6(AA) [au] = 648.820019 


            DFT-D V3
 parameters
 s6 scaling factor         :     1.0000 
 a1 scaling factor         :     0.5380 
 s8 scaling factor         :     0.0000 
 a2 scaling factor         :     5.4200 
 ad hoc parameters k1-k3   :    16.0000     1.3333    -4.0000 

 Edisp/kcal,au: -0.072720215078  -0.000115887027 
 E6   /kcal   :  -0.072720215 
 E8   /kcal   :  -0.000000000 
 % E8         :   0.000000000 

-------------------------   ----------------
Dispersion correction           -0.000115887
-------------------------   ----------------


-------------------------   --------------------
FINAL SINGLE POINT ENERGY     -1019.297089808431
-------------------------   --------------------


                            ***************************************
                            *     ORCA property calculations      *
                            ***************************************

                                    ---------------------
                                    Active property flags
                                    ---------------------
   (+) Dipole Moment


------------------------------------------------------------------------------
                       ORCA ELECTRIC PROPERTIES CALCULATION
------------------------------------------------------------------------------

Dipole Moment Calculation                       ... on
Quadrupole Moment Calculation                   ... off
Polarizability Calculation                      ... off
GBWName                                         ... 17_VO.gbw
Electron density file                           ... 17_VO.scfp
The origin for moment calculation is the CENTER OF MASS  = ( 0.000000,  0.000000  1.104702)

-------------
DIPOLE MOMENT
-------------
                                X             Y             Z
Electronic contribution:     -0.00000       0.00000      -3.16931
Nuclear contribution   :      0.00000       0.00000       1.77684
                        -----------------------------------------
Total Dipole Moment    :     -0.00000       0.00000      -1.39247
                        -----------------------------------------
Magnitude (a.u.)       :      1.39247
Magnitude (Debye)      :      3.53939



--------------------
Rotational spectrum 
--------------------
 
Rotational constants in cm-1:     0.000000     0.546523     0.546523 
Rotational constants in MHz :     0.000000 16384.348098 16384.348098 

 Dipole components along the rotational axes: 
x,y,z [a.u.] :    -1.392474     0.000000    -0.000000 
x,y,z [Debye]:    -3.539388     0.000000    -0.000000 

 

Timings for individual modules:

Sum of individual times         ...        7.907 sec (=   0.132 min)
GTO integral calculation        ...        2.730 sec (=   0.046 min)  34.5 %
SCF iterations                  ...        5.176 sec (=   0.086 min)  65.5 %
                             ****ORCA TERMINATED NORMALLY****
TOTAL RUN TIME: 0 days 0 hours 0 minutes 8 seconds 520 msec
