
                                 *****************
                                 * O   R   C   A *
                                 *****************

           --- An Ab Initio, DFT and Semiempirical electronic structure package ---

                  #######################################################
                  #                        -***-                        #
                  #          Department of theory and spectroscopy      #
                  #               Directorship: Frank Neese             #
                  #        Max Planck Institute fuer Kohlenforschung    #
                  #                Kaiser Wilhelm Platz 1               #
                  #                 D-45470 Muelheim/Ruhr               #
                  #                      Germany                        #
                  #                                                     #
                  #                  All rights reserved                #
                  #                        -***-                        #
                  #######################################################


                         Program Version 4.2.0 -  RELEASE  -


 With contributions from (in alphabetic order):
   Daniel Aravena         : Magnetic Suceptibility
   Michael Atanasov       : Ab Initio Ligand Field Theory (pilot matlab implementation)
   Alexander A. Auer      : GIAO ZORA, VPT2
   Ute Becker             : Parallelization
   Giovanni Bistoni       : ED, misc. LED, open-shell LED, HFLED
   Martin Brehm           : Molecular dynamics
   Dmytro Bykov           : SCF Hessian
   Vijay G. Chilkuri      : MRCI spin determinant printing, contributions to CSF-ICE
   Dipayan Datta          : RHF DLPNO-CCSD density
   Achintya Kumar Dutta   : EOM-CC, STEOM-CC
   Dmitry Ganyushin       : Spin-Orbit,Spin-Spin,Magnetic field MRCI
   Miquel Garcia          : C-PCM Hessian, Gaussian charge scheme
   Yang Guo               : DLPNO-NEVPT2, CIM, IAO-localization
   Andreas Hansen         : Spin unrestricted coupled pair/coupled cluster methods
   Benjamin Helmich-Paris : CASSCF linear response (MC-RPA)
   Lee Huntington         : MR-EOM, pCC
   Robert Izsak           : Overlap fitted RIJCOSX, COSX-SCS-MP3, EOM
   Christian Kollmar      : KDIIS, OOCD, Brueckner-CCSD(T), CCSD density
   Simone Kossmann        : Meta GGA functionals, TD-DFT gradient, OOMP2, MP2 Hessian
   Martin Krupicka        : AUTO-CI
   Lucas Lang             : DCDCAS
   Dagmar Lenk            : GEPOL surface, SMD
   Dimitrios Liakos       : Extrapolation schemes; Compound Job, initial MDCI parallelization
   Dimitrios Manganas     : Further ROCIS development; embedding schemes
   Dimitrios Pantazis     : SARC Basis sets
   Taras Petrenko         : DFT Hessian,TD-DFT gradient, ASA, ECA, R-Raman, ABS, FL, XAS/XES, NRVS
   Peter Pinski           : DLPNO-MP2, DLPNO-MP2 Gradient
   Christoph Reimann      : Effective Core Potentials
   Marius Retegan         : Local ZFS, SOC
   Christoph Riplinger    : Optimizer, TS searches, QM/MM, DLPNO-CCSD(T), (RO)-DLPNO pert. Triples
   Tobias Risthaus        : Range-separated hybrids, TD-DFT gradient, RPA, STAB
   Michael Roemelt        : Original ROCIS implementation
   Masaaki Saitow         : Open-shell DLPNO-CCSD energy and density
   Barbara Sandhoefer     : DKH picture change effects
   Avijit Sen             : IP-ROCIS
   Kantharuban Sivalingam : CASSCF convergence, NEVPT2, FIC-MRCI
   Bernardo de Souza      : ESD, SOC TD-DFT
   Georgi Stoychev        : AutoAux, RI-MP2 NMR
   Willem Van den Heuvel  : Paramagnetic NMR
   Boris Wezisla          : Elementary symmetry handling
   Frank Wennmohs         : Technical directorship


 We gratefully acknowledge several colleagues who have allowed us to
 interface, adapt or use parts of their codes:
   Stefan Grimme, W. Hujo, H. Kruse,             : VdW corrections, initial TS optimization,
                  C. Bannwarth                     DFT functionals, gCP, sTDA/sTD-DF
   Ed Valeev, F. Pavosevic, A. Kumar             : LibInt (2-el integral package), F12 methods
   Garnet Chan, S. Sharma, J. Yang, R. Olivares  : DMRG
   Ulf Ekstrom                                   : XCFun DFT Library
   Mihaly Kallay                                 : mrcc  (arbitrary order and MRCC methods)
   Andreas Klamt, Michael Diedenhofen            : otool_cosmo (COSMO solvation model)
   Jiri Pittner, Ondrej Demel                    : Mk-CCSD
   Frank Weinhold                                : gennbo (NPA and NBO analysis)
   Christopher J. Cramer and Donald G. Truhlar   : smd solvation model
   Lars Goerigk                                  : TD-DFT with DH, B97 family of functionals
   V. Asgeirsson, H. Jonsson                     : NEB implementation
   FAccTs GmbH                                   : IRC, NEB, NEB-TS, Multilevel, MM, QM/MM, CI optimization
   S Lehtola, MJT Oliveira, MAL Marques          : LibXC Library


 Your calculation uses the libint2 library for the computation of 2-el integrals
 For citations please refer to: http://libint.valeyev.net

 Your ORCA version has been built with support for libXC version: 4.2.3
 For citations please refer to: https://tddft.org/programs/libxc/

 This ORCA versions uses:
   CBLAS   interface :  Fast vector & matrix operations
   LAPACKE interface :  Fast linear algebra routines
   SCALAPACK package :  Parallel linear algebra routines


Your calculation utilizes the atom-pairwise dispersion correction
with the Becke-Johnson damping scheme (D3BJ)
Cite in your paper:
S.Grimme, S.Ehrlich, L.Goerigk, J Comput Chem, (2011), 32, 1456–1465 
S.Grimme, J.Antony, S.Ehrlich and H.Krieg, J.Chem.Phys., 132, (2010), 154104 
   

----- Orbital basis set information -----
Your calculation utilizes the basis: aug-cc-pVTZ 
    H, B-Ne : Obtained from the ccRepo (grant-hill.group.shef.ac.uk/ccrepo) Feb. 2017
              R. A. Kendall, T. H. Dunning, Jr., R. J. Harrison, J. Chem. Phys. 96, 6796 (1992)
         He : Obtained from the ccRepo (grant-hill.group.shef.ac.uk/ccrepo) Feb. 2017
              D. E. Woon, T. H. Dunning, Jr., J. Chem. Phys. 100, 2975 (1994)
  Li-Be, Na : Obtained from the ccRepo (grant-hill.group.shef.ac.uk/ccrepo) Feb. 2017
              B. P. Prascher, D. E. Woon, K. A. Peterson, T. H. Dunning, Jr., A. K. Wilson, Theor. Chem. Acc. 128, 69 (2011)
         Mg : Obtained from the Peterson Research Group Website (tyr0.chem.wsu.edu/~kipeters) Feb. 2017
              B. P. Prascher, D. E. Woon, K. A. Peterson, T. H. Dunning, Jr., A. K. Wilson, Theor. Chem. Acc. 128, 69 (2011)
      Al-Ar : Obtained from the ccRepo (grant-hill.group.shef.ac.uk/ccrepo) Feb. 2017
              D. E. Woon, T. H. Dunning, Jr., J. Chem. Phys. 98, 1358 (1993)
      Sc-Zn : Obtained from the ccRepo (grant-hill.group.shef.ac.uk/ccrepo) Feb. 2017
              N. B. Balabanov, K. A. Peterson, J. Chem. Phys. 123, 064107 (2005)
              N. B. Balabanov, K. A. Peterson, J. Chem. Phys. 125, 074110 (2006)
      Ga-Kr : Obtained from the ccRepo (grant-hill.group.shef.ac.uk/ccrepo) Feb. 2017
              A. K. Wilson, D. E. Woon, K. A. Peterson, T. H. Dunning, Jr., J. Chem. Phys. 110, 7667 (1999)
     Ag, Au : Obtained from the Peterson Research Group Website (tyr0.chem.wsu.edu/~kipeters) Feb. 2017
              K. A. Peterson, C. Puzzarini, Theor. Chem. Acc. 114, 283 (2005)

----- AuxJ basis set information -----
Your calculation utilizes the auxiliary basis: def2/J
   F. Weigend, Phys. Chem. Chem. Phys. 8, 1057 (2006).

================================================================================
                                        WARNINGS
                       Please study these warnings very carefully!
================================================================================


WARNING: your system is open-shell and RHF/RKS was chosen
  ===> : WILL SWITCH to UHF/UKS


WARNING: The SCAN functional is very grid-sensitive!
         Use at least GRID5 and a higher intacc

INFO   : the flag for use of LIBINT has been found!

================================================================================
                                       INPUT FILE
================================================================================
NAME = 19_CrH.in
|  1> #
|  2> # 19_CrH scanfunc/aug-cc-pvtz
|  3> #
|  4> ! scanfunc d3bj aug-cc-pvtz def2/j grid4 nofinalgrid
|  5> 
|  6> *xyz 0 6
|  7>   Cr  0.00000000000000      0.00000000000000      0.17036458455703
|  8>   H   0.00000000000000      0.00000000000000      1.82963541544297
|  9> *
| 10> 
| 11> %pal
| 12> nprocs 24
| 13> end
| 14> 
| 15> 
| 16>                          ****END OF INPUT****
================================================================================

                       ****************************
                       * Single Point Calculation *
                       ****************************

---------------------------------
CARTESIAN COORDINATES (ANGSTROEM)
---------------------------------
  Cr     0.000000    0.000000    0.170365
  H      0.000000    0.000000    1.829635

----------------------------
CARTESIAN COORDINATES (A.U.)
----------------------------
  NO LB      ZA    FRAG     MASS         X           Y           Z
   0 Cr   24.0000    0    52.000    0.000000    0.000000    0.321942
   1 H     1.0000    0     1.008    0.000000    0.000000    3.457510

--------------------------------
INTERNAL COORDINATES (ANGSTROEM)
--------------------------------
 Cr     0   0   0     0.000000000000     0.00000000     0.00000000
 H      1   0   0     1.659270830886     0.00000000     0.00000000

---------------------------
INTERNAL COORDINATES (A.U.)
---------------------------
 Cr     0   0   0     0.000000000000     0.00000000     0.00000000
 H      1   0   0     3.135567452378     0.00000000     0.00000000

---------------------
BASIS SET INFORMATION
---------------------
There are 2 groups of distinct atoms

 Group   1 Type Cr  : 116s77p23d3f2g contracted to 8s7p5d3f2g pattern {19191919191911/151515151511/77711/111/11}
 Group   2 Type H   : 6s3p2d contracted to 4s3p2d pattern {3111/111/11}

Atom   0Cr   basis set group =>   1
Atom   1H    basis set group =>   2
---------------------------------
AUXILIARY/J BASIS SET INFORMATION
---------------------------------
There are 2 groups of distinct atoms

 Group   1 Type Cr  : 19s5p5d3f3g contracted to 8s5p5d2f3g pattern {121111111/11111/11111/21/111}
 Group   2 Type H   : 5s2p1d contracted to 3s1p1d pattern {311/2/1}

Atom   0Cr   basis set group =>   1
Atom   1H    basis set group =>   2


           ************************************************************
           *        Program running with 24 parallel MPI-processes    *
           *              working on a common directory               *
           ************************************************************
------------------------------------------------------------------------------
                           ORCA GTO INTEGRAL CALCULATION
                           -- RI-GTO INTEGRALS CHOSEN --
------------------------------------------------------------------------------

                         BASIS SET STATISTICS AND STARTUP INFO

Gaussian basis set:
 # of primitive gaussian shells          ...  232
 # of primitive gaussian functions       ...  526
 # of contracted shells                  ...   34
 # of contracted basis functions         ...  116
 Highest angular momentum                ...    4
 Maximum contraction depth               ...   19
Auxiliary gaussian basis set:
 # of primitive gaussian shells          ...   43
 # of primitive gaussian functions       ...  123
 # of contracted shells                  ...   28
 # of contracted aux-basis functions     ...  100
 Highest angular momentum                ...    4
 Maximum contraction depth               ...   12
Ratio of auxiliary to basis functions    ...  0.86
Integral package used                  ... LIBINT
 One Electron integrals                  ... done
 Ordering auxiliary basis shells         ... done
 Integral threshhold             Thresh  ...  1.000e-10
 Primitive cut-off               TCut    ...  1.000e-11
 Pre-screening matrix                    ... done
 Shell pair data                         ... 
 Ordering of the shell pairs             ... done (   0.000 sec) 595 of 595 pairs
 Determination of significant pairs      ... done (   0.000 sec)
 Creation of shell pair data             ... done (   0.001 sec)
 Storage of shell pair data              ... done (   0.006 sec)
 Shell pair data done in (   0.007 sec)
 Computing two index integrals           ... done
 Cholesky decomposition of the V-matrix  ... done


Timings:
 Total evaluation time                   ...   2.144 sec (  0.036 min)
 One electron matrix time                ...   0.042 sec (  0.001 min) =  2.0%
 Schwartz matrix evaluation time         ...   2.068 sec (  0.034 min) = 96.5%
 Two index repulsion integral time       ...   0.001 sec (  0.000 min) =  0.0%
 Cholesky decomposition of V             ...   0.001 sec (  0.000 min) =  0.0%
 Three index repulsion integral time     ...   0.000 sec (  0.000 min) =  0.0%



           ************************************************************
           *        Program running with 24 parallel MPI-processes    *
           *              working on a common directory               *
           ************************************************************
-------------------------------------------------------------------------------
                                 ORCA SCF
-------------------------------------------------------------------------------

------------
SCF SETTINGS
------------
Hamiltonian:
 Density Functional     Method          .... DFT(GTOs)
 Exchange Functional    Exchange        .... SCAN
 Correlation Functional Correlation     .... SCAN
 Gradients option       PostSCFGGA      .... off
   Density functional embedding theory  .... OFF
   NL short-range parameter             ....  6.400000
 RI-approximation to the Coulomb term is turned on
   Number of auxiliary basis functions  .... 100


General Settings:
 Integral files         IntName         .... 19_CrH
 Hartree-Fock type      HFTyp           .... UHF
 Total Charge           Charge          ....    0
 Multiplicity           Mult            ....    6
 Number of Electrons    NEL             ....   25
 Basis Dimension        Dim             ....  116
 Nuclear Repulsion      ENuc            ....      7.6541169547 Eh

Convergence Acceleration:
 DIIS                   CNVDIIS         .... on
   Start iteration      DIISMaxIt       ....    12
   Startup error        DIISStart       ....  0.200000
   # of expansion vecs  DIISMaxEq       ....     5
   Bias factor          DIISBfac        ....   1.050
   Max. coefficient     DIISMaxC        ....  10.000
 Newton-Raphson         CNVNR           .... off
 SOSCF                  CNVSOSCF        .... off
 Level Shifting         CNVShift        .... on
   Level shift para.    LevelShift      ....    0.2500
   Turn off err/grad.   ShiftErr        ....    0.0010
 Zerner damping         CNVZerner       .... off
 Static damping         CNVDamp         .... on
   Fraction old density DampFac         ....    0.7000
   Max. Damping (<1)    DampMax         ....    0.9800
   Min. Damping (>=0)   DampMin         ....    0.0000
   Turn off err/grad.   DampErr         ....    0.1000
 Fernandez-Rico         CNVRico         .... off

SCF Procedure:
 Maximum # iterations   MaxIter         ....   125
 SCF integral mode      SCFMode         .... Direct
   Integral package                     .... LIBINT
 Reset frequency        DirectResetFreq ....    20
 Integral Threshold     Thresh          ....  1.000e-10 Eh
 Primitive CutOff       TCut            ....  1.000e-11 Eh

Convergence Tolerance:
 Convergence Check Mode ConvCheckMode   .... Total+1el-Energy
 Convergence forced     ConvForced      .... 0
 Energy Change          TolE            ....  1.000e-06 Eh
 1-El. energy change                    ....  1.000e-03 Eh
 DIIS Error             TolErr          ....  1.000e-06


Diagonalization of the overlap matrix:
Smallest eigenvalue                        ... 8.982e-05
Time for diagonalization                   ...    0.004 sec
Threshold for overlap eigenvalues          ... 1.000e-08
Number of eigenvalues below threshold      ... 0
Time for construction of square roots      ...    0.002 sec
Total time needed                          ...    0.006 sec

-------------------
DFT GRID GENERATION
-------------------

General Integration Accuracy     IntAcc      ...  4.670
Radial Grid Type                 RadialGrid  ... Gauss-Chebyshev
Angular Grid (max. acc.)         AngularGrid ... Lebedev-302
Angular grid pruning method      GridPruning ... 3 (G Style)
Weight generation scheme         WeightScheme... Becke
Basis function cutoff            BFCut       ...    1.0000e-10
Integration weight cutoff        WCut        ...    1.0000e-14
Grids for H and He will be reduced by one unit

# of grid points (after initial pruning)     ...  13058 (   0.0 sec)
# of grid points (after weights+screening)   ...  13018 (   0.0 sec)
nearest neighbour list constructed           ...    0.0 sec
Grid point re-assignment to atoms done       ...    0.0 sec
Grid point division into batches done        ...    0.1 sec
Reduced shell lists constructed in    0.1 sec

Total number of grid points                  ...    13018
Total number of batches                      ...      205
Average number of points per batch           ...       63
Average number of grid points per atom       ...     6509
Average number of shells per batch           ...    14.90 (43.82%)
Average number of basis functions per batch  ...    36.70 (31.64%)
Average number of large shells per batch     ...     8.60 (57.72%)
Average number of large basis fcns per batch ...    22.20 (60.49%)
Maximum spatial batch extension              ...  31.41, 28.57, 18.88 au
Average spatial batch extension              ...   1.01,  0.93,  0.72 au

Time for grid setup =    0.126 sec

------------------------------
INITIAL GUESS: MODEL POTENTIAL
------------------------------
Loading Hartree-Fock densities                     ... done
Calculating cut-offs                               ... done
Setting up the integral package                    ... done
Initializing the effective Hamiltonian             ... done
Starting the Coulomb interaction                   ... done (   0.0 sec)
Reading the grid                                   ... done
Mapping shells                                     ... done
Starting the XC term evaluation                    ... done (   0.0 sec)
  promolecular density results
     # of electrons  =     24.999514660
     EX              =    -53.652655395
     EC              =     -0.433922393
     EX+EC           =    -54.086577788
Transforming the Hamiltonian                       ... done (   0.0 sec)
Diagonalizing the Hamiltonian                      ... done (   0.0 sec)
Back transforming the eigenvectors                 ... done (   0.0 sec)
Now organizing SCF variables                       ... done
                      ------------------
                      INITIAL GUESS DONE (   0.2 sec)
                      ------------------
--------------
SCF ITERATIONS
--------------
ITER       Energy         Delta-E        Max-DP      RMS-DP      [F,P]     Damp
               ***  Starting incremental Fock matrix formation  ***
  0  -1044.7636082740   0.000000000000 0.43186731  0.01012161  0.5150718 0.7000
  1  -1044.9671816296  -0.203573355598 0.22852837  0.00546022  0.1144209 0.7000
                               ***Turning on DIIS***
  2  -1044.9947132295  -0.027531599883 0.39887858  0.00817377  0.0756813 0.0000
  3  -1045.1523599777  -0.157646748203 0.10049257  0.00244658  0.0443218 0.0000
  4  -1045.1606849054  -0.008324927715 0.03095415  0.00051809  0.0358704 0.0000
  5  -1045.1635049476  -0.002820042179 0.02263168  0.00057268  0.0160489 0.0000
  6  -1045.1644408895  -0.000935941925 0.00923777  0.00017692  0.0062034 0.0000
  7  -1045.1647903498  -0.000349460317 0.00543100  0.00008762  0.0031464 0.0000
  8  -1045.1649238524  -0.000133502639 0.00383655  0.00007502  0.0020331 0.0000
  9  -1045.1649849221  -0.000061069690 0.00577909  0.00008265  0.0008841 0.0000
 10  -1045.1650184742  -0.000033552061 0.00043953  0.00001066  0.0006341 0.0000
 11  -1045.1650197824  -0.000001308176 0.00081220  0.00001317  0.0001303 0.0000
 12  -1045.1650197659   0.000000016436 0.00018315  0.00000493  0.0002347 0.0000
                 **** Energy Check signals convergence ****

               *****************************************************
               *                     SUCCESS                       *
               *           SCF CONVERGED AFTER  13 CYCLES          *
               *****************************************************


----------------
TOTAL SCF ENERGY
----------------

Total Energy       :        -1045.16501987 Eh          -28440.38607 eV

Components:
Nuclear Repulsion  :            7.65411695 Eh             208.27911 eV
Electronic Energy  :        -1052.81913682 Eh          -28648.66518 eV
One Electron Energy:        -1453.90097840 Eh          -39562.65695 eV
Two Electron Energy:          401.08184158 Eh           10913.99177 eV

Virial components:
Potential Energy   :        -2088.90203945 Eh          -56841.91428 eV
Kinetic Energy     :         1043.73701958 Eh           28401.52821 eV
Virial Ratio       :            2.00136816


DFT components:
N(Alpha)           :       15.000000807416 electrons
N(Beta)            :        9.999999155072 electrons
N(Total)           :       24.999999962488 electrons
E(X)               :      -48.196056472602 Eh       
E(C)               :       -1.019115253840 Eh       
E(XC)              :      -49.215171726442 Eh       
DFET-embed. en.    :        0.000000000000 Eh       

---------------
SCF CONVERGENCE
---------------

  Last Energy change         ...   -1.0049e-07  Tolerance :   1.0000e-06
  Last MAX-Density change    ...    2.1458e-04  Tolerance :   1.0000e-05
  Last RMS-Density change    ...    3.0621e-06  Tolerance :   1.0000e-06
  Last DIIS Error            ...    4.6256e-05  Tolerance :   1.0000e-06

             **** THE GBW FILE WAS UPDATED (19_CrH.gbw) ****
             **** DENSITY FILE WAS UPDATED (19_CrH.scfp) ****
             **** ENERGY FILE WAS UPDATED (19_CrH.en.tmp) ****
----------------------
UHF SPIN CONTAMINATION
----------------------

Warning: in a DFT calculation there is little theoretical justification to 
         calculate <S**2> as in Hartree-Fock theory. We will do it anyways
         but you should keep in mind that the values have only limited relevance

Expectation value of <S**2>     :     8.810825
Ideal value S*(S+1) for S=2.5   :     8.750000
Deviation                       :     0.060825

             **** THE GBW FILE WAS UPDATED (19_CrH.gbw) ****
             **** DENSITY FILE WAS UPDATED (19_CrH.scfp) ****
----------------
ORBITAL ENERGIES
----------------
                 SPIN UP ORBITALS
  NO   OCC          E(Eh)            E(eV) 
   0   1.0000    -215.039432     -5851.5204 
   1   1.0000     -24.580167      -668.8604 
   2   1.0000     -20.793546      -565.8211 
   3   1.0000     -20.792226      -565.7852 
   4   1.0000     -20.792226      -565.7852 
   5   1.0000      -2.854109       -77.6643 
   6   1.0000      -1.793361       -48.7998 
   7   1.0000      -1.793361       -48.7998 
   8   1.0000      -1.793108       -48.7930 
   9   1.0000      -0.253565        -6.8998 
  10   1.0000      -0.189655        -5.1608 
  11   1.0000      -0.189655        -5.1608 
  12   1.0000      -0.173879        -4.7315 
  13   1.0000      -0.173864        -4.7311 
  14   1.0000      -0.171612        -4.6698 
  15   0.0000      -0.093661        -2.5487 
  16   0.0000      -0.044410        -1.2085 
  17   0.0000      -0.044410        -1.2085 
  18   0.0000       0.012881         0.3505 
  19   0.0000       0.023701         0.6449 
  20   0.0000       0.031615         0.8603 
  21   0.0000       0.031615         0.8603 
  22   0.0000       0.056065         1.5256 
  23   0.0000       0.060721         1.6523 
  24   0.0000       0.060822         1.6551 
  25   0.0000       0.061369         1.6699 
  26   0.0000       0.061369         1.6699 
  27   0.0000       0.083401         2.2694 
  28   0.0000       0.118726         3.2307 
  29   0.0000       0.161321         4.3898 
  30   0.0000       0.161321         4.3898 
  31   0.0000       0.163854         4.4587 
  32   0.0000       0.196020         5.3340 
  33   0.0000       0.200101         5.4450 
  34   0.0000       0.200101         5.4450 
  35   0.0000       0.202795         5.5183 
  36   0.0000       0.202837         5.5195 
  37   0.0000       0.282040         7.6747 
  38   0.0000       0.296603         8.0710 
  39   0.0000       0.296603         8.0710 
  40   0.0000       0.415038        11.2937 
  41   0.0000       0.525334        14.2951 
  42   0.0000       0.525334        14.2951 
  43   0.0000       0.526737        14.3332 
  44   0.0000       0.526975        14.3397 
  45   0.0000       0.591897        16.1063 
  46   0.0000       0.591897        16.1063 
  47   0.0000       0.608795        16.5662 
  48   0.0000       0.648221        17.6390 
  49   0.0000       0.648221        17.6390 
  50   0.0000       0.649172        17.6649 
  51   0.0000       0.719587        19.5810 
  52   0.0000       0.775185        21.0939 
  53   0.0000       0.775185        21.0939 
  54   0.0000       0.790525        21.5113 
  55   0.0000       0.790602        21.5134 
  56   0.0000       0.947500        25.7828 
  57   0.0000       0.948707        25.8156 
  58   0.0000       0.958509        26.0824 
  59   0.0000       1.009749        27.4767 
  60   0.0000       1.009749        27.4767 
  61   0.0000       1.249678        34.0055 
  62   0.0000       1.391728        37.8708 
  63   0.0000       1.391728        37.8708 
  64   0.0000       1.657882        45.1133 
  65   0.0000       1.753338        47.7108 
  66   0.0000       1.767034        48.0835 
  67   0.0000       1.767034        48.0835 
  68   0.0000       1.771795        48.2130 
  69   0.0000       1.771880        48.2153 
  70   0.0000       1.890745        51.4498 
  71   0.0000       1.890745        51.4498 
  72   0.0000       2.147441        58.4348 
  73   0.0000       2.192522        59.6615 
  74   0.0000       2.192599        59.6636 
  75   0.0000       2.194548        59.7167 
  76   0.0000       2.194548        59.7167 
  77   0.0000       2.304373        62.7052 
  78   0.0000       2.304457        62.7075 
  79   0.0000       2.312744        62.9330 
  80   0.0000       2.312744        62.9330 
  81   0.0000       2.384483        64.8851 
  82   0.0000       2.560520        69.6753 
  83   0.0000       2.560521        69.6753 
  84   0.0000       2.726765        74.1991 
  85   0.0000       3.046204        82.8914 
  86   0.0000       3.313940        90.1769 
  87   0.0000       3.314000        90.1785 
  88   0.0000       3.427142        93.2573 
  89   0.0000       3.427142        93.2573 
  90   0.0000       3.778051       102.8060 
  91   0.0000       3.875593       105.4602 
  92   0.0000       3.876537       105.4859 
  93   0.0000       4.184723       113.8721 
  94   0.0000       4.184723       113.8721 
  95   0.0000       4.295070       116.8748 
  96   0.0000       4.295070       116.8748 
  97   0.0000       4.622968       125.7973 
  98   0.0000       4.979358       135.4952 
  99   0.0000       6.168981       167.8665 
 100   0.0000       6.168992       167.8668 
 101   0.0000       6.170471       167.9071 
 102   0.0000       6.170471       167.9071 
 103   0.0000       6.287234       171.0843 
 104   0.0000       6.287234       171.0843 
 105   0.0000       6.551983       178.2885 
 106   0.0000       6.714150       182.7013 
 107   0.0000       6.714150       182.7013 
 108   0.0000       6.723944       182.9678 
 109   0.0000       6.724008       182.9696 
 110   0.0000       6.775416       184.3684 
 111   0.0000       6.775420       184.3686 
 112   0.0000       6.937984       188.7922 
 113   0.0000       6.937984       188.7922 
 114   0.0000       7.044626       191.6940 
 115   0.0000       7.979564       217.1350 

                 SPIN DOWN ORBITALS
  NO   OCC          E(Eh)            E(eV) 
   0   1.0000    -215.041684     -5851.5817 
   1   1.0000     -24.436354      -664.9470 
   2   1.0000     -20.704696      -563.4034 
   3   1.0000     -20.699057      -563.2500 
   4   1.0000     -20.699057      -563.2500 
   5   1.0000      -2.677468       -72.8576 
   6   1.0000      -1.623928       -44.1893 
   7   1.0000      -1.607539       -43.7434 
   8   1.0000      -1.607539       -43.7434 
   9   1.0000      -0.237308        -6.4575 
  10   0.0000      -0.033917        -0.9229 
  11   0.0000      -0.007161        -0.1949 
  12   0.0000       0.001541         0.0419 
  13   0.0000       0.001541         0.0419 
  14   0.0000       0.017396         0.4734 
  15   0.0000       0.017480         0.4757 
  16   0.0000       0.031594         0.8597 
  17   0.0000       0.036330         0.9886 
  18   0.0000       0.036341         0.9889 
  19   0.0000       0.062511         1.7010 
  20   0.0000       0.065789         1.7902 
  21   0.0000       0.065795         1.7904 
  22   0.0000       0.126038         3.4297 
  23   0.0000       0.150063         4.0834 
  24   0.0000       0.157238         4.2787 
  25   0.0000       0.157266         4.2794 
  26   0.0000       0.164529         4.4771 
  27   0.0000       0.169282         4.6064 
  28   0.0000       0.195673         5.3245 
  29   0.0000       0.258072         7.0225 
  30   0.0000       0.280658         7.6371 
  31   0.0000       0.280689         7.6379 
  32   0.0000       0.306921         8.3518 
  33   0.0000       0.307015         8.3543 
  34   0.0000       0.317694         8.6449 
  35   0.0000       0.317700         8.6450 
  36   0.0000       0.327557         8.9133 
  37   0.0000       0.359044         9.7701 
  38   0.0000       0.359046         9.7701 
  39   0.0000       0.383519        10.4361 
  40   0.0000       0.488848        13.3022 
  41   0.0000       0.587737        15.9931 
  42   0.0000       0.588518        16.0144 
  43   0.0000       0.632537        17.2122 
  44   0.0000       0.632538        17.2122 
  45   0.0000       0.720307        19.6006 
  46   0.0000       0.727861        19.8061 
  47   0.0000       0.727864        19.8062 
  48   0.0000       0.757882        20.6230 
  49   0.0000       0.757884        20.6231 
  50   0.0000       0.759161        20.6578 
  51   0.0000       0.779187        21.2028 
  52   0.0000       0.886670        24.1275 
  53   0.0000       0.886676        24.1277 
  54   0.0000       0.911728        24.8094 
  55   0.0000       0.913989        24.8709 
  56   0.0000       0.994538        27.0627 
  57   0.0000       0.997206        27.1354 
  58   0.0000       0.997208        27.1354 
  59   0.0000       0.998434        27.1688 
  60   0.0000       1.006761        27.3953 
  61   0.0000       1.285621        34.9835 
  62   0.0000       1.442581        39.2546 
  63   0.0000       1.442582        39.2547 
  64   0.0000       1.774307        48.2813 
  65   0.0000       1.880894        51.1817 
  66   0.0000       1.962787        53.4101 
  67   0.0000       1.964461        53.4557 
  68   0.0000       1.969350        53.5887 
  69   0.0000       1.969350        53.5888 
  70   0.0000       2.040878        55.5351 
  71   0.0000       2.040878        55.5351 
  72   0.0000       2.239651        60.9440 
  73   0.0000       2.330567        63.4179 
  74   0.0000       2.330827        63.4250 
  75   0.0000       2.332399        63.4678 
  76   0.0000       2.332399        63.4678 
  77   0.0000       2.426481        66.0279 
  78   0.0000       2.426618        66.0316 
  79   0.0000       2.452363        66.7322 
  80   0.0000       2.452363        66.7322 
  81   0.0000       2.478599        67.4461 
  82   0.0000       2.645537        71.9887 
  83   0.0000       2.645537        71.9887 
  84   0.0000       2.799131        76.1682 
  85   0.0000       3.027462        82.3814 
  86   0.0000       3.478120        94.6445 
  87   0.0000       3.479258        94.6754 
  88   0.0000       3.584793        97.5472 
  89   0.0000       3.584794        97.5472 
  90   0.0000       3.776984       102.7769 
  91   0.0000       3.777593       102.7935 
  92   0.0000       3.910908       106.4212 
  93   0.0000       4.113812       111.9425 
  94   0.0000       4.113812       111.9425 
  95   0.0000       4.248452       115.6063 
  96   0.0000       4.248452       115.6063 
  97   0.0000       4.578711       124.5931 
  98   0.0000       4.941125       134.4549 
  99   0.0000       6.401104       174.1829 
 100   0.0000       6.401104       174.1829 
 101   0.0000       6.408267       174.3778 
 102   0.0000       6.408742       174.3907 
 103   0.0000       6.508184       177.0967 
 104   0.0000       6.508184       177.0967 
 105   0.0000       6.737680       183.3416 
 106   0.0000       6.941606       188.8907 
 107   0.0000       6.941943       188.8999 
 108   0.0000       6.948061       189.0663 
 109   0.0000       6.948061       189.0663 
 110   0.0000       6.982722       190.0095 
 111   0.0000       6.983051       190.0185 
 112   0.0000       7.140974       194.3158 
 113   0.0000       7.140974       194.3158 
 114   0.0000       7.229268       196.7184 
 115   0.0000       8.194408       222.9812 

                    ********************************
                    * MULLIKEN POPULATION ANALYSIS *
                    ********************************

--------------------------------------------
MULLIKEN ATOMIC CHARGES AND SPIN POPULATIONS
--------------------------------------------
   0 Cr:    0.263939    5.211725
   1 H :   -0.263939   -0.211725
Sum of atomic charges         :   -0.0000000
Sum of atomic spin populations:    5.0000000

-----------------------------------------------------
MULLIKEN REDUCED ORBITAL CHARGES AND SPIN POPULATIONS
-----------------------------------------------------
CHARGE
  0 Crs       :     6.807232  s :     6.807232
      pz      :     4.104711  p :    12.109898
      px      :     4.002594
      py      :     4.002594
      dz2     :     0.819900  d :     4.811625
      dxz     :     0.996136
      dyz     :     0.996136
      dx2y2   :     0.999732
      dxy     :     0.999721
      f0      :     0.006269  f :     0.006770
      f+1     :     0.000071
      f-1     :     0.000071
      f+2     :     0.000181
      f-2     :     0.000179
      f+3     :     0.000000
      f-3     :     0.000000
      g0      :     0.000537  g :     0.000535
      g+1     :    -0.000002
      g-1     :    -0.000002
      g+2     :     0.000001
      g-2     :     0.000001
      g+3     :     0.000000
      g-3     :     0.000000
      g+4     :     0.000000
      g-4     :     0.000000
  1 H s       :     1.260800  s :     1.260800
      pz      :     0.000301  p :     0.003698
      px      :     0.001699
      py      :     0.001699
      dz2     :     0.000250  d :    -0.000559
      dxz     :    -0.000497
      dyz     :    -0.000497
      dx2y2   :     0.000087
      dxy     :     0.000098

SPIN
  0 Crs       :     0.603676  s :     0.603676
      pz      :     0.015984  p :     0.021807
      px      :     0.002912
      py      :     0.002912
      dz2     :     0.595505  d :     4.587122
      dxz     :     0.996082
      dyz     :     0.996082
      dx2y2   :     0.999732
      dxy     :     0.999721
      f0      :    -0.000988  f :    -0.000494
      f+1     :     0.000067
      f-1     :     0.000067
      f+2     :     0.000181
      f-2     :     0.000179
      f+3     :     0.000000
      f-3     :     0.000000
      g0      :    -0.000384  g :    -0.000386
      g+1     :    -0.000002
      g-1     :    -0.000002
      g+2     :     0.000001
      g-2     :     0.000001
      g+3     :    -0.000000
      g-3     :    -0.000000
      g+4     :    -0.000000
      g-4     :     0.000000
  1 H s       :    -0.213198  s :    -0.213198
      pz      :    -0.001026  p :     0.001971
      px      :     0.001499
      py      :     0.001499
      dz2     :     0.000433  d :    -0.000498
      dxz     :    -0.000558
      dyz     :    -0.000558
      dx2y2   :     0.000087
      dxy     :     0.000098


                     *******************************
                     * LOEWDIN POPULATION ANALYSIS *
                     *******************************

-------------------------------------------
LOEWDIN ATOMIC CHARGES AND SPIN POPULATIONS
-------------------------------------------
   0 Cr:    0.601797    4.900438
   1 H :   -0.601797    0.099562

----------------------------------------------------
LOEWDIN REDUCED ORBITAL CHARGES AND SPIN POPULATIONS
----------------------------------------------------
CHARGE
  0 Crs       :     6.646890  s :     6.646890
      pz      :     4.103285  p :    12.018040
      px      :     3.957377
      py      :     3.957377
      dz2     :     0.833902  d :     4.699649
      dxz     :     0.940611
      dyz     :     0.940611
      dx2y2   :     0.992266
      dxy     :     0.992258
      f0      :     0.024814  f :     0.030246
      f+1     :     0.002119
      f-1     :     0.002119
      f+2     :     0.000599
      f-2     :     0.000596
      f+3     :     0.000000
      f-3     :     0.000000
      g0      :     0.002827  g :     0.003378
      g+1     :     0.000242
      g-1     :     0.000242
      g+2     :     0.000034
      g-2     :     0.000034
      g+3     :     0.000000
      g-3     :     0.000000
      g+4     :     0.000000
      g-4     :     0.000000
  1 H s       :     1.060340  s :     1.060340
      pz      :     0.200981  p :     0.287442
      px      :     0.043231
      py      :     0.043231
      dz2     :     0.126960  d :     0.254015
      dxz     :     0.056420
      dyz     :     0.056420
      dx2y2   :     0.007102
      dxy     :     0.007112

SPIN
  0 Crs       :     0.522757  s :     0.522757
      pz      :    -0.041629  p :    -0.023758
      px      :     0.008936
      py      :     0.008936
      dz2     :     0.543727  d :     4.404272
      dxz     :     0.938011
      dyz     :     0.938011
      dx2y2   :     0.992266
      dxy     :     0.992258
      f0      :    -0.006758  f :    -0.002211
      f+1     :     0.001676
      f-1     :     0.001676
      f+2     :     0.000599
      f-2     :     0.000596
      f+3     :     0.000000
      f-3     :     0.000000
      g0      :    -0.001096  g :    -0.000622
      g+1     :     0.000203
      g-1     :     0.000203
      g+2     :     0.000034
      g-2     :     0.000034
      g+3     :    -0.000000
      g-3     :    -0.000000
      g+4     :    -0.000000
      g-4     :     0.000000
  1 H s       :    -0.057704  s :    -0.057704
      pz      :     0.039719  p :     0.093049
      px      :     0.026665
      py      :     0.026665
      dz2     :     0.000984  d :     0.064217
      dxz     :     0.024510
      dyz     :     0.024510
      dx2y2   :     0.007102
      dxy     :     0.007112


                      *****************************
                      * MAYER POPULATION ANALYSIS *
                      *****************************

  NA   - Mulliken gross atomic population
  ZA   - Total nuclear charge
  QA   - Mulliken gross atomic charge
  VA   - Mayer's total valence
  BVA  - Mayer's bonded valence
  FA   - Mayer's free valence

  ATOM       NA         ZA         QA         VA         BVA        FA
  0 Cr    23.7361    24.0000     0.2639     5.9485     0.9461     5.0024
  1 H      1.2639     1.0000    -0.2639     1.0092     0.9461     0.0631

  Mayer bond orders larger than 0.100000
B(  0-Cr,  1-H ) :   0.9461 

-------
TIMINGS
-------

Total SCF time: 0 days 0 hours 0 min 2 sec 

Total time                  ....       2.372 sec
Sum of individual times     ....       2.257 sec  ( 95.1%)

Fock matrix formation       ....       1.962 sec  ( 82.7%)
  Split-RI-J                ....       1.545 sec  ( 78.8% of F)
  XC integration            ....       0.356 sec  ( 18.1% of F)
    Basis function eval.    ....       0.051 sec  ( 14.4% of XC)
    Density eval.           ....       0.051 sec  ( 14.2% of XC)
    XC-Functional eval.     ....       0.012 sec  (  3.3% of XC)
    XC-Potential eval.      ....       0.152 sec  ( 42.8% of XC)
Diagonalization             ....       0.046 sec  (  1.9%)
Density matrix formation    ....       0.007 sec  (  0.3%)
Population analysis         ....       0.006 sec  (  0.2%)
Initial guess               ....       0.092 sec  (  3.9%)
Orbital Transformation      ....       0.000 sec  (  0.0%)
Orbital Orthonormalization  ....       0.000 sec  (  0.0%)
DIIS solution               ....       0.019 sec  (  0.8%)
Grid generation             ....       0.126 sec  (  5.3%)


-------------------------------------------------------------------------------
                          DFT DISPERSION CORRECTION                            
                                                                               
                              DFTD3 V3.1  Rev 1                                
                          USING Becke-Johnson damping                          
-------------------------------------------------------------------------------
The SCAN functional is recognized
Active option DFTDOPT                   ...         4   

molecular C6(AA) [au] = 544.079690 


            DFT-D V3
 parameters
 s6 scaling factor         :     1.0000 
 a1 scaling factor         :     0.5380 
 s8 scaling factor         :     0.0000 
 a2 scaling factor         :     5.4200 
 ad hoc parameters k1-k3   :    16.0000     1.3333    -4.0000 

 Edisp/kcal,au: -0.056482417749  -0.000090010453 
 E6   /kcal   :  -0.056482418 
 E8   /kcal   :  -0.000000000 
 % E8         :   0.000000000 

-------------------------   ----------------
Dispersion correction           -0.000090010
-------------------------   ----------------


-------------------------   --------------------
FINAL SINGLE POINT ENERGY     -1045.165109876876
-------------------------   --------------------


                            ***************************************
                            *     ORCA property calculations      *
                            ***************************************

                                    ---------------------
                                    Active property flags
                                    ---------------------
   (+) Dipole Moment


------------------------------------------------------------------------------
                       ORCA ELECTRIC PROPERTIES CALCULATION
------------------------------------------------------------------------------

Dipole Moment Calculation                       ... on
Quadrupole Moment Calculation                   ... off
Polarizability Calculation                      ... off
GBWName                                         ... 19_CrH.gbw
Electron density file                           ... 19_CrH.scfp
The origin for moment calculation is the CENTER OF MASS  = ( 0.000000,  0.000000  0.381568)

-------------
DIPOLE MOMENT
-------------
                                X             Y             Z
Electronic contribution:     -0.00000      -0.00000      -2.75101
Nuclear contribution   :      0.00000       0.00000       1.64492
                        -----------------------------------------
Total Dipole Moment    :     -0.00000      -0.00000      -1.10609
                        -----------------------------------------
Magnitude (a.u.)       :      1.10609
Magnitude (Debye)      :      2.81145



--------------------
Rotational spectrum 
--------------------
 
Rotational constants in cm-1:     0.000000     6.192127     6.192127 
Rotational constants in MHz :     0.000000 185635.310837 185635.310837 

 Dipole components along the rotational axes: 
x,y,z [a.u.] :    -1.106087    -0.000000    -0.000000 
x,y,z [Debye]:    -2.811449    -0.000000    -0.000000 

 

Timings for individual modules:

Sum of individual times         ...        5.252 sec (=   0.088 min)
GTO integral calculation        ...        2.542 sec (=   0.042 min)  48.4 %
SCF iterations                  ...        2.710 sec (=   0.045 min)  51.6 %
                             ****ORCA TERMINATED NORMALLY****
TOTAL RUN TIME: 0 days 0 hours 0 minutes 5 seconds 805 msec
