
                                 *****************
                                 * O   R   C   A *
                                 *****************

           --- An Ab Initio, DFT and Semiempirical electronic structure package ---

                  #######################################################
                  #                        -***-                        #
                  #          Department of theory and spectroscopy      #
                  #               Directorship: Frank Neese             #
                  #        Max Planck Institute fuer Kohlenforschung    #
                  #                Kaiser Wilhelm Platz 1               #
                  #                 D-45470 Muelheim/Ruhr               #
                  #                      Germany                        #
                  #                                                     #
                  #                  All rights reserved                #
                  #                        -***-                        #
                  #######################################################


                         Program Version 4.2.0 -  RELEASE  -


 With contributions from (in alphabetic order):
   Daniel Aravena         : Magnetic Suceptibility
   Michael Atanasov       : Ab Initio Ligand Field Theory (pilot matlab implementation)
   Alexander A. Auer      : GIAO ZORA, VPT2
   Ute Becker             : Parallelization
   Giovanni Bistoni       : ED, misc. LED, open-shell LED, HFLED
   Martin Brehm           : Molecular dynamics
   Dmytro Bykov           : SCF Hessian
   Vijay G. Chilkuri      : MRCI spin determinant printing, contributions to CSF-ICE
   Dipayan Datta          : RHF DLPNO-CCSD density
   Achintya Kumar Dutta   : EOM-CC, STEOM-CC
   Dmitry Ganyushin       : Spin-Orbit,Spin-Spin,Magnetic field MRCI
   Miquel Garcia          : C-PCM Hessian, Gaussian charge scheme
   Yang Guo               : DLPNO-NEVPT2, CIM, IAO-localization
   Andreas Hansen         : Spin unrestricted coupled pair/coupled cluster methods
   Benjamin Helmich-Paris : CASSCF linear response (MC-RPA)
   Lee Huntington         : MR-EOM, pCC
   Robert Izsak           : Overlap fitted RIJCOSX, COSX-SCS-MP3, EOM
   Christian Kollmar      : KDIIS, OOCD, Brueckner-CCSD(T), CCSD density
   Simone Kossmann        : Meta GGA functionals, TD-DFT gradient, OOMP2, MP2 Hessian
   Martin Krupicka        : AUTO-CI
   Lucas Lang             : DCDCAS
   Dagmar Lenk            : GEPOL surface, SMD
   Dimitrios Liakos       : Extrapolation schemes; Compound Job, initial MDCI parallelization
   Dimitrios Manganas     : Further ROCIS development; embedding schemes
   Dimitrios Pantazis     : SARC Basis sets
   Taras Petrenko         : DFT Hessian,TD-DFT gradient, ASA, ECA, R-Raman, ABS, FL, XAS/XES, NRVS
   Peter Pinski           : DLPNO-MP2, DLPNO-MP2 Gradient
   Christoph Reimann      : Effective Core Potentials
   Marius Retegan         : Local ZFS, SOC
   Christoph Riplinger    : Optimizer, TS searches, QM/MM, DLPNO-CCSD(T), (RO)-DLPNO pert. Triples
   Tobias Risthaus        : Range-separated hybrids, TD-DFT gradient, RPA, STAB
   Michael Roemelt        : Original ROCIS implementation
   Masaaki Saitow         : Open-shell DLPNO-CCSD energy and density
   Barbara Sandhoefer     : DKH picture change effects
   Avijit Sen             : IP-ROCIS
   Kantharuban Sivalingam : CASSCF convergence, NEVPT2, FIC-MRCI
   Bernardo de Souza      : ESD, SOC TD-DFT
   Georgi Stoychev        : AutoAux, RI-MP2 NMR
   Willem Van den Heuvel  : Paramagnetic NMR
   Boris Wezisla          : Elementary symmetry handling
   Frank Wennmohs         : Technical directorship


 We gratefully acknowledge several colleagues who have allowed us to
 interface, adapt or use parts of their codes:
   Stefan Grimme, W. Hujo, H. Kruse,             : VdW corrections, initial TS optimization,
                  C. Bannwarth                     DFT functionals, gCP, sTDA/sTD-DF
   Ed Valeev, F. Pavosevic, A. Kumar             : LibInt (2-el integral package), F12 methods
   Garnet Chan, S. Sharma, J. Yang, R. Olivares  : DMRG
   Ulf Ekstrom                                   : XCFun DFT Library
   Mihaly Kallay                                 : mrcc  (arbitrary order and MRCC methods)
   Andreas Klamt, Michael Diedenhofen            : otool_cosmo (COSMO solvation model)
   Jiri Pittner, Ondrej Demel                    : Mk-CCSD
   Frank Weinhold                                : gennbo (NPA and NBO analysis)
   Christopher J. Cramer and Donald G. Truhlar   : smd solvation model
   Lars Goerigk                                  : TD-DFT with DH, B97 family of functionals
   V. Asgeirsson, H. Jonsson                     : NEB implementation
   FAccTs GmbH                                   : IRC, NEB, NEB-TS, Multilevel, MM, QM/MM, CI optimization
   S Lehtola, MJT Oliveira, MAL Marques          : LibXC Library


 Your calculation uses the libint2 library for the computation of 2-el integrals
 For citations please refer to: http://libint.valeyev.net

 Your ORCA version has been built with support for libXC version: 4.2.3
 For citations please refer to: https://tddft.org/programs/libxc/

 This ORCA versions uses:
   CBLAS   interface :  Fast vector & matrix operations
   LAPACKE interface :  Fast linear algebra routines
   SCALAPACK package :  Parallel linear algebra routines


Your calculation utilizes the atom-pairwise dispersion correction
with the Becke-Johnson damping scheme (D3BJ)
Cite in your paper:
S.Grimme, S.Ehrlich, L.Goerigk, J Comput Chem, (2011), 32, 1456–1465 
S.Grimme, J.Antony, S.Ehrlich and H.Krieg, J.Chem.Phys., 132, (2010), 154104 
   

----- Orbital basis set information -----
Your calculation utilizes the basis: aug-cc-pVTZ 
    H, B-Ne : Obtained from the ccRepo (grant-hill.group.shef.ac.uk/ccrepo) Feb. 2017
              R. A. Kendall, T. H. Dunning, Jr., R. J. Harrison, J. Chem. Phys. 96, 6796 (1992)
         He : Obtained from the ccRepo (grant-hill.group.shef.ac.uk/ccrepo) Feb. 2017
              D. E. Woon, T. H. Dunning, Jr., J. Chem. Phys. 100, 2975 (1994)
  Li-Be, Na : Obtained from the ccRepo (grant-hill.group.shef.ac.uk/ccrepo) Feb. 2017
              B. P. Prascher, D. E. Woon, K. A. Peterson, T. H. Dunning, Jr., A. K. Wilson, Theor. Chem. Acc. 128, 69 (2011)
         Mg : Obtained from the Peterson Research Group Website (tyr0.chem.wsu.edu/~kipeters) Feb. 2017
              B. P. Prascher, D. E. Woon, K. A. Peterson, T. H. Dunning, Jr., A. K. Wilson, Theor. Chem. Acc. 128, 69 (2011)
      Al-Ar : Obtained from the ccRepo (grant-hill.group.shef.ac.uk/ccrepo) Feb. 2017
              D. E. Woon, T. H. Dunning, Jr., J. Chem. Phys. 98, 1358 (1993)
      Sc-Zn : Obtained from the ccRepo (grant-hill.group.shef.ac.uk/ccrepo) Feb. 2017
              N. B. Balabanov, K. A. Peterson, J. Chem. Phys. 123, 064107 (2005)
              N. B. Balabanov, K. A. Peterson, J. Chem. Phys. 125, 074110 (2006)
      Ga-Kr : Obtained from the ccRepo (grant-hill.group.shef.ac.uk/ccrepo) Feb. 2017
              A. K. Wilson, D. E. Woon, K. A. Peterson, T. H. Dunning, Jr., J. Chem. Phys. 110, 7667 (1999)
     Ag, Au : Obtained from the Peterson Research Group Website (tyr0.chem.wsu.edu/~kipeters) Feb. 2017
              K. A. Peterson, C. Puzzarini, Theor. Chem. Acc. 114, 283 (2005)

----- AuxJ basis set information -----
Your calculation utilizes the auxiliary basis: def2/J
   F. Weigend, Phys. Chem. Chem. Phys. 8, 1057 (2006).

================================================================================
                                        WARNINGS
                       Please study these warnings very carefully!
================================================================================


WARNING: your system is open-shell and RHF/RKS was chosen
  ===> : WILL SWITCH to UHF/UKS


WARNING: The SCAN functional is very grid-sensitive!
         Use at least GRID5 and a higher intacc

INFO   : the flag for use of LIBINT has been found!

================================================================================
                                       INPUT FILE
================================================================================
NAME = 20_CrF.in
|  1> #
|  2> # 20_CrF scanfunc/aug-cc-pvtz
|  3> #
|  4> ! scanfunc d3bj aug-cc-pvtz def2/j grid4 nofinalgrid
|  5> 
|  6> *xyz 0 6
|  7>   Cr  0.00000000000000      0.00000000000000      0.10659678981823
|  8>   F   0.00000000000000      0.00000000000000      1.89340321018177
|  9> *
| 10> 
| 11> %pal
| 12> nprocs 24
| 13> end
| 14> 
| 15> 
| 16>                          ****END OF INPUT****
================================================================================

                       ****************************
                       * Single Point Calculation *
                       ****************************

---------------------------------
CARTESIAN COORDINATES (ANGSTROEM)
---------------------------------
  Cr     0.000000    0.000000    0.106597
  F      0.000000    0.000000    1.893403

----------------------------
CARTESIAN COORDINATES (A.U.)
----------------------------
  NO LB      ZA    FRAG     MASS         X           Y           Z
   0 Cr   24.0000    0    52.000    0.000000    0.000000    0.201439
   1 F     9.0000    0    18.998    0.000000    0.000000    3.578014

--------------------------------
INTERNAL COORDINATES (ANGSTROEM)
--------------------------------
 Cr     0   0   0     0.000000000000     0.00000000     0.00000000
 F      1   0   0     1.786806420364     0.00000000     0.00000000

---------------------------
INTERNAL COORDINATES (A.U.)
---------------------------
 Cr     0   0   0     0.000000000000     0.00000000     0.00000000
 F      1   0   0     3.376574788819     0.00000000     0.00000000

---------------------
BASIS SET INFORMATION
---------------------
There are 2 groups of distinct atoms

 Group   1 Type Cr  : 116s77p23d3f2g contracted to 8s7p5d3f2g pattern {19191919191911/151515151511/77711/111/11}
 Group   2 Type F   : 19s6p3d2f contracted to 5s4p3d2f pattern {88111/3111/111/11}

Atom   0Cr   basis set group =>   1
Atom   1F    basis set group =>   2
---------------------------------
AUXILIARY/J BASIS SET INFORMATION
---------------------------------
There are 2 groups of distinct atoms

 Group   1 Type Cr  : 19s5p5d3f3g contracted to 8s5p5d2f3g pattern {121111111/11111/11111/21/111}
 Group   2 Type F   : 12s5p4d2f1g contracted to 6s4p3d1f1g pattern {711111/2111/211/2/1}

Atom   0Cr   basis set group =>   1
Atom   1F    basis set group =>   2


           ************************************************************
           *        Program running with 24 parallel MPI-processes    *
           *              working on a common directory               *
           ************************************************************
------------------------------------------------------------------------------
                           ORCA GTO INTEGRAL CALCULATION
                           -- RI-GTO INTEGRALS CHOSEN --
------------------------------------------------------------------------------

                         BASIS SET STATISTICS AND STARTUP INFO

Gaussian basis set:
 # of primitive gaussian shells          ...  251
 # of primitive gaussian functions       ...  567
 # of contracted shells                  ...   39
 # of contracted basis functions         ...  139
 Highest angular momentum                ...    4
 Maximum contraction depth               ...   19
Auxiliary gaussian basis set:
 # of primitive gaussian shells          ...   59
 # of primitive gaussian functions       ...  177
 # of contracted shells                  ...   38
 # of contracted aux-basis functions     ...  138
 Highest angular momentum                ...    4
 Maximum contraction depth               ...   12
Ratio of auxiliary to basis functions    ...  0.99
Integral package used                  ... LIBINT
 One Electron integrals                  ... done
 Ordering auxiliary basis shells         ... done
 Integral threshhold             Thresh  ...  1.000e-10
 Primitive cut-off               TCut    ...  1.000e-11
 Pre-screening matrix                    ... done
 Shell pair data                         ... 
 Ordering of the shell pairs             ... done (   0.000 sec) 780 of 780 pairs
 Determination of significant pairs      ... done (   0.000 sec)
 Creation of shell pair data             ... done (   0.001 sec)
 Storage of shell pair data              ... done (   0.033 sec)
 Shell pair data done in (   0.035 sec)
 Computing two index integrals           ... done
 Cholesky decomposition of the V-matrix  ... done


Timings:
 Total evaluation time                   ...   2.246 sec (  0.037 min)
 One electron matrix time                ...   0.041 sec (  0.001 min) =  1.8%
 Schwartz matrix evaluation time         ...   2.141 sec (  0.036 min) = 95.3%
 Two index repulsion integral time       ...   0.001 sec (  0.000 min) =  0.0%
 Cholesky decomposition of V             ...   0.001 sec (  0.000 min) =  0.0%
 Three index repulsion integral time     ...   0.000 sec (  0.000 min) =  0.0%



           ************************************************************
           *        Program running with 24 parallel MPI-processes    *
           *              working on a common directory               *
           ************************************************************
-------------------------------------------------------------------------------
                                 ORCA SCF
-------------------------------------------------------------------------------

------------
SCF SETTINGS
------------
Hamiltonian:
 Density Functional     Method          .... DFT(GTOs)
 Exchange Functional    Exchange        .... SCAN
 Correlation Functional Correlation     .... SCAN
 Gradients option       PostSCFGGA      .... off
   Density functional embedding theory  .... OFF
   NL short-range parameter             ....  6.400000
 RI-approximation to the Coulomb term is turned on
   Number of auxiliary basis functions  .... 138


General Settings:
 Integral files         IntName         .... 20_CrF
 Hartree-Fock type      HFTyp           .... UHF
 Total Charge           Charge          ....    0
 Multiplicity           Mult            ....    6
 Number of Electrons    NEL             ....   33
 Basis Dimension        Dim             ....  139
 Nuclear Repulsion      ENuc            ....     63.9701512655 Eh

Convergence Acceleration:
 DIIS                   CNVDIIS         .... on
   Start iteration      DIISMaxIt       ....    12
   Startup error        DIISStart       ....  0.200000
   # of expansion vecs  DIISMaxEq       ....     5
   Bias factor          DIISBfac        ....   1.050
   Max. coefficient     DIISMaxC        ....  10.000
 Newton-Raphson         CNVNR           .... off
 SOSCF                  CNVSOSCF        .... off
 Level Shifting         CNVShift        .... on
   Level shift para.    LevelShift      ....    0.2500
   Turn off err/grad.   ShiftErr        ....    0.0010
 Zerner damping         CNVZerner       .... off
 Static damping         CNVDamp         .... on
   Fraction old density DampFac         ....    0.7000
   Max. Damping (<1)    DampMax         ....    0.9800
   Min. Damping (>=0)   DampMin         ....    0.0000
   Turn off err/grad.   DampErr         ....    0.1000
 Fernandez-Rico         CNVRico         .... off

SCF Procedure:
 Maximum # iterations   MaxIter         ....   125
 SCF integral mode      SCFMode         .... Direct
   Integral package                     .... LIBINT
 Reset frequency        DirectResetFreq ....    20
 Integral Threshold     Thresh          ....  1.000e-10 Eh
 Primitive CutOff       TCut            ....  1.000e-11 Eh

Convergence Tolerance:
 Convergence Check Mode ConvCheckMode   .... Total+1el-Energy
 Convergence forced     ConvForced      .... 0
 Energy Change          TolE            ....  1.000e-06 Eh
 1-El. energy change                    ....  1.000e-03 Eh
 DIIS Error             TolErr          ....  1.000e-06


Diagonalization of the overlap matrix:
Smallest eigenvalue                        ... 8.925e-05
Time for diagonalization                   ...    0.005 sec
Threshold for overlap eigenvalues          ... 1.000e-08
Number of eigenvalues below threshold      ... 0
Time for construction of square roots      ...    0.003 sec
Total time needed                          ...    0.008 sec

-------------------
DFT GRID GENERATION
-------------------

General Integration Accuracy     IntAcc      ...  4.670
Radial Grid Type                 RadialGrid  ... Gauss-Chebyshev
Angular Grid (max. acc.)         AngularGrid ... Lebedev-302
Angular grid pruning method      GridPruning ... 3 (G Style)
Weight generation scheme         WeightScheme... Becke
Basis function cutoff            BFCut       ...    1.0000e-10
Integration weight cutoff        WCut        ...    1.0000e-14
Grids for H and He will be reduced by one unit

# of grid points (after initial pruning)     ...  15936 (   0.0 sec)
# of grid points (after weights+screening)   ...  15887 (   0.0 sec)
nearest neighbour list constructed           ...    0.0 sec
Grid point re-assignment to atoms done       ...    0.0 sec
Grid point division into batches done        ...    0.1 sec
Reduced shell lists constructed in    0.1 sec

Total number of grid points                  ...    15887
Total number of batches                      ...      250
Average number of points per batch           ...       63
Average number of grid points per atom       ...     7944
Average number of shells per batch           ...    14.42 (36.97%)
Average number of basis functions per batch  ...    37.92 (27.28%)
Average number of large shells per batch     ...     8.25 (57.23%)
Average number of large basis fcns per batch ...    22.92 (60.44%)
Maximum spatial batch extension              ...  28.57, 31.41, 18.50 au
Average spatial batch extension              ...   0.88,  0.94,  0.67 au

Time for grid setup =    0.153 sec

------------------------------
INITIAL GUESS: MODEL POTENTIAL
------------------------------
Loading Hartree-Fock densities                     ... done
Calculating cut-offs                               ... done
Setting up the integral package                    ... done
Initializing the effective Hamiltonian             ... done
Starting the Coulomb interaction                   ... done (   0.0 sec)
Reading the grid                                   ... done
Mapping shells                                     ... done
Starting the XC term evaluation                    ... done (   0.0 sec)
  promolecular density results
     # of electrons  =     33.000003309
     EX              =    -64.391252777
     EC              =     -0.569217283
     EX+EC           =    -64.960470060
Transforming the Hamiltonian                       ... done (   0.0 sec)
Diagonalizing the Hamiltonian                      ... done (   0.0 sec)
Back transforming the eigenvectors                 ... done (   0.0 sec)
Now organizing SCF variables                       ... done
                      ------------------
                      INITIAL GUESS DONE (   0.3 sec)
                      ------------------
--------------
SCF ITERATIONS
--------------
ITER       Energy         Delta-E        Max-DP      RMS-DP      [F,P]     Damp
               ***  Starting incremental Fock matrix formation  ***
  0  -1144.0490364065   0.000000000000 0.42324256  0.00841926  0.5538435 0.7000
  1  -1144.2861017364  -0.237065329839 0.23286442  0.00476183  0.1728040 0.7000
                               ***Turning on DIIS***
  2  -1144.3344972509  -0.048395514545 0.42809866  0.00744181  0.0406708 0.0000
  3  -1144.4811672604  -0.146670009516 0.04527607  0.00085838  0.0779726 0.0000
  4  -1144.5008849448  -0.019717684359 0.08478725  0.00151853  0.0247354 0.0000
  5  -1144.5044295004  -0.003544555617 0.03988419  0.00068843  0.0135947 0.0000
  6  -1144.5061260901  -0.001696589662 0.02019938  0.00025183  0.0074755 0.0000
  7  -1144.5068691385  -0.000743048471 0.01814266  0.00017615  0.0049446 0.0000
  8  -1144.5072667780  -0.000397639506 0.01244171  0.00011463  0.0034545 0.0000
  9  -1144.5074827906  -0.000216012578 0.01084276  0.00010351  0.0032300 0.0000
 10  -1144.5076086989  -0.000125908291 0.00855726  0.00008972  0.0022212 0.0000
 11  -1144.5076805480  -0.000071849139 0.00602944  0.00007514  0.0017150 0.0000
 12  -1144.5077199555  -0.000039407468 0.00490944  0.00005177  0.0015438 0.0000
 13  -1144.5077446484  -0.000024692919 0.00338639  0.00003617  0.0010921 0.0000
 14  -1144.5077570510  -0.000012402564 0.01219927  0.00009904  0.0009667 0.0000
 15  -1144.5077693460  -0.000012294965 0.00092000  0.00001494  0.0014460 0.0000
 16  -1144.5077738681  -0.000004522128 0.00180992  0.00001975  0.0006143 0.0000
 17  -1144.5077744688  -0.000000600751 0.00042293  0.00000489  0.0002666 0.0000
 18  -1144.5077747021  -0.000000233295 0.00013705  0.00000165  0.0002021 0.0000
 19  -1144.5077748516  -0.000000149521 0.00008622  0.00000113  0.0000689 0.0000
               *** Restarting incremental Fock matrix formation ***
                                   *** Resetting DIIS ***
 20  -1144.5077736210   0.000001230623 0.00044467  0.00000739  0.0003461 0.0000
 21  -1144.5077735612   0.000000059816 0.00011615  0.00000157  0.0000172 0.0000
 22  -1144.5077735272   0.000000033985 0.00007739  0.00000109  0.0000529 0.0000
                 **** Energy Check signals convergence ****

               *****************************************************
               *                     SUCCESS                       *
               *           SCF CONVERGED AFTER  23 CYCLES          *
               *****************************************************


----------------
TOTAL SCF ENERGY
----------------

Total Energy       :        -1144.50777359 Eh          -31143.63983 eV

Components:
Nuclear Repulsion  :           63.97015127 Eh            1740.71631 eV
Electronic Energy  :        -1208.47792485 Eh          -32884.35614 eV
One Electron Energy:        -1705.24688692 Eh          -46402.12683 eV
Two Electron Energy:          496.76896207 Eh           13517.77069 eV

Virial components:
Potential Energy   :        -2287.00815847 Eh          -62232.65584 eV
Kinetic Energy     :         1142.50038488 Eh           31089.01601 eV
Virial Ratio       :            2.00175701


DFT components:
N(Alpha)           :       19.000008781953 electrons
N(Beta)            :       14.000008628314 electrons
N(Total)           :       33.000017410266 electrons
E(X)               :      -58.005408923650 Eh       
E(C)               :       -1.310358561786 Eh       
E(XC)              :      -59.315767485437 Eh       
DFET-embed. en.    :        0.000000000000 Eh       

---------------
SCF CONVERGENCE
---------------

  Last Energy change         ...   -6.0522e-08  Tolerance :   1.0000e-06
  Last MAX-Density change    ...    3.9851e-06  Tolerance :   1.0000e-05
  Last RMS-Density change    ...    5.9458e-08  Tolerance :   1.0000e-06
  Last DIIS Error            ...    6.5059e-06  Tolerance :   1.0000e-06

             **** THE GBW FILE WAS UPDATED (20_CrF.gbw) ****
             **** DENSITY FILE WAS UPDATED (20_CrF.scfp) ****
             **** ENERGY FILE WAS UPDATED (20_CrF.en.tmp) ****
----------------------
UHF SPIN CONTAMINATION
----------------------

Warning: in a DFT calculation there is little theoretical justification to 
         calculate <S**2> as in Hartree-Fock theory. We will do it anyways
         but you should keep in mind that the values have only limited relevance

Expectation value of <S**2>     :     8.764999
Ideal value S*(S+1) for S=2.5   :     8.750000
Deviation                       :     0.014999

             **** THE GBW FILE WAS UPDATED (20_CrF.gbw) ****
             **** DENSITY FILE WAS UPDATED (20_CrF.scfp) ****
----------------
ORBITAL ENERGIES
----------------
                 SPIN UP ORBITALS
  NO   OCC          E(Eh)            E(eV) 
   0   1.0000    -215.083594     -5852.7222 
   1   1.0000     -24.627785      -670.1561 
   2   1.0000     -24.439365      -665.0289 
   3   1.0000     -20.842126      -567.1431 
   4   1.0000     -20.840101      -567.0880 
   5   1.0000     -20.840101      -567.0880 
   6   1.0000      -2.888035       -78.5874 
   7   1.0000      -1.830270       -49.8042 
   8   1.0000      -1.829431       -49.7814 
   9   1.0000      -1.829431       -49.7814 
  10   1.0000      -1.048699       -28.5366 
  11   1.0000      -0.353081        -9.6078 
  12   1.0000      -0.338823        -9.2198 
  13   1.0000      -0.338823        -9.2198 
  14   1.0000      -0.208909        -5.6847 
  15   1.0000      -0.208909        -5.6847 
  16   1.0000      -0.206038        -5.6066 
  17   1.0000      -0.205985        -5.6051 
  18   1.0000      -0.190690        -5.1889 
  19   0.0000      -0.118198        -3.2163 
  20   0.0000      -0.039799        -1.0830 
  21   0.0000      -0.039799        -1.0830 
  22   0.0000       0.014400         0.3918 
  23   0.0000       0.017579         0.4783 
  24   0.0000       0.032562         0.8861 
  25   0.0000       0.032564         0.8861 
  26   0.0000       0.058898         1.6027 
  27   0.0000       0.063860         1.7377 
  28   0.0000       0.063896         1.7387 
  29   0.0000       0.066407         1.8070 
  30   0.0000       0.066409         1.8071 
  31   0.0000       0.076253         2.0749 
  32   0.0000       0.121244         3.2992 
  33   0.0000       0.161261         4.3881 
  34   0.0000       0.161261         4.3881 
  35   0.0000       0.191908         5.2221 
  36   0.0000       0.198940         5.4134 
  37   0.0000       0.199015         5.4155 
  38   0.0000       0.218176         5.9369 
  39   0.0000       0.218178         5.9369 
  40   0.0000       0.252285         6.8650 
  41   0.0000       0.254239         6.9182 
  42   0.0000       0.254239         6.9182 
  43   0.0000       0.274620         7.4728 
  44   0.0000       0.460284        12.5250 
  45   0.0000       0.506235        13.7754 
  46   0.0000       0.506297        13.7771 
  47   0.0000       0.515458        14.0263 
  48   0.0000       0.515458        14.0263 
  49   0.0000       0.589024        16.0282 
  50   0.0000       0.589025        16.0282 
  51   0.0000       0.621072        16.9002 
  52   0.0000       0.633261        17.2319 
  53   0.0000       0.633261        17.2319 
  54   0.0000       0.659801        17.9541 
  55   0.0000       0.778704        21.1896 
  56   0.0000       0.779091        21.2001 
  57   0.0000       0.781270        21.2594 
  58   0.0000       0.781270        21.2594 
  59   0.0000       0.915296        24.9065 
  60   0.0000       0.921358        25.0714 
  61   0.0000       0.921627        25.0788 
  62   0.0000       1.005446        27.3596 
  63   0.0000       1.005446        27.3596 
  64   0.0000       1.091629        29.7047 
  65   0.0000       1.348922        36.7060 
  66   0.0000       1.348922        36.7060 
  67   0.0000       1.363646        37.1067 
  68   0.0000       1.610414        43.8216 
  69   0.0000       1.724570        46.9279 
  70   0.0000       1.724689        46.9312 
  71   0.0000       1.738232        47.2997 
  72   0.0000       1.738232        47.2997 
  73   0.0000       1.794136        48.8209 
  74   0.0000       1.794136        48.8209 
  75   0.0000       1.825319        49.6695 
  76   0.0000       2.135487        58.1096 
  77   0.0000       2.135487        58.1096 
  78   0.0000       2.161619        58.8206 
  79   0.0000       2.161636        58.8211 
  80   0.0000       2.173484        59.1435 
  81   0.0000       2.173535        59.1449 
  82   0.0000       2.210742        60.1574 
  83   0.0000       2.260298        61.5058 
  84   0.0000       2.260298        61.5058 
  85   0.0000       2.391813        65.0845 
  86   0.0000       2.391813        65.0845 
  87   0.0000       2.531147        68.8760 
  88   0.0000       2.564672        69.7883 
  89   0.0000       2.683089        73.0106 
  90   0.0000       2.683877        73.0320 
  91   0.0000       2.817694        76.6734 
  92   0.0000       2.817694        76.6734 
  93   0.0000       2.984314        81.2073 
  94   0.0000       2.984314        81.2073 
  95   0.0000       3.103447        84.4491 
  96   0.0000       3.177364        86.4605 
  97   0.0000       3.178140        86.4816 
  98   0.0000       3.291243        89.5593 
  99   0.0000       3.291259        89.5597 
 100   0.0000       3.388559        92.2074 
 101   0.0000       3.388559        92.2074 
 102   0.0000       3.555811        96.7585 
 103   0.0000       3.767781       102.5265 
 104   0.0000       3.767781       102.5265 
 105   0.0000       4.359709       118.6337 
 106   0.0000       4.950952       134.7222 
 107   0.0000       4.950952       134.7222 
 108   0.0000       5.348560       145.5417 
 109   0.0000       6.123537       166.6299 
 110   0.0000       6.123629       166.6324 
 111   0.0000       6.126675       166.7153 
 112   0.0000       6.126675       166.7153 
 113   0.0000       6.318481       171.9346 
 114   0.0000       6.318481       171.9346 
 115   0.0000       6.463851       175.8903 
 116   0.0000       6.670222       181.5060 
 117   0.0000       6.670222       181.5060 
 118   0.0000       6.683608       181.8702 
 119   0.0000       6.683699       181.8727 
 120   0.0000       6.762460       184.0159 
 121   0.0000       6.763084       184.0329 
 122   0.0000       6.916314       188.2025 
 123   0.0000       6.916314       188.2025 
 124   0.0000       7.034275       191.4123 
 125   0.0000       7.845308       213.4817 
 126   0.0000       8.560928       232.9547 
 127   0.0000       8.560928       232.9547 
 128   0.0000       8.692129       236.5249 
 129   0.0000       8.692790       236.5428 
 130   0.0000       8.904228       242.2964 
 131   0.0000       8.904641       242.3076 
 132   0.0000       9.017594       245.3812 
 133   0.0000       9.017594       245.3812 
 134   0.0000       9.021933       245.4993 
 135   0.0000       9.070087       246.8096 
 136   0.0000       9.070087       246.8096 
 137   0.0000       9.317345       253.5378 
 138   0.0000      13.238365       360.2342 

                 SPIN DOWN ORBITALS
  NO   OCC          E(Eh)            E(eV) 
   0   1.0000    -215.085680     -5852.7789 
   1   1.0000     -24.486951      -666.3238 
   2   1.0000     -24.440101      -665.0490 
   3   1.0000     -20.758596      -564.8701 
   4   1.0000     -20.746523      -564.5416 
   5   1.0000     -20.746523      -564.5416 
   6   1.0000      -2.727443       -74.2175 
   7   1.0000      -1.684146       -45.8279 
   8   1.0000      -1.651505       -44.9397 
   9   1.0000      -1.651505       -44.9397 
  10   1.0000      -1.046139       -28.4669 
  11   1.0000      -0.355156        -9.6643 
  12   1.0000      -0.320263        -8.7148 
  13   1.0000      -0.320263        -8.7148 
  14   0.0000      -0.064080        -1.7437 
  15   0.0000      -0.031716        -0.8630 
  16   0.0000      -0.020570        -0.5597 
  17   0.0000      -0.020532        -0.5587 
  18   0.0000      -0.018198        -0.4952 
  19   0.0000      -0.018198        -0.4952 
  20   0.0000       0.009939         0.2705 
  21   0.0000       0.009941         0.2705 
  22   0.0000       0.021329         0.5804 
  23   0.0000       0.025353         0.6899 
  24   0.0000       0.054070         1.4713 
  25   0.0000       0.054070         1.4713 
  26   0.0000       0.063024         1.7150 
  27   0.0000       0.063028         1.7151 
  28   0.0000       0.065082         1.7710 
  29   0.0000       0.066101         1.7987 
  30   0.0000       0.066105         1.7988 
  31   0.0000       0.085553         2.3280 
  32   0.0000       0.146579         3.9886 
  33   0.0000       0.191832         5.2200 
  34   0.0000       0.191833         5.2201 
  35   0.0000       0.216774         5.8987 
  36   0.0000       0.237007         6.4493 
  37   0.0000       0.237011         6.4494 
  38   0.0000       0.250096         6.8054 
  39   0.0000       0.250097         6.8055 
  40   0.0000       0.259086         7.0501 
  41   0.0000       0.259911         7.0725 
  42   0.0000       0.259911         7.0725 
  43   0.0000       0.292338         7.9549 
  44   0.0000       0.490301        13.3418 
  45   0.0000       0.554007        15.0753 
  46   0.0000       0.554073        15.0771 
  47   0.0000       0.576825        15.6962 
  48   0.0000       0.576825        15.6962 
  49   0.0000       0.654323        17.8050 
  50   0.0000       0.654324        17.8050 
  51   0.0000       0.684759        18.6332 
  52   0.0000       0.684759        18.6333 
  53   0.0000       0.684809        18.6346 
  54   0.0000       0.712046        19.3758 
  55   0.0000       0.862788        23.4776 
  56   0.0000       0.862788        23.4777 
  57   0.0000       0.872876        23.7522 
  58   0.0000       0.873027        23.7563 
  59   0.0000       0.928406        25.2632 
  60   0.0000       0.962143        26.1813 
  61   0.0000       0.962319        26.1860 
  62   0.0000       1.020323        27.7644 
  63   0.0000       1.020324        27.7644 
  64   0.0000       1.154325        31.4108 
  65   0.0000       1.372177        37.3388 
  66   0.0000       1.409317        38.3495 
  67   0.0000       1.409317        38.3495 
  68   0.0000       1.707674        46.4682 
  69   0.0000       1.887563        51.3632 
  70   0.0000       1.887899        51.3724 
  71   0.0000       1.917225        52.1703 
  72   0.0000       1.917225        52.1703 
  73   0.0000       1.929649        52.5084 
  74   0.0000       1.929649        52.5084 
  75   0.0000       1.935048        52.6553 
  76   0.0000       2.259879        61.4944 
  77   0.0000       2.259879        61.4944 
  78   0.0000       2.284269        62.1581 
  79   0.0000       2.284506        62.1646 
  80   0.0000       2.291245        62.3480 
  81   0.0000       2.309315        62.8396 
  82   0.0000       2.309381        62.8414 
  83   0.0000       2.369202        64.4693 
  84   0.0000       2.369202        64.4693 
  85   0.0000       2.472914        67.2914 
  86   0.0000       2.472914        67.2914 
  87   0.0000       2.581878        70.2565 
  88   0.0000       2.642111        71.8955 
  89   0.0000       2.697466        73.4018 
  90   0.0000       2.697507        73.4029 
  91   0.0000       2.845960        77.4425 
  92   0.0000       2.845960        77.4425 
  93   0.0000       3.016282        82.0772 
  94   0.0000       3.016282        82.0772 
  95   0.0000       3.154627        85.8418 
  96   0.0000       3.235347        88.0383 
  97   0.0000       3.236667        88.0742 
  98   0.0000       3.439550        93.5949 
  99   0.0000       3.439811        93.6020 
 100   0.0000       3.559514        96.8593 
 101   0.0000       3.559514        96.8593 
 102   0.0000       3.601542        98.0029 
 103   0.0000       3.816608       103.8552 
 104   0.0000       3.816608       103.8552 
 105   0.0000       4.441623       120.8627 
 106   0.0000       4.968757       135.2068 
 107   0.0000       4.968757       135.2068 
 108   0.0000       5.376123       146.2917 
 109   0.0000       6.361516       173.1056 
 110   0.0000       6.361516       173.1056 
 111   0.0000       6.371566       173.3791 
 112   0.0000       6.371695       173.3826 
 113   0.0000       6.532651       177.7625 
 114   0.0000       6.532651       177.7625 
 115   0.0000       6.622271       180.2012 
 116   0.0000       6.909042       188.0046 
 117   0.0000       6.909632       188.0207 
 118   0.0000       6.912595       188.1013 
 119   0.0000       6.912595       188.1013 
 120   0.0000       6.968722       189.6286 
 121   0.0000       6.969076       189.6382 
 122   0.0000       7.128155       193.9669 
 123   0.0000       7.128155       193.9669 
 124   0.0000       7.199076       195.8968 
 125   0.0000       8.038071       218.7270 
 126   0.0000       8.574499       233.3240 
 127   0.0000       8.574499       233.3240 
 128   0.0000       8.700034       236.7399 
 129   0.0000       8.700731       236.7589 
 130   0.0000       8.917848       242.6670 
 131   0.0000       8.918862       242.6946 
 132   0.0000       9.022416       245.5124 
 133   0.0000       9.022416       245.5124 
 134   0.0000       9.026434       245.6218 
 135   0.0000       9.057974       246.4800 
 136   0.0000       9.057974       246.4800 
 137   0.0000       9.310393       253.3487 
 138   0.0000      13.262216       360.8832 

                    ********************************
                    * MULLIKEN POPULATION ANALYSIS *
                    ********************************

--------------------------------------------
MULLIKEN ATOMIC CHARGES AND SPIN POPULATIONS
--------------------------------------------
   0 Cr:    0.564228    5.036698
   1 F :   -0.564228   -0.036698
Sum of atomic charges         :    0.0000000
Sum of atomic spin populations:    5.0000000

-----------------------------------------------------
MULLIKEN REDUCED ORBITAL CHARGES AND SPIN POPULATIONS
-----------------------------------------------------
CHARGE
  0 Crs       :     6.759677  s :     6.759677
      pz      :     4.036222  p :    12.117948
      px      :     4.040863
      py      :     4.040863
      dz2     :     0.488942  d :     4.535254
      dxz     :     1.023610
      dyz     :     1.023610
      dx2y2   :     0.999545
      dxy     :     0.999547
      f0      :     0.006003  f :     0.017570
      f+1     :     0.005614
      f-1     :     0.005614
      f+2     :     0.000169
      f-2     :     0.000168
      f+3     :     0.000000
      f-3     :     0.000000
      g0      :     0.002232  g :     0.005324
      g+1     :     0.001543
      g-1     :     0.001543
      g+2     :     0.000003
      g-2     :     0.000003
      g+3     :     0.000000
      g-3     :     0.000000
      g+4     :     0.000000
      g-4     :     0.000000
  1 F s       :     3.983841  s :     3.983841
      pz      :     1.719691  p :     5.568633
      px      :     1.924471
      py      :     1.924471
      dz2     :     0.002765  d :     0.010051
      dxz     :     0.003412
      dyz     :     0.003412
      dx2y2   :     0.000230
      dxy     :     0.000231
      f0      :     0.000627  f :     0.001703
      f+1     :     0.000486
      f-1     :     0.000486
      f+2     :     0.000053
      f-2     :     0.000051
      f+3     :     0.000000
      f-3     :     0.000000

SPIN
  0 Crs       :     0.718439  s :     0.718439
      pz      :     0.025481  p :     0.079649
      px      :     0.027084
      py      :     0.027084
      dz2     :     0.338667  d :     4.238901
      dxz     :     0.950571
      dyz     :     0.950571
      dx2y2   :     0.999545
      dxy     :     0.999547
      f0      :    -0.001141  f :     0.000739
      f+1     :     0.000771
      f-1     :     0.000771
      f+2     :     0.000169
      f-2     :     0.000168
      f+3     :     0.000000
      f-3     :     0.000000
      g0      :    -0.000627  g :    -0.001030
      g+1     :    -0.000204
      g-1     :    -0.000204
      g+2     :     0.000003
      g-2     :     0.000003
      g+3     :     0.000000
      g-3     :     0.000000
      g+4     :     0.000000
      g-4     :     0.000000
  1 F s       :    -0.004269  s :    -0.004269
      pz      :    -0.077445  p :    -0.033734
      px      :     0.021856
      py      :     0.021856
      dz2     :     0.000874  d :     0.000952
      dxz     :    -0.000192
      dyz     :    -0.000192
      dx2y2   :     0.000230
      dxy     :     0.000231
      f0      :     0.000022  f :     0.000353
      f+1     :     0.000113
      f-1     :     0.000113
      f+2     :     0.000053
      f-2     :     0.000051
      f+3     :     0.000000
      f-3     :     0.000000


                     *******************************
                     * LOEWDIN POPULATION ANALYSIS *
                     *******************************

-------------------------------------------
LOEWDIN ATOMIC CHARGES AND SPIN POPULATIONS
-------------------------------------------
   0 Cr:    0.372008    4.872790
   1 F :   -0.372008    0.127210

----------------------------------------------------
LOEWDIN REDUCED ORBITAL CHARGES AND SPIN POPULATIONS
----------------------------------------------------
CHARGE
  0 Crs       :     6.552534  s :     6.552534
      pz      :     4.076941  p :    12.167034
      px      :     4.045047
      py      :     4.045047
      dz2     :     0.593445  d :     4.618777
      dxz     :     1.017602
      dyz     :     1.017602
      dx2y2   :     0.995060
      dxy     :     0.995066
      f0      :     0.100276  f :     0.235571
      f+1     :     0.067211
      f-1     :     0.067211
      f+2     :     0.000438
      f-2     :     0.000435
      f+3     :     0.000000
      f-3     :     0.000000
      g0      :     0.023295  g :     0.054076
      g+1     :     0.015342
      g-1     :     0.015342
      g+2     :     0.000048
      g-2     :     0.000048
      g+3     :     0.000000
      g-3     :     0.000000
      g+4     :     0.000000
      g-4     :     0.000000
  1 F s       :     3.692849  s :     3.692849
      pz      :     1.842318  p :     5.448817
      px      :     1.803250
      py      :     1.803250
      dz2     :     0.099919  d :     0.191497
      dxz     :     0.042367
      dyz     :     0.042367
      dx2y2   :     0.003424
      dxy     :     0.003421
      f0      :     0.018422  f :     0.038844
      f+1     :     0.009181
      f-1     :     0.009181
      f+2     :     0.001030
      f-2     :     0.001029
      f+3     :     0.000000
      f-3     :     0.000000

SPIN
  0 Crs       :     0.641255  s :     0.641255
      pz      :     0.026533  p :     0.105835
      px      :     0.039651
      py      :     0.039651
      dz2     :     0.322874  d :     4.110720
      dxz     :     0.898860
      dyz     :     0.898860
      dx2y2   :     0.995060
      dxy     :     0.995066
      f0      :    -0.000680  f :     0.013665
      f+1     :     0.006736
      f-1     :     0.006736
      f+2     :     0.000438
      f-2     :     0.000435
      f+3     :     0.000000
      f-3     :     0.000000
      g0      :    -0.001070  g :     0.001315
      g+1     :     0.001144
      g-1     :     0.001144
      g+2     :     0.000048
      g-2     :     0.000048
      g+3     :     0.000000
      g-3     :     0.000000
      g+4     :     0.000000
      g-4     :     0.000000
  1 F s       :     0.020237  s :     0.020237
      pz      :    -0.010504  p :     0.034976
      px      :     0.022740
      py      :     0.022740
      dz2     :     0.000423  d :     0.056292
      dxz     :     0.024512
      dyz     :     0.024512
      dx2y2   :     0.003424
      dxy     :     0.003421
      f0      :     0.000934  f :     0.015706
      f+1     :     0.006356
      f-1     :     0.006356
      f+2     :     0.001030
      f-2     :     0.001029
      f+3     :     0.000000
      f-3     :     0.000000


                      *****************************
                      * MAYER POPULATION ANALYSIS *
                      *****************************

  NA   - Mulliken gross atomic population
  ZA   - Total nuclear charge
  QA   - Mulliken gross atomic charge
  VA   - Mayer's total valence
  BVA  - Mayer's bonded valence
  FA   - Mayer's free valence

  ATOM       NA         ZA         QA         VA         BVA        FA
  0 Cr    23.4358    24.0000     0.5642     5.6340     0.7300     4.9040
  1 F      9.5642     9.0000    -0.5642     0.7358     0.7300     0.0058

  Mayer bond orders larger than 0.100000
B(  0-Cr,  1-F ) :   0.7300 

-------
TIMINGS
-------

Total SCF time: 0 days 0 hours 0 min 4 sec 

Total time                  ....       4.497 sec
Sum of individual times     ....       4.294 sec  ( 95.5%)

Fock matrix formation       ....       3.825 sec  ( 85.1%)
  Split-RI-J                ....       2.890 sec  ( 75.5% of F)
  XC integration            ....       0.833 sec  ( 21.8% of F)
    Basis function eval.    ....       0.115 sec  ( 13.8% of XC)
    Density eval.           ....       0.125 sec  ( 15.0% of XC)
    XC-Functional eval.     ....       0.025 sec  (  2.9% of XC)
    XC-Potential eval.      ....       0.374 sec  ( 44.8% of XC)
Diagonalization             ....       0.122 sec  (  2.7%)
Density matrix formation    ....       0.015 sec  (  0.3%)
Population analysis         ....       0.007 sec  (  0.1%)
Initial guess               ....       0.127 sec  (  2.8%)
Orbital Transformation      ....       0.000 sec  (  0.0%)
Orbital Orthonormalization  ....       0.000 sec  (  0.0%)
DIIS solution               ....       0.044 sec  (  1.0%)
Grid generation             ....       0.153 sec  (  3.4%)


-------------------------------------------------------------------------------
                          DFT DISPERSION CORRECTION                            
                                                                               
                              DFTD3 V3.1  Rev 1                                
                          USING Becke-Johnson damping                          
-------------------------------------------------------------------------------
The SCAN functional is recognized
Active option DFTDOPT                   ...         4   

molecular C6(AA) [au] = 448.208639 


            DFT-D V3
 parameters
 s6 scaling factor         :     1.0000 
 a1 scaling factor         :     0.5380 
 s8 scaling factor         :     0.0000 
 a2 scaling factor         :     5.4200 
 ad hoc parameters k1-k3   :    16.0000     1.3333    -4.0000 

 Edisp/kcal,au: -0.052551108918  -0.000083745514 
 E6   /kcal   :  -0.052551109 
 E8   /kcal   :  -0.000000000 
 % E8         :   0.000000000 

-------------------------   ----------------
Dispersion correction           -0.000083746
-------------------------   ----------------


-------------------------   --------------------
FINAL SINGLE POINT ENERGY     -1144.507857333261
-------------------------   --------------------


                            ***************************************
                            *     ORCA property calculations      *
                            ***************************************

                                    ---------------------
                                    Active property flags
                                    ---------------------
   (+) Dipole Moment


------------------------------------------------------------------------------
                       ORCA ELECTRIC PROPERTIES CALCULATION
------------------------------------------------------------------------------

Dipole Moment Calculation                       ... on
Quadrupole Moment Calculation                   ... off
Polarizability Calculation                      ... off
GBWName                                         ... 20_CrF.gbw
Electron density file                           ... 20_CrF.scfp
The origin for moment calculation is the CENTER OF MASS  = ( 0.000000,  0.000000  1.104960)

-------------
DIPOLE MOMENT
-------------
                                X             Y             Z
Electronic contribution:     -0.00000       0.00000      -1.98837
Nuclear contribution   :      0.00000       0.00000       0.57299
                        -----------------------------------------
Total Dipole Moment    :     -0.00000       0.00000      -1.41538
                        -----------------------------------------
Magnitude (a.u.)       :      1.41538
Magnitude (Debye)      :      3.59761



--------------------
Rotational spectrum 
--------------------
 
Rotational constants in cm-1:     0.000000     0.379469     0.379469 
Rotational constants in MHz :     0.000000 11376.206933 11376.206933 

 Dipole components along the rotational axes: 
x,y,z [a.u.] :    -1.415381     0.000000    -0.000000 
x,y,z [Debye]:    -3.597612     0.000001    -0.000000 

 

Timings for individual modules:

Sum of individual times         ...        7.502 sec (=   0.125 min)
GTO integral calculation        ...        2.678 sec (=   0.045 min)  35.7 %
SCF iterations                  ...        4.824 sec (=   0.080 min)  64.3 %
                             ****ORCA TERMINATED NORMALLY****
TOTAL RUN TIME: 0 days 0 hours 0 minutes 8 seconds 78 msec
