
                                 *****************
                                 * O   R   C   A *
                                 *****************

           --- An Ab Initio, DFT and Semiempirical electronic structure package ---

                  #######################################################
                  #                        -***-                        #
                  #          Department of theory and spectroscopy      #
                  #               Directorship: Frank Neese             #
                  #        Max Planck Institute fuer Kohlenforschung    #
                  #                Kaiser Wilhelm Platz 1               #
                  #                 D-45470 Muelheim/Ruhr               #
                  #                      Germany                        #
                  #                                                     #
                  #                  All rights reserved                #
                  #                        -***-                        #
                  #######################################################


                         Program Version 4.2.0 -  RELEASE  -


 With contributions from (in alphabetic order):
   Daniel Aravena         : Magnetic Suceptibility
   Michael Atanasov       : Ab Initio Ligand Field Theory (pilot matlab implementation)
   Alexander A. Auer      : GIAO ZORA, VPT2
   Ute Becker             : Parallelization
   Giovanni Bistoni       : ED, misc. LED, open-shell LED, HFLED
   Martin Brehm           : Molecular dynamics
   Dmytro Bykov           : SCF Hessian
   Vijay G. Chilkuri      : MRCI spin determinant printing, contributions to CSF-ICE
   Dipayan Datta          : RHF DLPNO-CCSD density
   Achintya Kumar Dutta   : EOM-CC, STEOM-CC
   Dmitry Ganyushin       : Spin-Orbit,Spin-Spin,Magnetic field MRCI
   Miquel Garcia          : C-PCM Hessian, Gaussian charge scheme
   Yang Guo               : DLPNO-NEVPT2, CIM, IAO-localization
   Andreas Hansen         : Spin unrestricted coupled pair/coupled cluster methods
   Benjamin Helmich-Paris : CASSCF linear response (MC-RPA)
   Lee Huntington         : MR-EOM, pCC
   Robert Izsak           : Overlap fitted RIJCOSX, COSX-SCS-MP3, EOM
   Christian Kollmar      : KDIIS, OOCD, Brueckner-CCSD(T), CCSD density
   Simone Kossmann        : Meta GGA functionals, TD-DFT gradient, OOMP2, MP2 Hessian
   Martin Krupicka        : AUTO-CI
   Lucas Lang             : DCDCAS
   Dagmar Lenk            : GEPOL surface, SMD
   Dimitrios Liakos       : Extrapolation schemes; Compound Job, initial MDCI parallelization
   Dimitrios Manganas     : Further ROCIS development; embedding schemes
   Dimitrios Pantazis     : SARC Basis sets
   Taras Petrenko         : DFT Hessian,TD-DFT gradient, ASA, ECA, R-Raman, ABS, FL, XAS/XES, NRVS
   Peter Pinski           : DLPNO-MP2, DLPNO-MP2 Gradient
   Christoph Reimann      : Effective Core Potentials
   Marius Retegan         : Local ZFS, SOC
   Christoph Riplinger    : Optimizer, TS searches, QM/MM, DLPNO-CCSD(T), (RO)-DLPNO pert. Triples
   Tobias Risthaus        : Range-separated hybrids, TD-DFT gradient, RPA, STAB
   Michael Roemelt        : Original ROCIS implementation
   Masaaki Saitow         : Open-shell DLPNO-CCSD energy and density
   Barbara Sandhoefer     : DKH picture change effects
   Avijit Sen             : IP-ROCIS
   Kantharuban Sivalingam : CASSCF convergence, NEVPT2, FIC-MRCI
   Bernardo de Souza      : ESD, SOC TD-DFT
   Georgi Stoychev        : AutoAux, RI-MP2 NMR
   Willem Van den Heuvel  : Paramagnetic NMR
   Boris Wezisla          : Elementary symmetry handling
   Frank Wennmohs         : Technical directorship


 We gratefully acknowledge several colleagues who have allowed us to
 interface, adapt or use parts of their codes:
   Stefan Grimme, W. Hujo, H. Kruse,             : VdW corrections, initial TS optimization,
                  C. Bannwarth                     DFT functionals, gCP, sTDA/sTD-DF
   Ed Valeev, F. Pavosevic, A. Kumar             : LibInt (2-el integral package), F12 methods
   Garnet Chan, S. Sharma, J. Yang, R. Olivares  : DMRG
   Ulf Ekstrom                                   : XCFun DFT Library
   Mihaly Kallay                                 : mrcc  (arbitrary order and MRCC methods)
   Andreas Klamt, Michael Diedenhofen            : otool_cosmo (COSMO solvation model)
   Jiri Pittner, Ondrej Demel                    : Mk-CCSD
   Frank Weinhold                                : gennbo (NPA and NBO analysis)
   Christopher J. Cramer and Donald G. Truhlar   : smd solvation model
   Lars Goerigk                                  : TD-DFT with DH, B97 family of functionals
   V. Asgeirsson, H. Jonsson                     : NEB implementation
   FAccTs GmbH                                   : IRC, NEB, NEB-TS, Multilevel, MM, QM/MM, CI optimization
   S Lehtola, MJT Oliveira, MAL Marques          : LibXC Library


 Your calculation uses the libint2 library for the computation of 2-el integrals
 For citations please refer to: http://libint.valeyev.net

 Your ORCA version has been built with support for libXC version: 4.2.3
 For citations please refer to: https://tddft.org/programs/libxc/

 This ORCA versions uses:
   CBLAS   interface :  Fast vector & matrix operations
   LAPACKE interface :  Fast linear algebra routines
   SCALAPACK package :  Parallel linear algebra routines


Your calculation utilizes the atom-pairwise dispersion correction
with the Becke-Johnson damping scheme (D3BJ)
Cite in your paper:
S.Grimme, S.Ehrlich, L.Goerigk, J Comput Chem, (2011), 32, 1456–1465 
S.Grimme, J.Antony, S.Ehrlich and H.Krieg, J.Chem.Phys., 132, (2010), 154104 
   

----- Orbital basis set information -----
Your calculation utilizes the basis: aug-cc-pVTZ 
    H, B-Ne : Obtained from the ccRepo (grant-hill.group.shef.ac.uk/ccrepo) Feb. 2017
              R. A. Kendall, T. H. Dunning, Jr., R. J. Harrison, J. Chem. Phys. 96, 6796 (1992)
         He : Obtained from the ccRepo (grant-hill.group.shef.ac.uk/ccrepo) Feb. 2017
              D. E. Woon, T. H. Dunning, Jr., J. Chem. Phys. 100, 2975 (1994)
  Li-Be, Na : Obtained from the ccRepo (grant-hill.group.shef.ac.uk/ccrepo) Feb. 2017
              B. P. Prascher, D. E. Woon, K. A. Peterson, T. H. Dunning, Jr., A. K. Wilson, Theor. Chem. Acc. 128, 69 (2011)
         Mg : Obtained from the Peterson Research Group Website (tyr0.chem.wsu.edu/~kipeters) Feb. 2017
              B. P. Prascher, D. E. Woon, K. A. Peterson, T. H. Dunning, Jr., A. K. Wilson, Theor. Chem. Acc. 128, 69 (2011)
      Al-Ar : Obtained from the ccRepo (grant-hill.group.shef.ac.uk/ccrepo) Feb. 2017
              D. E. Woon, T. H. Dunning, Jr., J. Chem. Phys. 98, 1358 (1993)
      Sc-Zn : Obtained from the ccRepo (grant-hill.group.shef.ac.uk/ccrepo) Feb. 2017
              N. B. Balabanov, K. A. Peterson, J. Chem. Phys. 123, 064107 (2005)
              N. B. Balabanov, K. A. Peterson, J. Chem. Phys. 125, 074110 (2006)
      Ga-Kr : Obtained from the ccRepo (grant-hill.group.shef.ac.uk/ccrepo) Feb. 2017
              A. K. Wilson, D. E. Woon, K. A. Peterson, T. H. Dunning, Jr., J. Chem. Phys. 110, 7667 (1999)
     Ag, Au : Obtained from the Peterson Research Group Website (tyr0.chem.wsu.edu/~kipeters) Feb. 2017
              K. A. Peterson, C. Puzzarini, Theor. Chem. Acc. 114, 283 (2005)

----- AuxJ basis set information -----
Your calculation utilizes the auxiliary basis: def2/J
   F. Weigend, Phys. Chem. Chem. Phys. 8, 1057 (2006).

================================================================================
                                        WARNINGS
                       Please study these warnings very carefully!
================================================================================


WARNING: your system is open-shell and RHF/RKS was chosen
  ===> : WILL SWITCH to UHF/UKS


WARNING: The SCAN functional is very grid-sensitive!
         Use at least GRID5 and a higher intacc

INFO   : the flag for use of LIBINT has been found!

================================================================================
                                       INPUT FILE
================================================================================
NAME = 21_CrCl.in
|  1> #
|  2> # 21_CrCl scanfunc/aug-cc-pvtz
|  3> #
|  4> ! scanfunc d3bj aug-cc-pvtz def2/j grid4 nofinalgrid
|  5> 
|  6> *xyz 0 6
|  7>   Cr  0.00000000000000      0.00000000000000     -0.09885250745251
|  8>   Cl  0.00000000000000      0.00000000000000      2.09885250745250
|  9> *
| 10> 
| 11> %pal
| 12> nprocs 24
| 13> end
| 14> 
| 15> 
| 16>                          ****END OF INPUT****
================================================================================

                       ****************************
                       * Single Point Calculation *
                       ****************************

---------------------------------
CARTESIAN COORDINATES (ANGSTROEM)
---------------------------------
  Cr     0.000000    0.000000   -0.098853
  Cl     0.000000    0.000000    2.098853

----------------------------
CARTESIAN COORDINATES (A.U.)
----------------------------
  NO LB      ZA    FRAG     MASS         X           Y           Z
   0 Cr   24.0000    0    52.000    0.000000    0.000000   -0.186804
   1 Cl   17.0000    0    35.453    0.000000    0.000000    3.966256

--------------------------------
INTERNAL COORDINATES (ANGSTROEM)
--------------------------------
 Cr     0   0   0     0.000000000000     0.00000000     0.00000000
 Cl     1   0   0     2.197705014905     0.00000000     0.00000000

---------------------------
INTERNAL COORDINATES (A.U.)
---------------------------
 Cr     0   0   0     0.000000000000     0.00000000     0.00000000
 Cl     1   0   0     4.153060601316     0.00000000     0.00000000

---------------------
BASIS SET INFORMATION
---------------------
There are 2 groups of distinct atoms

 Group   1 Type Cr  : 116s77p23d3f2g contracted to 8s7p5d3f2g pattern {19191919191911/151515151511/77711/111/11}
 Group   2 Type Cl  : 42s17p3d2f contracted to 6s5p3d2f pattern {131313111/77111/111/11}

Atom   0Cr   basis set group =>   1
Atom   1Cl   basis set group =>   2
---------------------------------
AUXILIARY/J BASIS SET INFORMATION
---------------------------------
There are 2 groups of distinct atoms

 Group   1 Type Cr  : 19s5p5d3f3g contracted to 8s5p5d2f3g pattern {121111111/11111/11111/21/111}
 Group   2 Type Cl  : 14s5p5d2f1g contracted to 8s4p3d1f1g pattern {71111111/2111/311/2/1}

Atom   0Cr   basis set group =>   1
Atom   1Cl   basis set group =>   2


           ************************************************************
           *        Program running with 24 parallel MPI-processes    *
           *              working on a common directory               *
           ************************************************************
------------------------------------------------------------------------------
                           ORCA GTO INTEGRAL CALCULATION
                           -- RI-GTO INTEGRALS CHOSEN --
------------------------------------------------------------------------------

                         BASIS SET STATISTICS AND STARTUP INFO

Gaussian basis set:
 # of primitive gaussian shells          ...  285
 # of primitive gaussian functions       ...  623
 # of contracted shells                  ...   41
 # of contracted basis functions         ...  143
 Highest angular momentum                ...    4
 Maximum contraction depth               ...   19
Auxiliary gaussian basis set:
 # of primitive gaussian shells          ...   62
 # of primitive gaussian functions       ...  184
 # of contracted shells                  ...   40
 # of contracted aux-basis functions     ...  140
 Highest angular momentum                ...    4
 Maximum contraction depth               ...   12
Ratio of auxiliary to basis functions    ...  0.98
Integral package used                  ... LIBINT
 One Electron integrals                  ... done
 Ordering auxiliary basis shells         ... done
 Integral threshhold             Thresh  ...  1.000e-10
 Primitive cut-off               TCut    ...  1.000e-11
 Pre-screening matrix                    ... done
 Shell pair data                         ... 
 Ordering of the shell pairs             ... done (   0.000 sec) 861 of 861 pairs
 Determination of significant pairs      ... done (   0.000 sec)
 Creation of shell pair data             ... done (   0.001 sec)
 Storage of shell pair data              ... done (   0.006 sec)
 Shell pair data done in (   0.007 sec)
 Computing two index integrals           ... done
 Cholesky decomposition of the V-matrix  ... done


Timings:
 Total evaluation time                   ...   2.653 sec (  0.044 min)
 One electron matrix time                ...   0.050 sec (  0.001 min) =  1.9%
 Schwartz matrix evaluation time         ...   2.567 sec (  0.043 min) = 96.8%
 Two index repulsion integral time       ...   0.001 sec (  0.000 min) =  0.0%
 Cholesky decomposition of V             ...   0.001 sec (  0.000 min) =  0.0%
 Three index repulsion integral time     ...   0.000 sec (  0.000 min) =  0.0%



           ************************************************************
           *        Program running with 24 parallel MPI-processes    *
           *              working on a common directory               *
           ************************************************************
-------------------------------------------------------------------------------
                                 ORCA SCF
-------------------------------------------------------------------------------

------------
SCF SETTINGS
------------
Hamiltonian:
 Density Functional     Method          .... DFT(GTOs)
 Exchange Functional    Exchange        .... SCAN
 Correlation Functional Correlation     .... SCAN
 Gradients option       PostSCFGGA      .... off
   Density functional embedding theory  .... OFF
   NL short-range parameter             ....  6.400000
 RI-approximation to the Coulomb term is turned on
   Number of auxiliary basis functions  .... 140


General Settings:
 Integral files         IntName         .... 21_CrCl
 Hartree-Fock type      HFTyp           .... UHF
 Total Charge           Charge          ....    0
 Multiplicity           Mult            ....    6
 Number of Electrons    NEL             ....   41
 Basis Dimension        Dim             ....  143
 Nuclear Repulsion      ENuc            ....     98.2408009820 Eh

Convergence Acceleration:
 DIIS                   CNVDIIS         .... on
   Start iteration      DIISMaxIt       ....    12
   Startup error        DIISStart       ....  0.200000
   # of expansion vecs  DIISMaxEq       ....     5
   Bias factor          DIISBfac        ....   1.050
   Max. coefficient     DIISMaxC        ....  10.000
 Newton-Raphson         CNVNR           .... off
 SOSCF                  CNVSOSCF        .... off
 Level Shifting         CNVShift        .... on
   Level shift para.    LevelShift      ....    0.2500
   Turn off err/grad.   ShiftErr        ....    0.0010
 Zerner damping         CNVZerner       .... off
 Static damping         CNVDamp         .... on
   Fraction old density DampFac         ....    0.7000
   Max. Damping (<1)    DampMax         ....    0.9800
   Min. Damping (>=0)   DampMin         ....    0.0000
   Turn off err/grad.   DampErr         ....    0.1000
 Fernandez-Rico         CNVRico         .... off

SCF Procedure:
 Maximum # iterations   MaxIter         ....   125
 SCF integral mode      SCFMode         .... Direct
   Integral package                     .... LIBINT
 Reset frequency        DirectResetFreq ....    20
 Integral Threshold     Thresh          ....  1.000e-10 Eh
 Primitive CutOff       TCut            ....  1.000e-11 Eh

Convergence Tolerance:
 Convergence Check Mode ConvCheckMode   .... Total+1el-Energy
 Convergence forced     ConvForced      .... 0
 Energy Change          TolE            ....  1.000e-06 Eh
 1-El. energy change                    ....  1.000e-03 Eh
 DIIS Error             TolErr          ....  1.000e-06


Diagonalization of the overlap matrix:
Smallest eigenvalue                        ... 9.755e-05
Time for diagonalization                   ...    0.005 sec
Threshold for overlap eigenvalues          ... 1.000e-08
Number of eigenvalues below threshold      ... 0
Time for construction of square roots      ...    0.002 sec
Total time needed                          ...    0.008 sec

-------------------
DFT GRID GENERATION
-------------------

General Integration Accuracy     IntAcc      ...  4.670
Radial Grid Type                 RadialGrid  ... Gauss-Chebyshev
Angular Grid (max. acc.)         AngularGrid ... Lebedev-302
Angular grid pruning method      GridPruning ... 3 (G Style)
Weight generation scheme         WeightScheme... Becke
Basis function cutoff            BFCut       ...    1.0000e-10
Integration weight cutoff        WCut        ...    1.0000e-14
Grids for H and He will be reduced by one unit

# of grid points (after initial pruning)     ...  16402 (   0.0 sec)
# of grid points (after weights+screening)   ...  16375 (   0.0 sec)
nearest neighbour list constructed           ...    0.0 sec
Grid point re-assignment to atoms done       ...    0.0 sec
Grid point division into batches done        ...    0.1 sec
Reduced shell lists constructed in    0.1 sec

Total number of grid points                  ...    16375
Total number of batches                      ...      257
Average number of points per batch           ...       63
Average number of grid points per atom       ...     8188
Average number of shells per batch           ...    14.08 (34.35%)
Average number of basis functions per batch  ...    35.42 (24.77%)
Average number of large shells per batch     ...     7.25 (51.48%)
Average number of large basis fcns per batch ...    19.58 (55.29%)
Maximum spatial batch extension              ...  24.49, 24.19, 18.13 au
Average spatial batch extension              ...   0.85,  0.83,  0.66 au

Time for grid setup =    0.163 sec

------------------------------
INITIAL GUESS: MODEL POTENTIAL
------------------------------
Loading Hartree-Fock densities                     ... done
Calculating cut-offs                               ... done
Setting up the integral package                    ... done
Initializing the effective Hamiltonian             ... done
Starting the Coulomb interaction                   ... done (   0.0 sec)
Reading the grid                                   ... done
Mapping shells                                     ... done
Starting the XC term evaluation                    ... done (   0.0 sec)
  promolecular density results
     # of electrons  =     41.000003241
     EX              =    -84.104554446
     EC              =     -0.713498167
     EX+EC           =    -84.818052613
Transforming the Hamiltonian                       ... done (   0.0 sec)
Diagonalizing the Hamiltonian                      ... done (   0.0 sec)
Back transforming the eigenvectors                 ... done (   0.0 sec)
Now organizing SCF variables                       ... done
                      ------------------
                      INITIAL GUESS DONE (   0.3 sec)
                      ------------------
--------------
SCF ITERATIONS
--------------
ITER       Energy         Delta-E        Max-DP      RMS-DP      [F,P]     Damp
               ***  Starting incremental Fock matrix formation  ***
  0  -1504.4596682967   0.000000000000 0.43821913  0.00815698  0.3932544 0.7000
  1  -1504.6674457005  -0.207777403888 0.21239030  0.00445245  0.0942354 0.7000
                               ***Turning on DIIS***
  2  -1504.7057791976  -0.038333497062 0.39722684  0.00694424  0.0648590 0.0000
  3  -1504.8546339375  -0.148854739912 0.06071037  0.00134687  0.0593470 0.0000
  4  -1504.8688921415  -0.014258203997 0.04404000  0.00090403  0.0432040 0.0000
  5  -1504.8742293346  -0.005337193116 0.02628562  0.00047550  0.0141255 0.0000
  6  -1504.8754404309  -0.001211096269 0.00844799  0.00014858  0.0039138 0.0000
  7  -1504.8757246454  -0.000284214460 0.00429135  0.00007190  0.0023649 0.0000
  8  -1504.8758300143  -0.000105368941 0.00426127  0.00004874  0.0014099 0.0000
  9  -1504.8758770106  -0.000046996328 0.01749348  0.00013429  0.0009892 0.0000
 10  -1504.8759154778  -0.000038467155 0.00040595  0.00000785  0.0018829 0.0000
 11  -1504.8759210481  -0.000005570344 0.00048165  0.00000798  0.0013359 0.0000
 12  -1504.8759254232  -0.000004375054 0.00079175  0.00001373  0.0007309 0.0000
 13  -1504.8759276754  -0.000002252216 0.00107324  0.00000745  0.0003077 0.0000
 14  -1504.8759282818  -0.000000606401 0.00018268  0.00000301  0.0001760 0.0000
                 **** Energy Check signals convergence ****

               *****************************************************
               *                     SUCCESS                       *
               *           SCF CONVERGED AFTER  15 CYCLES          *
               *****************************************************


----------------
TOTAL SCF ENERGY
----------------

Total Energy       :        -1504.87592845 Eh          -40949.75586 eV

Components:
Nuclear Repulsion  :           98.24080098 Eh            2673.26810 eV
Electronic Energy  :        -1603.11672943 Eh          -43623.02396 eV
One Electron Energy:        -2270.18163544 Eh          -61774.78287 eV
Two Electron Energy:          667.06490601 Eh           18151.75891 eV

Virial components:
Potential Energy   :        -3007.28132027 Eh          -81832.28500 eV
Kinetic Energy     :         1502.40539182 Eh           40882.52914 eV
Virial Ratio       :            2.00164439


DFT components:
N(Alpha)           :       23.000000661571 electrons
N(Beta)            :       17.999999196371 electrons
N(Total)           :       40.999999857942 electrons
E(X)               :      -75.495312246623 Eh       
E(C)               :       -1.660324675203 Eh       
E(XC)              :      -77.155636921826 Eh       
DFET-embed. en.    :        0.000000000000 Eh       

---------------
SCF CONVERGENCE
---------------

  Last Energy change         ...   -1.6922e-07  Tolerance :   1.0000e-06
  Last MAX-Density change    ...    8.7076e-05  Tolerance :   1.0000e-05
  Last RMS-Density change    ...    9.5529e-07  Tolerance :   1.0000e-06
  Last DIIS Error            ...    5.4631e-05  Tolerance :   1.0000e-06

             **** THE GBW FILE WAS UPDATED (21_CrCl.gbw) ****
             **** DENSITY FILE WAS UPDATED (21_CrCl.scfp) ****
             **** ENERGY FILE WAS UPDATED (21_CrCl.en.tmp) ****
----------------------
UHF SPIN CONTAMINATION
----------------------

Warning: in a DFT calculation there is little theoretical justification to 
         calculate <S**2> as in Hartree-Fock theory. We will do it anyways
         but you should keep in mind that the values have only limited relevance

Expectation value of <S**2>     :     8.778515
Ideal value S*(S+1) for S=2.5   :     8.750000
Deviation                       :     0.028515

             **** THE GBW FILE WAS UPDATED (21_CrCl.gbw) ****
             **** DENSITY FILE WAS UPDATED (21_CrCl.scfp) ****
----------------
ORBITAL ENERGIES
----------------
                 SPIN UP ORBITALS
  NO   OCC          E(Eh)            E(eV) 
   0   1.0000    -215.074912     -5852.4859 
   1   1.0000    -101.233985     -2754.7168 
   2   1.0000     -24.615546      -669.8231 
   3   1.0000     -20.829242      -566.7925 
   4   1.0000     -20.827555      -566.7466 
   5   1.0000     -20.827555      -566.7466 
   6   1.0000      -9.289886      -252.7906 
   7   1.0000      -7.044756      -191.6976 
   8   1.0000      -7.042666      -191.6407 
   9   1.0000      -7.042666      -191.6407 
  10   1.0000      -2.886845       -78.5551 
  11   1.0000      -1.830631       -49.8140 
  12   1.0000      -1.824944       -49.6592 
  13   1.0000      -1.824944       -49.6592 
  14   1.0000      -0.723025       -19.6745 
  15   1.0000      -0.311590        -8.4788 
  16   1.0000      -0.282324        -7.6824 
  17   1.0000      -0.282324        -7.6824 
  18   1.0000      -0.206390        -5.6161 
  19   1.0000      -0.206390        -5.6161 
  20   1.0000      -0.203483        -5.5371 
  21   1.0000      -0.203461        -5.5365 
  22   1.0000      -0.194856        -5.3023 
  23   0.0000      -0.130553        -3.5525 
  24   0.0000      -0.043065        -1.1719 
  25   0.0000      -0.043065        -1.1719 
  26   0.0000       0.009602         0.2613 
  27   0.0000       0.014838         0.4038 
  28   0.0000       0.029267         0.7964 
  29   0.0000       0.029267         0.7964 
  30   0.0000       0.055344         1.5060 
  31   0.0000       0.057182         1.5560 
  32   0.0000       0.057190         1.5562 
  33   0.0000       0.060494         1.6461 
  34   0.0000       0.060495         1.6461 
  35   0.0000       0.068171         1.8550 
  36   0.0000       0.114344         3.1115 
  37   0.0000       0.141175         3.8416 
  38   0.0000       0.141175         3.8416 
  39   0.0000       0.141751         3.8572 
  40   0.0000       0.163360         4.4453 
  41   0.0000       0.163360         4.4453 
  42   0.0000       0.173848         4.7306 
  43   0.0000       0.187049         5.0899 
  44   0.0000       0.187071         5.0905 
  45   0.0000       0.199728         5.4349 
  46   0.0000       0.199729         5.4349 
  47   0.0000       0.241792         6.5795 
  48   0.0000       0.273944         7.4544 
  49   0.0000       0.273953         7.4546 
  50   0.0000       0.303908         8.2698 
  51   0.0000       0.356135         9.6909 
  52   0.0000       0.356135         9.6909 
  53   0.0000       0.390896        10.6368 
  54   0.0000       0.505536        13.7563 
  55   0.0000       0.505536        13.7563 
  56   0.0000       0.572883        15.5889 
  57   0.0000       0.572883        15.5889 
  58   0.0000       0.574230        15.6256 
  59   0.0000       0.574296        15.6274 
  60   0.0000       0.594461        16.1761 
  61   0.0000       0.594461        16.1761 
  62   0.0000       0.609529        16.5861 
  63   0.0000       0.642217        17.4756 
  64   0.0000       0.683389        18.5960 
  65   0.0000       0.683389        18.5960 
  66   0.0000       0.757811        20.6211 
  67   0.0000       0.758081        20.6284 
  68   0.0000       0.783190        21.3117 
  69   0.0000       0.783190        21.3117 
  70   0.0000       0.790459        21.5095 
  71   0.0000       0.790539        21.5117 
  72   0.0000       0.798734        21.7347 
  73   0.0000       0.835142        22.7254 
  74   0.0000       0.933618        25.4050 
  75   0.0000       0.933618        25.4050 
  76   0.0000       0.988013        26.8852 
  77   0.0000       1.067274        29.0420 
  78   0.0000       1.067274        29.0420 
  79   0.0000       1.130873        30.7726 
  80   0.0000       1.190324        32.3904 
  81   0.0000       1.190745        32.4018 
  82   0.0000       1.467490        39.9324 
  83   0.0000       1.467490        39.9324 
  84   0.0000       1.634348        44.4729 
  85   0.0000       1.739018        47.3211 
  86   0.0000       1.739018        47.3211 
  87   0.0000       1.758690        47.8564 
  88   0.0000       1.758782        47.8589 
  89   0.0000       1.761973        47.9457 
  90   0.0000       1.858269        50.5661 
  91   0.0000       1.858269        50.5661 
  92   0.0000       1.980013        53.8789 
  93   0.0000       2.161609        58.8204 
  94   0.0000       2.161983        58.8306 
  95   0.0000       2.171343        59.0853 
  96   0.0000       2.171343        59.0853 
  97   0.0000       2.225911        60.5701 
  98   0.0000       2.226022        60.5731 
  99   0.0000       2.267351        61.6978 
 100   0.0000       2.267352        61.6978 
 101   0.0000       2.288218        62.2656 
 102   0.0000       2.303601        62.6842 
 103   0.0000       2.303601        62.6842 
 104   0.0000       2.373708        64.5919 
 105   0.0000       2.374213        64.6056 
 106   0.0000       2.437318        66.3228 
 107   0.0000       2.439914        66.3934 
 108   0.0000       2.439914        66.3934 
 109   0.0000       2.626951        71.4830 
 110   0.0000       2.699619        73.4604 
 111   0.0000       2.699619        73.4604 
 112   0.0000       2.856410        77.7269 
 113   0.0000       2.856410        77.7269 
 114   0.0000       2.922938        79.5372 
 115   0.0000       2.923644        79.5564 
 116   0.0000       2.951735        80.3208 
 117   0.0000       3.098346        84.3103 
 118   0.0000       3.098346        84.3103 
 119   0.0000       3.287769        89.4647 
 120   0.0000       3.287854        89.4671 
 121   0.0000       3.414101        92.9024 
 122   0.0000       3.520984        95.8108 
 123   0.0000       3.520984        95.8108 
 124   0.0000       4.278515       116.4243 
 125   0.0000       6.107616       166.1967 
 126   0.0000       6.135478       166.9548 
 127   0.0000       6.135543       166.9566 
 128   0.0000       6.135543       166.9566 
 129   0.0000       6.135693       166.9607 
 130   0.0000       6.203040       168.7933 
 131   0.0000       6.203040       168.7933 
 132   0.0000       6.461182       175.8177 
 133   0.0000       6.680202       181.7775 
 134   0.0000       6.680202       181.7775 
 135   0.0000       6.689792       182.0385 
 136   0.0000       6.690299       182.0523 
 137   0.0000       6.739965       183.4038 
 138   0.0000       6.740418       183.4161 
 139   0.0000       6.871034       186.9703 
 140   0.0000       6.871034       186.9703 
 141   0.0000       7.020026       191.0246 
 142   0.0000       7.665579       208.5910 

                 SPIN DOWN ORBITALS
  NO   OCC          E(Eh)            E(eV) 
   0   1.0000    -215.077095     -5852.5453 
   1   1.0000    -101.234751     -2754.7376 
   2   1.0000     -24.471404      -665.9008 
   3   1.0000     -20.740953      -564.3900 
   4   1.0000     -20.733571      -564.1891 
   5   1.0000     -20.733571      -564.1891 
   6   1.0000      -9.287977      -252.7387 
   7   1.0000      -7.045942      -191.7298 
   8   1.0000      -7.042180      -191.6275 
   9   1.0000      -7.042180      -191.6275 
  10   1.0000      -2.714576       -73.8674 
  11   1.0000      -1.664553       -45.2948 
  12   1.0000      -1.642445       -44.6932 
  13   1.0000      -1.642445       -44.6932 
  14   1.0000      -0.728402       -19.8208 
  15   1.0000      -0.305587        -8.3154 
  16   1.0000      -0.269098        -7.3225 
  17   1.0000      -0.269098        -7.3225 
  18   0.0000      -0.063892        -1.7386 
  19   0.0000      -0.037194        -1.0121 
  20   0.0000      -0.022426        -0.6102 
  21   0.0000      -0.022426        -0.6102 
  22   0.0000      -0.016556        -0.4505 
  23   0.0000      -0.016551        -0.4504 
  24   0.0000       0.009530         0.2593 
  25   0.0000       0.009531         0.2593 
  26   0.0000       0.019868         0.5406 
  27   0.0000       0.024295         0.6611 
  28   0.0000       0.050617         1.3774 
  29   0.0000       0.050617         1.3774 
  30   0.0000       0.064271         1.7489 
  31   0.0000       0.064273         1.7489 
  32   0.0000       0.064408         1.7526 
  33   0.0000       0.066033         1.7969 
  34   0.0000       0.066035         1.7969 
  35   0.0000       0.079728         2.1695 
  36   0.0000       0.137208         3.7336 
  37   0.0000       0.153105         4.1662 
  38   0.0000       0.153105         4.1662 
  39   0.0000       0.162033         4.4091 
  40   0.0000       0.186323         5.0701 
  41   0.0000       0.186323         5.0701 
  42   0.0000       0.214600         5.8395 
  43   0.0000       0.231631         6.3030 
  44   0.0000       0.231635         6.3031 
  45   0.0000       0.242360         6.5950 
  46   0.0000       0.242361         6.5950 
  47   0.0000       0.249630         6.7928 
  48   0.0000       0.294024         8.0008 
  49   0.0000       0.294034         8.0011 
  50   0.0000       0.334748         9.1090 
  51   0.0000       0.371108        10.0984 
  52   0.0000       0.371108        10.0984 
  53   0.0000       0.407539        11.0897 
  54   0.0000       0.583837        15.8870 
  55   0.0000       0.583837        15.8870 
  56   0.0000       0.616693        16.7811 
  57   0.0000       0.616693        16.7811 
  58   0.0000       0.634504        17.2657 
  59   0.0000       0.634514        17.2660 
  60   0.0000       0.677848        18.4452 
  61   0.0000       0.680487        18.5170 
  62   0.0000       0.680487        18.5170 
  63   0.0000       0.700192        19.0532 
  64   0.0000       0.740794        20.1580 
  65   0.0000       0.740794        20.1580 
  66   0.0000       0.777612        21.1599 
  67   0.0000       0.777655        21.1611 
  68   0.0000       0.813483        22.1360 
  69   0.0000       0.813483        22.1360 
  70   0.0000       0.835365        22.7314 
  71   0.0000       0.849942        23.1281 
  72   0.0000       0.903977        24.5985 
  73   0.0000       0.904085        24.6014 
  74   0.0000       0.995315        27.0839 
  75   0.0000       0.995315        27.0839 
  76   0.0000       1.013465        27.5778 
  77   0.0000       1.083587        29.4859 
  78   0.0000       1.083587        29.4859 
  79   0.0000       1.194471        32.5032 
  80   0.0000       1.218026        33.1442 
  81   0.0000       1.218840        33.1663 
  82   0.0000       1.516581        41.2683 
  83   0.0000       1.516581        41.2683 
  84   0.0000       1.730324        47.0845 
  85   0.0000       1.862616        50.6844 
  86   0.0000       1.934963        52.6530 
  87   0.0000       1.935064        52.6558 
  88   0.0000       1.935064        52.6558 
  89   0.0000       1.935259        52.6611 
  90   0.0000       1.985133        54.0182 
  91   0.0000       1.985133        54.0182 
  92   0.0000       2.049353        55.7657 
  93   0.0000       2.267764        61.7090 
  94   0.0000       2.267991        61.7152 
  95   0.0000       2.302963        62.6668 
  96   0.0000       2.302964        62.6668 
  97   0.0000       2.306341        62.7587 
  98   0.0000       2.306465        62.7621 
  99   0.0000       2.342670        63.7473 
 100   0.0000       2.342670        63.7473 
 101   0.0000       2.367488        64.4226 
 102   0.0000       2.406829        65.4932 
 103   0.0000       2.406829        65.4932 
 104   0.0000       2.452153        66.7265 
 105   0.0000       2.452153        66.7265 
 106   0.0000       2.469287        67.1927 
 107   0.0000       2.469793        67.2065 
 108   0.0000       2.506441        68.2037 
 109   0.0000       2.689908        73.1961 
 110   0.0000       2.753351        74.9225 
 111   0.0000       2.753351        74.9225 
 112   0.0000       2.870616        78.1134 
 113   0.0000       2.870616        78.1134 
 114   0.0000       2.938122        79.9504 
 115   0.0000       2.938460        79.9596 
 116   0.0000       2.968188        80.7685 
 117   0.0000       3.136649        85.3526 
 118   0.0000       3.136649        85.3526 
 119   0.0000       3.444707        93.7352 
 120   0.0000       3.444751        93.7364 
 121   0.0000       3.490832        94.9904 
 122   0.0000       3.685167       100.2785 
 123   0.0000       3.685167       100.2785 
 124   0.0000       4.393296       119.5477 
 125   0.0000       6.142365       167.1423 
 126   0.0000       6.368840       173.3050 
 127   0.0000       6.368840       173.3050 
 128   0.0000       6.376163       173.5042 
 129   0.0000       6.376213       173.5056 
 130   0.0000       6.429593       174.9581 
 131   0.0000       6.429593       174.9581 
 132   0.0000       6.632548       180.4808 
 133   0.0000       6.911347       188.0673 
 134   0.0000       6.912323       188.0939 
 135   0.0000       6.916076       188.1960 
 136   0.0000       6.916076       188.1960 
 137   0.0000       6.948972       189.0911 
 138   0.0000       6.948985       189.0915 
 139   0.0000       7.080813       192.6787 
 140   0.0000       7.080813       192.6787 
 141   0.0000       7.200319       195.9306 
 142   0.0000       7.874889       214.2866 

                    ********************************
                    * MULLIKEN POPULATION ANALYSIS *
                    ********************************

--------------------------------------------
MULLIKEN ATOMIC CHARGES AND SPIN POPULATIONS
--------------------------------------------
   0 Cr:    0.347985    5.101481
   1 Cl:   -0.347985   -0.101481
Sum of atomic charges         :    0.0000000
Sum of atomic spin populations:    5.0000000

-----------------------------------------------------
MULLIKEN REDUCED ORBITAL CHARGES AND SPIN POPULATIONS
-----------------------------------------------------
CHARGE
  0 Crs       :     6.707567  s :     6.707567
      pz      :     4.097487  p :    12.199553
      px      :     4.051033
      py      :     4.051033
      dz2     :     0.680223  d :     4.720484
      dxz     :     1.021164
      dyz     :     1.021164
      dx2y2   :     0.998967
      dxy     :     0.998966
      f0      :     0.007753  f :     0.022293
      f+1     :     0.007169
      f-1     :     0.007169
      f+2     :     0.000101
      f-2     :     0.000101
      f+3     :     0.000000
      f-3     :     0.000000
      g0      :     0.000802  g :     0.002117
      g+1     :     0.000656
      g-1     :     0.000656
      g+2     :     0.000002
      g-2     :     0.000002
      g+3     :     0.000000
      g-3     :     0.000000
      g+4     :     0.000000
      g-4     :     0.000000
  1 Cls       :     5.906938  s :     5.906938
      pz      :     3.593886  p :    11.415389
      px      :     3.910752
      py      :     3.910752
      dz2     :     0.005373  d :     0.023501
      dxz     :     0.008374
      dyz     :     0.008374
      dx2y2   :     0.000690
      dxy     :     0.000690
      f0      :    -0.000030  f :     0.002157
      f+1     :     0.000853
      f-1     :     0.000853
      f+2     :     0.000240
      f-2     :     0.000241
      f+3     :     0.000000
      f-3     :     0.000000

SPIN
  0 Crs       :     0.591303  s :     0.591303
      pz      :     0.014838  p :     0.071451
      px      :     0.028307
      py      :     0.028307
      dz2     :     0.531324  d :     4.440785
      dxz     :     0.955764
      dyz     :     0.955764
      dx2y2   :     0.998967
      dxy     :     0.998966
      f0      :    -0.001129  f :    -0.001585
      f+1     :    -0.000329
      f-1     :    -0.000329
      f+2     :     0.000101
      f-2     :     0.000101
      f+3     :     0.000000
      f-3     :     0.000000
      g0      :    -0.000272  g :    -0.000473
      g+1     :    -0.000102
      g-1     :    -0.000102
      g+2     :     0.000002
      g-2     :     0.000002
      g+3     :     0.000000
      g-3     :     0.000000
      g+4     :     0.000000
      g-4     :     0.000000
  1 Cls       :     0.001570  s :     0.001570
      pz      :    -0.140030  p :    -0.113934
      px      :     0.013048
      py      :     0.013048
      dz2     :     0.002536  d :     0.010308
      dxz     :     0.003196
      dyz     :     0.003196
      dx2y2   :     0.000690
      dxy     :     0.000690
      f0      :    -0.000141  f :     0.000575
      f+1     :     0.000117
      f-1     :     0.000117
      f+2     :     0.000240
      f-2     :     0.000241
      f+3     :    -0.000000
      f-3     :    -0.000000


                     *******************************
                     * LOEWDIN POPULATION ANALYSIS *
                     *******************************

-------------------------------------------
LOEWDIN ATOMIC CHARGES AND SPIN POPULATIONS
-------------------------------------------
   0 Cr:    0.005724    4.906807
   1 Cl:   -0.005724    0.093193

----------------------------------------------------
LOEWDIN REDUCED ORBITAL CHARGES AND SPIN POPULATIONS
----------------------------------------------------
CHARGE
  0 Crs       :     6.519805  s :     6.519805
      pz      :     4.175795  p :    12.324750
      px      :     4.074478
      py      :     4.074478
      dz2     :     0.804004  d :     4.902461
      dxz     :     1.055587
      dyz     :     1.055587
      dx2y2   :     0.993643
      dxy     :     0.993640
      f0      :     0.081871  f :     0.228449
      f+1     :     0.072935
      f-1     :     0.072935
      f+2     :     0.000354
      f-2     :     0.000354
      f+3     :     0.000000
      f-3     :     0.000000
      g0      :     0.008038  g :     0.018811
      g+1     :     0.005371
      g-1     :     0.005371
      g+2     :     0.000016
      g-2     :     0.000016
      g+3     :     0.000000
      g-3     :     0.000000
      g+4     :     0.000000
      g-4     :     0.000000
  1 Cls       :     5.587515  s :     5.587515
      pz      :     3.676803  p :    11.143685
      px      :     3.733441
      py      :     3.733441
      dz2     :     0.104484  d :     0.185871
      dxz     :     0.037467
      dyz     :     0.037467
      dx2y2   :     0.003226
      dxy     :     0.003228
      f0      :     0.041686  f :     0.088652
      f+1     :     0.020721
      f-1     :     0.020721
      f+2     :     0.002760
      f-2     :     0.002763
      f+3     :     0.000000
      f-3     :     0.000000

SPIN
  0 Crs       :     0.501195  s :     0.501195
      pz      :     0.002374  p :     0.082403
      px      :     0.040015
      py      :     0.040015
      dz2     :     0.511640  d :     4.318794
      dxz     :     0.909935
      dyz     :     0.909935
      dx2y2   :     0.993643
      dxy     :     0.993640
      f0      :    -0.001701  f :     0.004850
      f+1     :     0.002921
      f-1     :     0.002921
      f+2     :     0.000354
      f-2     :     0.000354
      f+3     :     0.000000
      f-3     :     0.000000
      g0      :    -0.000725  g :    -0.000434
      g+1     :     0.000130
      g-1     :     0.000130
      g+2     :     0.000016
      g-2     :     0.000016
      g+3     :     0.000000
      g-3     :     0.000000
      g+4     :     0.000000
      g-4     :     0.000000
  1 Cls       :     0.014822  s :     0.014822
      pz      :    -0.037938  p :    -0.015561
      px      :     0.011189
      py      :     0.011189
      dz2     :     0.008890  d :     0.060211
      dxz     :     0.022433
      dyz     :     0.022433
      dx2y2   :     0.003226
      dxy     :     0.003228
      f0      :     0.001443  f :     0.033720
      f+1     :     0.013377
      f-1     :     0.013377
      f+2     :     0.002760
      f-2     :     0.002763
      f+3     :    -0.000000
      f-3     :    -0.000000


                      *****************************
                      * MAYER POPULATION ANALYSIS *
                      *****************************

  NA   - Mulliken gross atomic population
  ZA   - Total nuclear charge
  QA   - Mulliken gross atomic charge
  VA   - Mayer's total valence
  BVA  - Mayer's bonded valence
  FA   - Mayer's free valence

  ATOM       NA         ZA         QA         VA         BVA        FA
  0 Cr    23.6520    24.0000     0.3480     5.9712     1.0834     4.8878
  1 Cl    17.3480    17.0000    -0.3480     1.1000     1.0834     0.0166

  Mayer bond orders larger than 0.100000
B(  0-Cr,  1-Cl) :   1.0834 

-------
TIMINGS
-------

Total SCF time: 0 days 0 hours 0 min 3 sec 

Total time                  ....       3.632 sec
Sum of individual times     ....       3.498 sec  ( 96.3%)

Fock matrix formation       ....       3.087 sec  ( 85.0%)
  Split-RI-J                ....       2.094 sec  ( 67.8% of F)
  XC integration            ....       0.893 sec  ( 28.9% of F)
    Basis function eval.    ....       0.090 sec  ( 10.1% of XC)
    Density eval.           ....       0.090 sec  ( 10.0% of XC)
    XC-Functional eval.     ....       0.018 sec  (  2.0% of XC)
    XC-Potential eval.      ....       0.276 sec  ( 30.9% of XC)
Diagonalization             ....       0.084 sec  (  2.3%)
Density matrix formation    ....       0.011 sec  (  0.3%)
Population analysis         ....       0.007 sec  (  0.2%)
Initial guess               ....       0.115 sec  (  3.2%)
Orbital Transformation      ....       0.000 sec  (  0.0%)
Orbital Orthonormalization  ....       0.000 sec  (  0.0%)
DIIS solution               ....       0.031 sec  (  0.8%)
Grid generation             ....       0.163 sec  (  4.5%)


-------------------------------------------------------------------------------
                          DFT DISPERSION CORRECTION                            
                                                                               
                              DFTD3 V3.1  Rev 1                                
                          USING Becke-Johnson damping                          
-------------------------------------------------------------------------------
The SCAN functional is recognized
Active option DFTDOPT                   ...         4   

molecular C6(AA) [au] = 792.508897 


            DFT-D V3
 parameters
 s6 scaling factor         :     1.0000 
 a1 scaling factor         :     0.5380 
 s8 scaling factor         :     0.0000 
 a2 scaling factor         :     5.4200 
 ad hoc parameters k1-k3   :    16.0000     1.3333    -4.0000 

 Edisp/kcal,au: -0.128611005496  -0.000204954661 
 E6   /kcal   :  -0.128611005 
 E8   /kcal   :  -0.000000000 
 % E8         :   0.000000000 

-------------------------   ----------------
Dispersion correction           -0.000204955
-------------------------   ----------------


-------------------------   --------------------
FINAL SINGLE POINT ENERGY     -1504.876133405677
-------------------------   --------------------


                            ***************************************
                            *     ORCA property calculations      *
                            ***************************************

                                    ---------------------
                                    Active property flags
                                    ---------------------
   (+) Dipole Moment


------------------------------------------------------------------------------
                       ORCA ELECTRIC PROPERTIES CALCULATION
------------------------------------------------------------------------------

Dipole Moment Calculation                       ... on
Quadrupole Moment Calculation                   ... off
Polarizability Calculation                      ... off
GBWName                                         ... 21_CrCl.gbw
Electron density file                           ... 21_CrCl.scfp
The origin for moment calculation is the CENTER OF MASS  = ( 0.000000,  0.000000  1.496825)

-------------
DIPOLE MOMENT
-------------
                                X             Y             Z
Electronic contribution:      0.00000       0.00000      -3.40867
Nuclear contribution   :      0.00000       0.00000       1.57322
                        -----------------------------------------
Total Dipole Moment    :      0.00000       0.00000      -1.83545
                        -----------------------------------------
Magnitude (a.u.)       :      1.83545
Magnitude (Debye)      :      4.66535



--------------------
Rotational spectrum 
--------------------
 
Rotational constants in cm-1:     0.000000     0.165568     0.165568 
Rotational constants in MHz :     0.000000  4963.604658  4963.604658 

 Dipole components along the rotational axes: 
x,y,z [a.u.] :    -1.835451     0.000000     0.000000 
x,y,z [Debye]:    -4.665346     0.000000     0.000000 

 

Timings for individual modules:

Sum of individual times         ...        7.023 sec (=   0.117 min)
GTO integral calculation        ...        3.048 sec (=   0.051 min)  43.4 %
SCF iterations                  ...        3.975 sec (=   0.066 min)  56.6 %
                             ****ORCA TERMINATED NORMALLY****
TOTAL RUN TIME: 0 days 0 hours 0 minutes 7 seconds 603 msec
