
                                 *****************
                                 * O   R   C   A *
                                 *****************

           --- An Ab Initio, DFT and Semiempirical electronic structure package ---

                  #######################################################
                  #                        -***-                        #
                  #          Department of theory and spectroscopy      #
                  #               Directorship: Frank Neese             #
                  #        Max Planck Institute fuer Kohlenforschung    #
                  #                Kaiser Wilhelm Platz 1               #
                  #                 D-45470 Muelheim/Ruhr               #
                  #                      Germany                        #
                  #                                                     #
                  #                  All rights reserved                #
                  #                        -***-                        #
                  #######################################################


                         Program Version 4.2.0 -  RELEASE  -


 With contributions from (in alphabetic order):
   Daniel Aravena         : Magnetic Suceptibility
   Michael Atanasov       : Ab Initio Ligand Field Theory (pilot matlab implementation)
   Alexander A. Auer      : GIAO ZORA, VPT2
   Ute Becker             : Parallelization
   Giovanni Bistoni       : ED, misc. LED, open-shell LED, HFLED
   Martin Brehm           : Molecular dynamics
   Dmytro Bykov           : SCF Hessian
   Vijay G. Chilkuri      : MRCI spin determinant printing, contributions to CSF-ICE
   Dipayan Datta          : RHF DLPNO-CCSD density
   Achintya Kumar Dutta   : EOM-CC, STEOM-CC
   Dmitry Ganyushin       : Spin-Orbit,Spin-Spin,Magnetic field MRCI
   Miquel Garcia          : C-PCM Hessian, Gaussian charge scheme
   Yang Guo               : DLPNO-NEVPT2, CIM, IAO-localization
   Andreas Hansen         : Spin unrestricted coupled pair/coupled cluster methods
   Benjamin Helmich-Paris : CASSCF linear response (MC-RPA)
   Lee Huntington         : MR-EOM, pCC
   Robert Izsak           : Overlap fitted RIJCOSX, COSX-SCS-MP3, EOM
   Christian Kollmar      : KDIIS, OOCD, Brueckner-CCSD(T), CCSD density
   Simone Kossmann        : Meta GGA functionals, TD-DFT gradient, OOMP2, MP2 Hessian
   Martin Krupicka        : AUTO-CI
   Lucas Lang             : DCDCAS
   Dagmar Lenk            : GEPOL surface, SMD
   Dimitrios Liakos       : Extrapolation schemes; Compound Job, initial MDCI parallelization
   Dimitrios Manganas     : Further ROCIS development; embedding schemes
   Dimitrios Pantazis     : SARC Basis sets
   Taras Petrenko         : DFT Hessian,TD-DFT gradient, ASA, ECA, R-Raman, ABS, FL, XAS/XES, NRVS
   Peter Pinski           : DLPNO-MP2, DLPNO-MP2 Gradient
   Christoph Reimann      : Effective Core Potentials
   Marius Retegan         : Local ZFS, SOC
   Christoph Riplinger    : Optimizer, TS searches, QM/MM, DLPNO-CCSD(T), (RO)-DLPNO pert. Triples
   Tobias Risthaus        : Range-separated hybrids, TD-DFT gradient, RPA, STAB
   Michael Roemelt        : Original ROCIS implementation
   Masaaki Saitow         : Open-shell DLPNO-CCSD energy and density
   Barbara Sandhoefer     : DKH picture change effects
   Avijit Sen             : IP-ROCIS
   Kantharuban Sivalingam : CASSCF convergence, NEVPT2, FIC-MRCI
   Bernardo de Souza      : ESD, SOC TD-DFT
   Georgi Stoychev        : AutoAux, RI-MP2 NMR
   Willem Van den Heuvel  : Paramagnetic NMR
   Boris Wezisla          : Elementary symmetry handling
   Frank Wennmohs         : Technical directorship


 We gratefully acknowledge several colleagues who have allowed us to
 interface, adapt or use parts of their codes:
   Stefan Grimme, W. Hujo, H. Kruse,             : VdW corrections, initial TS optimization,
                  C. Bannwarth                     DFT functionals, gCP, sTDA/sTD-DF
   Ed Valeev, F. Pavosevic, A. Kumar             : LibInt (2-el integral package), F12 methods
   Garnet Chan, S. Sharma, J. Yang, R. Olivares  : DMRG
   Ulf Ekstrom                                   : XCFun DFT Library
   Mihaly Kallay                                 : mrcc  (arbitrary order and MRCC methods)
   Andreas Klamt, Michael Diedenhofen            : otool_cosmo (COSMO solvation model)
   Jiri Pittner, Ondrej Demel                    : Mk-CCSD
   Frank Weinhold                                : gennbo (NPA and NBO analysis)
   Christopher J. Cramer and Donald G. Truhlar   : smd solvation model
   Lars Goerigk                                  : TD-DFT with DH, B97 family of functionals
   V. Asgeirsson, H. Jonsson                     : NEB implementation
   FAccTs GmbH                                   : IRC, NEB, NEB-TS, Multilevel, MM, QM/MM, CI optimization
   S Lehtola, MJT Oliveira, MAL Marques          : LibXC Library


 Your calculation uses the libint2 library for the computation of 2-el integrals
 For citations please refer to: http://libint.valeyev.net

 Your ORCA version has been built with support for libXC version: 4.2.3
 For citations please refer to: https://tddft.org/programs/libxc/

 This ORCA versions uses:
   CBLAS   interface :  Fast vector & matrix operations
   LAPACKE interface :  Fast linear algebra routines
   SCALAPACK package :  Parallel linear algebra routines


Your calculation utilizes the atom-pairwise dispersion correction
with the Becke-Johnson damping scheme (D3BJ)
Cite in your paper:
S.Grimme, S.Ehrlich, L.Goerigk, J Comput Chem, (2011), 32, 1456–1465 
S.Grimme, J.Antony, S.Ehrlich and H.Krieg, J.Chem.Phys., 132, (2010), 154104 
   

----- Orbital basis set information -----
Your calculation utilizes the basis: aug-cc-pVTZ 
    H, B-Ne : Obtained from the ccRepo (grant-hill.group.shef.ac.uk/ccrepo) Feb. 2017
              R. A. Kendall, T. H. Dunning, Jr., R. J. Harrison, J. Chem. Phys. 96, 6796 (1992)
         He : Obtained from the ccRepo (grant-hill.group.shef.ac.uk/ccrepo) Feb. 2017
              D. E. Woon, T. H. Dunning, Jr., J. Chem. Phys. 100, 2975 (1994)
  Li-Be, Na : Obtained from the ccRepo (grant-hill.group.shef.ac.uk/ccrepo) Feb. 2017
              B. P. Prascher, D. E. Woon, K. A. Peterson, T. H. Dunning, Jr., A. K. Wilson, Theor. Chem. Acc. 128, 69 (2011)
         Mg : Obtained from the Peterson Research Group Website (tyr0.chem.wsu.edu/~kipeters) Feb. 2017
              B. P. Prascher, D. E. Woon, K. A. Peterson, T. H. Dunning, Jr., A. K. Wilson, Theor. Chem. Acc. 128, 69 (2011)
      Al-Ar : Obtained from the ccRepo (grant-hill.group.shef.ac.uk/ccrepo) Feb. 2017
              D. E. Woon, T. H. Dunning, Jr., J. Chem. Phys. 98, 1358 (1993)
      Sc-Zn : Obtained from the ccRepo (grant-hill.group.shef.ac.uk/ccrepo) Feb. 2017
              N. B. Balabanov, K. A. Peterson, J. Chem. Phys. 123, 064107 (2005)
              N. B. Balabanov, K. A. Peterson, J. Chem. Phys. 125, 074110 (2006)
      Ga-Kr : Obtained from the ccRepo (grant-hill.group.shef.ac.uk/ccrepo) Feb. 2017
              A. K. Wilson, D. E. Woon, K. A. Peterson, T. H. Dunning, Jr., J. Chem. Phys. 110, 7667 (1999)
     Ag, Au : Obtained from the Peterson Research Group Website (tyr0.chem.wsu.edu/~kipeters) Feb. 2017
              K. A. Peterson, C. Puzzarini, Theor. Chem. Acc. 114, 283 (2005)

----- AuxJ basis set information -----
Your calculation utilizes the auxiliary basis: def2/J
   F. Weigend, Phys. Chem. Chem. Phys. 8, 1057 (2006).

================================================================================
                                        WARNINGS
                       Please study these warnings very carefully!
================================================================================


WARNING: your system is open-shell and RHF/RKS was chosen
  ===> : WILL SWITCH to UHF/UKS


WARNING: The SCAN functional is very grid-sensitive!
         Use at least GRID5 and a higher intacc

INFO   : the flag for use of LIBINT has been found!

================================================================================
                                       INPUT FILE
================================================================================
NAME = 23_CrO.in
|  1> #
|  2> # 23_CrO scanfunc/aug-cc-pvtz
|  3> #
|  4> ! scanfunc d3bj aug-cc-pvtz def2/j grid4 nofinalgrid
|  5> 
|  6> *xyz 0 5
|  7>   Cr  0.00000000000000      0.00000000000000      0.19264925280896
|  8>   O   0.00000000000000      0.00000000000000      1.80735074719104
|  9> *
| 10> 
| 11> %pal
| 12> nprocs 24
| 13> end
| 14> 
| 15> 
| 16>                          ****END OF INPUT****
================================================================================

                       ****************************
                       * Single Point Calculation *
                       ****************************

---------------------------------
CARTESIAN COORDINATES (ANGSTROEM)
---------------------------------
  Cr     0.000000    0.000000    0.192649
  O      0.000000    0.000000    1.807351

----------------------------
CARTESIAN COORDINATES (A.U.)
----------------------------
  NO LB      ZA    FRAG     MASS         X           Y           Z
   0 Cr   24.0000    0    52.000    0.000000    0.000000    0.364054
   1 O     8.0000    0    15.999    0.000000    0.000000    3.415398

--------------------------------
INTERNAL COORDINATES (ANGSTROEM)
--------------------------------
 Cr     0   0   0     0.000000000000     0.00000000     0.00000000
 O      1   0   0     1.614701494382     0.00000000     0.00000000

---------------------------
INTERNAL COORDINATES (A.U.)
---------------------------
 Cr     0   0   0     0.000000000000     0.00000000     0.00000000
 O      1   0   0     3.051343612416     0.00000000     0.00000000

---------------------
BASIS SET INFORMATION
---------------------
There are 2 groups of distinct atoms

 Group   1 Type Cr  : 116s77p23d3f2g contracted to 8s7p5d3f2g pattern {19191919191911/151515151511/77711/111/11}
 Group   2 Type O   : 19s6p3d2f contracted to 5s4p3d2f pattern {88111/3111/111/11}

Atom   0Cr   basis set group =>   1
Atom   1O    basis set group =>   2
---------------------------------
AUXILIARY/J BASIS SET INFORMATION
---------------------------------
There are 2 groups of distinct atoms

 Group   1 Type Cr  : 19s5p5d3f3g contracted to 8s5p5d2f3g pattern {121111111/11111/11111/21/111}
 Group   2 Type O   : 12s5p4d2f1g contracted to 6s4p3d1f1g pattern {711111/2111/211/2/1}

Atom   0Cr   basis set group =>   1
Atom   1O    basis set group =>   2


           ************************************************************
           *        Program running with 24 parallel MPI-processes    *
           *              working on a common directory               *
           ************************************************************
------------------------------------------------------------------------------
                           ORCA GTO INTEGRAL CALCULATION
                           -- RI-GTO INTEGRALS CHOSEN --
------------------------------------------------------------------------------

                         BASIS SET STATISTICS AND STARTUP INFO

Gaussian basis set:
 # of primitive gaussian shells          ...  251
 # of primitive gaussian functions       ...  567
 # of contracted shells                  ...   39
 # of contracted basis functions         ...  139
 Highest angular momentum                ...    4
 Maximum contraction depth               ...   19
Auxiliary gaussian basis set:
 # of primitive gaussian shells          ...   59
 # of primitive gaussian functions       ...  177
 # of contracted shells                  ...   38
 # of contracted aux-basis functions     ...  138
 Highest angular momentum                ...    4
 Maximum contraction depth               ...   12
Ratio of auxiliary to basis functions    ...  0.99
Integral package used                  ... LIBINT
 One Electron integrals                  ... done
 Ordering auxiliary basis shells         ... done
 Integral threshhold             Thresh  ...  1.000e-10
 Primitive cut-off               TCut    ...  1.000e-11
 Pre-screening matrix                    ... done
 Shell pair data                         ... 
 Ordering of the shell pairs             ... done (   0.000 sec) 780 of 780 pairs
 Determination of significant pairs      ... done (   0.000 sec)
 Creation of shell pair data             ... done (   0.001 sec)
 Storage of shell pair data              ... done (   0.026 sec)
 Shell pair data done in (   0.027 sec)
 Computing two index integrals           ... done
 Cholesky decomposition of the V-matrix  ... done


Timings:
 Total evaluation time                   ...   2.252 sec (  0.038 min)
 One electron matrix time                ...   0.043 sec (  0.001 min) =  1.9%
 Schwartz matrix evaluation time         ...   2.146 sec (  0.036 min) = 95.3%
 Two index repulsion integral time       ...   0.001 sec (  0.000 min) =  0.0%
 Cholesky decomposition of V             ...   0.001 sec (  0.000 min) =  0.0%
 Three index repulsion integral time     ...   0.000 sec (  0.000 min) =  0.0%



           ************************************************************
           *        Program running with 24 parallel MPI-processes    *
           *              working on a common directory               *
           ************************************************************
-------------------------------------------------------------------------------
                                 ORCA SCF
-------------------------------------------------------------------------------

------------
SCF SETTINGS
------------
Hamiltonian:
 Density Functional     Method          .... DFT(GTOs)
 Exchange Functional    Exchange        .... SCAN
 Correlation Functional Correlation     .... SCAN
 Gradients option       PostSCFGGA      .... off
   Density functional embedding theory  .... OFF
   NL short-range parameter             ....  6.400000
 RI-approximation to the Coulomb term is turned on
   Number of auxiliary basis functions  .... 138


General Settings:
 Integral files         IntName         .... 23_CrO
 Hartree-Fock type      HFTyp           .... UHF
 Total Charge           Charge          ....    0
 Multiplicity           Mult            ....    5
 Number of Electrons    NEL             ....   32
 Basis Dimension        Dim             ....  139
 Nuclear Repulsion      ENuc            ....     62.9231002430 Eh

Convergence Acceleration:
 DIIS                   CNVDIIS         .... on
   Start iteration      DIISMaxIt       ....    12
   Startup error        DIISStart       ....  0.200000
   # of expansion vecs  DIISMaxEq       ....     5
   Bias factor          DIISBfac        ....   1.050
   Max. coefficient     DIISMaxC        ....  10.000
 Newton-Raphson         CNVNR           .... off
 SOSCF                  CNVSOSCF        .... off
 Level Shifting         CNVShift        .... on
   Level shift para.    LevelShift      ....    0.2500
   Turn off err/grad.   ShiftErr        ....    0.0010
 Zerner damping         CNVZerner       .... off
 Static damping         CNVDamp         .... on
   Fraction old density DampFac         ....    0.7000
   Max. Damping (<1)    DampMax         ....    0.9800
   Min. Damping (>=0)   DampMin         ....    0.0000
   Turn off err/grad.   DampErr         ....    0.1000
 Fernandez-Rico         CNVRico         .... off

SCF Procedure:
 Maximum # iterations   MaxIter         ....   125
 SCF integral mode      SCFMode         .... Direct
   Integral package                     .... LIBINT
 Reset frequency        DirectResetFreq ....    20
 Integral Threshold     Thresh          ....  1.000e-10 Eh
 Primitive CutOff       TCut            ....  1.000e-11 Eh

Convergence Tolerance:
 Convergence Check Mode ConvCheckMode   .... Total+1el-Energy
 Convergence forced     ConvForced      .... 0
 Energy Change          TolE            ....  1.000e-06 Eh
 1-El. energy change                    ....  1.000e-03 Eh
 DIIS Error             TolErr          ....  1.000e-06


Diagonalization of the overlap matrix:
Smallest eigenvalue                        ... 7.961e-05
Time for diagonalization                   ...    0.005 sec
Threshold for overlap eigenvalues          ... 1.000e-08
Number of eigenvalues below threshold      ... 0
Time for construction of square roots      ...    0.003 sec
Total time needed                          ...    0.008 sec

-------------------
DFT GRID GENERATION
-------------------

General Integration Accuracy     IntAcc      ...  4.670
Radial Grid Type                 RadialGrid  ... Gauss-Chebyshev
Angular Grid (max. acc.)         AngularGrid ... Lebedev-302
Angular grid pruning method      GridPruning ... 3 (G Style)
Weight generation scheme         WeightScheme... Becke
Basis function cutoff            BFCut       ...    1.0000e-10
Integration weight cutoff        WCut        ...    1.0000e-14
Grids for H and He will be reduced by one unit

# of grid points (after initial pruning)     ...  15876 (   0.0 sec)
# of grid points (after weights+screening)   ...  15834 (   0.0 sec)
nearest neighbour list constructed           ...    0.0 sec
Grid point re-assignment to atoms done       ...    0.0 sec
Grid point division into batches done        ...    0.1 sec
Reduced shell lists constructed in    0.1 sec

Total number of grid points                  ...    15834
Total number of batches                      ...      249
Average number of points per batch           ...       63
Average number of grid points per atom       ...     7917
Average number of shells per batch           ...    14.75 (37.82%)
Average number of basis functions per batch  ...    38.42 (27.64%)
Average number of large shells per batch     ...     7.67 (51.98%)
Average number of large basis fcns per batch ...    21.50 (55.97%)
Maximum spatial batch extension              ...  28.57, 31.41, 18.18 au
Average spatial batch extension              ...   0.89,  0.95,  0.67 au

Time for grid setup =    0.192 sec

------------------------------
INITIAL GUESS: MODEL POTENTIAL
------------------------------
Loading Hartree-Fock densities                     ... done
Calculating cut-offs                               ... done
Setting up the integral package                    ... done
Initializing the effective Hamiltonian             ... done
Starting the Coulomb interaction                   ... done (   0.0 sec)
Reading the grid                                   ... done
Mapping shells                                     ... done
Starting the XC term evaluation                    ... done (   0.0 sec)
  promolecular density results
     # of electrons  =     32.000000567
     EX              =    -62.314962632
     EC              =     -0.551700608
     EX+EC           =    -62.866663240
Transforming the Hamiltonian                       ... done (   0.0 sec)
Diagonalizing the Hamiltonian                      ... done (   0.0 sec)
Back transforming the eigenvectors                 ... done (   0.0 sec)
Now organizing SCF variables                       ... done
                      ------------------
                      INITIAL GUESS DONE (   0.3 sec)
                      ------------------
--------------
SCF ITERATIONS
--------------
ITER       Energy         Delta-E        Max-DP      RMS-DP      [F,P]     Damp
               ***  Starting incremental Fock matrix formation  ***
  0  -1119.2584513307   0.000000000000 0.37082969  0.00813891  0.6830326 0.7000
  1  -1119.5072075298  -0.248756199067 0.23904558  0.00527135  0.1237979 0.7000
                               ***Turning on DIIS***
  2  -1119.5589895046  -0.051781974851 0.54231477  0.00895825  0.0965213 0.0000
  3  -1119.6696092239  -0.110619719276 0.08439890  0.00118444  0.2852915 0.7000
  4  -1119.7147191462  -0.045109922358 0.07499599  0.00096011  0.2438209 0.7000
  5  -1119.7526266516  -0.037907505325 0.04083517  0.00064557  0.1918342 0.7000
  6  -1119.7762901742  -0.023663522671 0.03352149  0.00044088  0.1464709 0.7000
  7  -1119.7906141746  -0.014324000405 0.03052283  0.00034977  0.1115909 0.7000
  8  -1119.8011137324  -0.010499557810 0.08787134  0.00098296  0.0746339 0.0000
  9  -1119.8168458146  -0.015732082190 0.01071452  0.00018060  0.0251028 0.0000
 10  -1119.8174581061  -0.000612291506 0.00837345  0.00017308  0.0157234 0.0000
 11  -1119.8178027051  -0.000344598946 0.00631330  0.00010069  0.0072189 0.0000
 12  -1119.8179642097  -0.000161504618 0.00600159  0.00005843  0.0022182 0.0000
 13  -1119.8180327220  -0.000068512245 0.01276140  0.00012052  0.0008864 0.0000
 14  -1119.8180901204  -0.000057398400 0.00123318  0.00001983  0.0006409 0.0000
 15  -1119.8180929993  -0.000002878945 0.00280348  0.00003623  0.0009988 0.0000
 16  -1119.8180981616  -0.000005162307 0.00134063  0.00001360  0.0001559 0.0000
 17  -1119.8180992054  -0.000001043783 0.00035263  0.00000440  0.0004021 0.0000
                 **** Energy Check signals convergence ****

               *****************************************************
               *                     SUCCESS                       *
               *           SCF CONVERGED AFTER  18 CYCLES          *
               *****************************************************


----------------
TOTAL SCF ENERGY
----------------

Total Energy       :        -1119.81809966 Eh          -30471.79965 eV

Components:
Nuclear Repulsion  :           62.92310024 Eh            1712.22461 eV
Electronic Energy  :        -1182.74119990 Eh          -32184.02425 eV
One Electron Energy:        -1665.97424964 Eh          -45333.46404 eV
Two Electron Energy:          483.23304974 Eh           13149.43979 eV

Virial components:
Potential Energy   :        -2237.80749574 Eh          -60893.83774 eV
Kinetic Energy     :         1117.98939608 Eh           30422.03809 eV
Virial Ratio       :            2.00163571


DFT components:
N(Alpha)           :       17.999995416369 electrons
N(Beta)            :       13.999995784572 electrons
N(Total)           :       31.999991200941 electrons
E(X)               :      -56.039771156842 Eh       
E(C)               :       -1.279061167287 Eh       
E(XC)              :      -57.318832324128 Eh       
DFET-embed. en.    :        0.000000000000 Eh       

---------------
SCF CONVERGENCE
---------------

  Last Energy change         ...   -4.5458e-07  Tolerance :   1.0000e-06
  Last MAX-Density change    ...    7.4087e-04  Tolerance :   1.0000e-05
  Last RMS-Density change    ...    6.4574e-06  Tolerance :   1.0000e-06
  Last DIIS Error            ...    8.1154e-05  Tolerance :   1.0000e-06

             **** THE GBW FILE WAS UPDATED (23_CrO.gbw) ****
             **** DENSITY FILE WAS UPDATED (23_CrO.scfp) ****
             **** ENERGY FILE WAS UPDATED (23_CrO.en.tmp) ****
----------------------
UHF SPIN CONTAMINATION
----------------------

Warning: in a DFT calculation there is little theoretical justification to 
         calculate <S**2> as in Hartree-Fock theory. We will do it anyways
         but you should keep in mind that the values have only limited relevance

Expectation value of <S**2>     :     6.161594
Ideal value S*(S+1) for S=2.0   :     6.000000
Deviation                       :     0.161594

             **** THE GBW FILE WAS UPDATED (23_CrO.gbw) ****
             **** DENSITY FILE WAS UPDATED (23_CrO.scfp) ****
----------------
ORBITAL ENERGIES
----------------
                 SPIN UP ORBITALS
  NO   OCC          E(Eh)            E(eV) 
   0   1.0000    -215.123050     -5853.7958 
   1   1.0000     -24.669264      -671.2848 
   2   1.0000     -20.886112      -568.3400 
   3   1.0000     -20.885335      -568.3189 
   4   1.0000     -20.881580      -568.2167 
   5   1.0000     -18.946108      -515.5498 
   6   1.0000      -2.917037       -79.3766 
   7   1.0000      -1.860425       -50.6247 
   8   1.0000      -1.857947       -50.5573 
   9   1.0000      -1.855337       -50.4863 
  10   1.0000      -0.831786       -22.6340 
  11   1.0000      -0.326116        -8.8741 
  12   1.0000      -0.315551        -8.5866 
  13   1.0000      -0.293346        -7.9824 
  14   1.0000      -0.239790        -6.5250 
  15   1.0000      -0.231380        -6.2962 
  16   1.0000      -0.199306        -5.4234 
  17   1.0000      -0.177119        -4.8196 
  18   0.0000      -0.144059        -3.9200 
  19   0.0000      -0.104580        -2.8458 
  20   0.0000      -0.029221        -0.7951 
  21   0.0000      -0.022453        -0.6110 
  22   0.0000       0.017840         0.4855 
  23   0.0000       0.019434         0.5288 
  24   0.0000       0.033092         0.9005 
  25   0.0000       0.035757         0.9730 
  26   0.0000       0.061529         1.6743 
  27   0.0000       0.064989         1.7684 
  28   0.0000       0.065620         1.7856 
  29   0.0000       0.067758         1.8438 
  30   0.0000       0.070230         1.9111 
  31   0.0000       0.081337         2.2133 
  32   0.0000       0.120716         3.2848 
  33   0.0000       0.159844         4.3496 
  34   0.0000       0.163827         4.4580 
  35   0.0000       0.194241         5.2856 
  36   0.0000       0.197792         5.3822 
  37   0.0000       0.203335         5.5330 
  38   0.0000       0.216156         5.8819 
  39   0.0000       0.219789         5.9808 
  40   0.0000       0.222702         6.0600 
  41   0.0000       0.228590         6.2203 
  42   0.0000       0.229049         6.2327 
  43   0.0000       0.285328         7.7642 
  44   0.0000       0.439895        11.9702 
  45   0.0000       0.487713        13.2713 
  46   0.0000       0.488837        13.3019 
  47   0.0000       0.516342        14.0504 
  48   0.0000       0.519677        14.1411 
  49   0.0000       0.572797        15.5866 
  50   0.0000       0.584492        15.9048 
  51   0.0000       0.601553        16.3691 
  52   0.0000       0.625509        17.0210 
  53   0.0000       0.634698        17.2710 
  54   0.0000       0.662937        18.0394 
  55   0.0000       0.720150        19.5963 
  56   0.0000       0.722610        19.6632 
  57   0.0000       0.746617        20.3165 
  58   0.0000       0.746975        20.3262 
  59   0.0000       0.757127        20.6025 
  60   0.0000       0.819760        22.3068 
  61   0.0000       0.821742        22.3607 
  62   0.0000       0.847146        23.0520 
  63   0.0000       0.855424        23.2773 
  64   0.0000       1.130365        30.7588 
  65   0.0000       1.249831        34.0096 
  66   0.0000       1.281242        34.8644 
  67   0.0000       1.283693        34.9311 
  68   0.0000       1.600780        43.5594 
  69   0.0000       1.643320        44.7170 
  70   0.0000       1.649291        44.8795 
  71   0.0000       1.666020        45.3347 
  72   0.0000       1.667149        45.3654 
  73   0.0000       1.733866        47.1809 
  74   0.0000       1.735228        47.2180 
  75   0.0000       1.850851        50.3642 
  76   0.0000       1.851345        50.3777 
  77   0.0000       1.860533        50.6277 
  78   0.0000       1.959393        53.3178 
  79   0.0000       1.996301        54.3221 
  80   0.0000       2.004653        54.5494 
  81   0.0000       2.078990        56.5722 
  82   0.0000       2.082008        56.6543 
  83   0.0000       2.151869        58.5553 
  84   0.0000       2.156464        58.6804 
  85   0.0000       2.161539        58.8185 
  86   0.0000       2.161936        58.8293 
  87   0.0000       2.289954        62.3128 
  88   0.0000       2.293368        62.4057 
  89   0.0000       2.316893        63.0459 
  90   0.0000       2.332957        63.4830 
  91   0.0000       2.335557        63.5537 
  92   0.0000       2.590693        70.4963 
  93   0.0000       2.595775        70.6346 
  94   0.0000       2.598306        70.7035 
  95   0.0000       2.812280        76.5260 
  96   0.0000       2.815906        76.6247 
  97   0.0000       2.851391        77.5903 
  98   0.0000       3.013642        82.0054 
  99   0.0000       3.249109        88.4128 
 100   0.0000       3.251819        88.4865 
 101   0.0000       3.254857        88.5692 
 102   0.0000       3.255883        88.5971 
 103   0.0000       3.533190        96.1430 
 104   0.0000       3.550437        96.6123 
 105   0.0000       4.135009       112.5193 
 106   0.0000       4.142115       112.7127 
 107   0.0000       4.227824       115.0449 
 108   0.0000       4.956572       134.8752 
 109   0.0000       6.100858       166.0128 
 110   0.0000       6.102408       166.0550 
 111   0.0000       6.129511       166.7925 
 112   0.0000       6.150031       167.3509 
 113   0.0000       6.179713       168.1585 
 114   0.0000       6.253932       170.1781 
 115   0.0000       6.265650       170.4970 
 116   0.0000       6.267296       170.5418 
 117   0.0000       6.268632       170.5782 
 118   0.0000       6.364492       173.1866 
 119   0.0000       6.372008       173.3911 
 120   0.0000       6.458437       175.7430 
 121   0.0000       6.551707       178.2810 
 122   0.0000       6.567274       178.7046 
 123   0.0000       6.663072       181.3114 
 124   0.0000       6.664803       181.3585 
 125   0.0000       6.687197       181.9679 
 126   0.0000       6.687612       181.9792 
 127   0.0000       6.716557       182.7668 
 128   0.0000       6.744902       183.5381 
 129   0.0000       6.826756       185.7655 
 130   0.0000       6.828422       185.8108 
 131   0.0000       6.976910       189.8514 
 132   0.0000       6.979897       189.9327 
 133   0.0000       7.093278       193.0179 
 134   0.0000       7.162152       194.8921 
 135   0.0000       7.202751       195.9968 
 136   0.0000       7.527387       204.8306 
 137   0.0000       8.236286       224.1207 
 138   0.0000      11.038386       300.3697 

                 SPIN DOWN ORBITALS
  NO   OCC          E(Eh)            E(eV) 
   0   1.0000    -215.124603     -5853.8380 
   1   1.0000     -24.550065      -668.0412 
   2   1.0000     -20.818575      -566.5022 
   3   1.0000     -20.809487      -566.2549 
   4   1.0000     -20.795205      -565.8663 
   5   1.0000     -18.943768      -515.4861 
   6   1.0000      -2.780918       -75.6726 
   7   1.0000      -1.752760       -47.6950 
   8   1.0000      -1.713354       -46.6227 
   9   1.0000      -1.682809       -45.7915 
  10   1.0000      -0.867298       -23.6004 
  11   1.0000      -0.314436        -8.5562 
  12   1.0000      -0.311337        -8.4719 
  13   1.0000      -0.285024        -7.7559 
  14   0.0000      -0.081646        -2.2217 
  15   0.0000      -0.071617        -1.9488 
  16   0.0000      -0.058400        -1.5892 
  17   0.0000      -0.056990        -1.5508 
  18   0.0000      -0.040419        -1.0998 
  19   0.0000      -0.037125        -1.0102 
  20   0.0000       0.004766         0.1297 
  21   0.0000       0.007710         0.2098 
  22   0.0000       0.016669         0.4536 
  23   0.0000       0.023328         0.6348 
  24   0.0000       0.051182         1.3927 
  25   0.0000       0.051878         1.4117 
  26   0.0000       0.055161         1.5010 
  27   0.0000       0.058218         1.5842 
  28   0.0000       0.060458         1.6452 
  29   0.0000       0.062425         1.6987 
  30   0.0000       0.064060         1.7432 
  31   0.0000       0.089124         2.4252 
  32   0.0000       0.125725         3.4211 
  33   0.0000       0.175663         4.7800 
  34   0.0000       0.182146         4.9564 
  35   0.0000       0.217784         5.9262 
  36   0.0000       0.218103         5.9349 
  37   0.0000       0.222231         6.0472 
  38   0.0000       0.225979         6.1492 
  39   0.0000       0.231747         6.3062 
  40   0.0000       0.232176         6.3178 
  41   0.0000       0.246290         6.7019 
  42   0.0000       0.250197         6.8082 
  43   0.0000       0.290914         7.9162 
  44   0.0000       0.465639        12.6707 
  45   0.0000       0.517944        14.0940 
  46   0.0000       0.518275        14.1030 
  47   0.0000       0.569605        15.4997 
  48   0.0000       0.571732        15.5576 
  49   0.0000       0.625216        17.0130 
  50   0.0000       0.628349        17.0982 
  51   0.0000       0.633683        17.2434 
  52   0.0000       0.648675        17.6514 
  53   0.0000       0.655958        17.8495 
  54   0.0000       0.704194        19.1621 
  55   0.0000       0.754799        20.5391 
  56   0.0000       0.755519        20.5587 
  57   0.0000       0.766822        20.8663 
  58   0.0000       0.771833        21.0026 
  59   0.0000       0.776946        21.1418 
  60   0.0000       0.867237        23.5987 
  61   0.0000       0.881715        23.9927 
  62   0.0000       0.900506        24.5040 
  63   0.0000       0.901001        24.5175 
  64   0.0000       1.128345        30.7038 
  65   0.0000       1.289269        35.0828 
  66   0.0000       1.321322        35.9550 
  67   0.0000       1.327109        36.1125 
  68   0.0000       1.664810        45.3018 
  69   0.0000       1.710983        46.5582 
  70   0.0000       1.712243        46.5925 
  71   0.0000       1.718012        46.7495 
  72   0.0000       1.730178        47.0805 
  73   0.0000       1.866690        50.7952 
  74   0.0000       1.867304        50.8119 
  75   0.0000       1.891670        51.4749 
  76   0.0000       1.908216        51.9252 
  77   0.0000       1.908838        51.9421 
  78   0.0000       2.012897        54.7737 
  79   0.0000       2.050707        55.8026 
  80   0.0000       2.052505        55.8515 
  81   0.0000       2.123809        57.7918 
  82   0.0000       2.134808        58.0911 
  83   0.0000       2.191085        59.6225 
  84   0.0000       2.192027        59.6481 
  85   0.0000       2.267477        61.7012 
  86   0.0000       2.267590        61.7043 
  87   0.0000       2.363578        64.3162 
  88   0.0000       2.377754        64.7020 
  89   0.0000       2.391152        65.0665 
  90   0.0000       2.410915        65.6043 
  91   0.0000       2.412137        65.6376 
  92   0.0000       2.622798        71.3700 
  93   0.0000       2.637231        71.7627 
  94   0.0000       2.648243        72.0624 
  95   0.0000       2.874793        78.2271 
  96   0.0000       2.876489        78.2732 
  97   0.0000       2.892635        78.7126 
  98   0.0000       3.048390        82.9509 
  99   0.0000       3.283356        89.3447 
 100   0.0000       3.295657        89.6794 
 101   0.0000       3.394152        92.3596 
 102   0.0000       3.394872        92.3792 
 103   0.0000       3.635612        98.9300 
 104   0.0000       3.663744        99.6956 
 105   0.0000       4.143174       112.7415 
 106   0.0000       4.168457       113.4295 
 107   0.0000       4.278655       116.4281 
 108   0.0000       4.984001       135.6216 
 109   0.0000       6.265868       170.5029 
 110   0.0000       6.267332       170.5428 
 111   0.0000       6.267666       170.5519 
 112   0.0000       6.309462       171.6892 
 113   0.0000       6.309476       171.6896 
 114   0.0000       6.313562       171.8008 
 115   0.0000       6.316094       171.8696 
 116   0.0000       6.340899       172.5446 
 117   0.0000       6.367341       173.2642 
 118   0.0000       6.370263       173.3437 
 119   0.0000       6.372608       173.4075 
 120   0.0000       6.556297       178.4059 
 121   0.0000       6.592580       179.3932 
 122   0.0000       6.620807       180.1613 
 123   0.0000       6.715394       182.7352 
 124   0.0000       6.719195       182.8386 
 125   0.0000       6.853771       186.5006 
 126   0.0000       6.854054       186.5083 
 127   0.0000       6.864200       186.7844 
 128   0.0000       6.864714       186.7984 
 129   0.0000       6.989434       190.1922 
 130   0.0000       6.990737       190.2276 
 131   0.0000       7.097761       193.1399 
 132   0.0000       7.121429       193.7839 
 133   0.0000       7.141184       194.3215 
 134   0.0000       7.172603       195.1765 
 135   0.0000       7.200497       195.9355 
 136   0.0000       7.583829       206.3665 
 137   0.0000       8.380074       228.0334 
 138   0.0000      11.057225       300.8824 

                    ********************************
                    * MULLIKEN POPULATION ANALYSIS *
                    ********************************

--------------------------------------------
MULLIKEN ATOMIC CHARGES AND SPIN POPULATIONS
--------------------------------------------
   0 Cr:    0.548704    4.356844
   1 O :   -0.548704   -0.356844
Sum of atomic charges         :    0.0000000
Sum of atomic spin populations:    4.0000000

-----------------------------------------------------
MULLIKEN REDUCED ORBITAL CHARGES AND SPIN POPULATIONS
-----------------------------------------------------
CHARGE
  0 Crs       :     6.748425  s :     6.748425
      pz      :     4.055903  p :    12.219807
      px      :     4.027155
      py      :     4.136749
      dz2     :     0.822519  d :     4.451162
      dxz     :     0.563485
      dyz     :     1.078774
      dx2y2   :     0.987668
      dxy     :     0.998716
      f0      :     0.006852  f :     0.025747
      f+1     :     0.006650
      f-1     :     0.011784
      f+2     :     0.000278
      f-2     :     0.000159
      f+3     :     0.000011
      f-3     :     0.000013
      g0      :     0.001413  g :     0.006155
      g+1     :     0.001994
      g-1     :     0.002732
      g+2     :     0.000010
      g-2     :    -0.000002
      g+3     :     0.000002
      g-3     :     0.000002
      g+4     :     0.000002
      g-4     :     0.000003
  1 O s       :     3.939899  s :     3.939899
      pz      :     1.430104  p :     4.582541
      px      :     1.391555
      py      :     1.760882
      dz2     :     0.004473  d :     0.021800
      dxz     :     0.008012
      dyz     :     0.007548
      dx2y2   :     0.000969
      dxy     :     0.000798
      f0      :     0.001148  f :     0.004464
      f+1     :     0.001277
      f-1     :     0.001353
      f+2     :     0.000342
      f-2     :     0.000320
      f+3     :     0.000013
      f-3     :     0.000011

SPIN
  0 Crs       :     0.672876  s :     0.672876
      pz      :     0.038558  p :     0.157074
      px      :     0.006957
      py      :     0.111558
      dz2     :     0.417232  d :     3.528943
      dxz     :     0.302834
      dyz     :     0.822659
      dx2y2   :     0.987502
      dxy     :     0.998716
      f0      :    -0.001791  f :    -0.000212
      f+1     :    -0.001538
      f-1     :     0.002714
      f+2     :     0.000239
      f-2     :     0.000159
      f+3     :    -0.000000
      f-3     :     0.000005
      g0      :    -0.000411  g :    -0.001836
      g+1     :    -0.001047
      g-1     :    -0.000386
      g+2     :     0.000004
      g-2     :    -0.000002
      g+3     :    -0.000000
      g-3     :     0.000000
      g+4     :     0.000002
      g-4     :     0.000003
  1 O s       :     0.008221  s :     0.008221
      pz      :    -0.126316  p :    -0.372206
      px      :    -0.308651
      py      :     0.062761
      dz2     :     0.002554  d :     0.005696
      dxz     :     0.001148
      dyz     :     0.000319
      dx2y2   :     0.000878
      dxy     :     0.000798
      f0      :     0.000126  f :     0.001445
      f+1     :     0.000459
      f-1     :     0.000226
      f+2     :     0.000333
      f-2     :     0.000320
      f+3     :    -0.000008
      f-3     :    -0.000010


                     *******************************
                     * LOEWDIN POPULATION ANALYSIS *
                     *******************************

-------------------------------------------
LOEWDIN ATOMIC CHARGES AND SPIN POPULATIONS
-------------------------------------------
   0 Cr:    0.555599    4.132879
   1 O :   -0.555599   -0.132879

----------------------------------------------------
LOEWDIN REDUCED ORBITAL CHARGES AND SPIN POPULATIONS
----------------------------------------------------
CHARGE
  0 Crs       :     6.403340  s :     6.403340
      pz      :     4.126880  p :    12.183976
      px      :     3.945230
      py      :     4.111866
      dz2     :     0.942217  d :     4.536400
      dxz     :     0.574383
      dyz     :     1.069408
      dx2y2   :     0.969526
      dxy     :     0.980865
      f0      :     0.114494  f :     0.255586
      f+1     :     0.052786
      f-1     :     0.085705
      f+2     :     0.001344
      f-2     :     0.001234
      f+3     :     0.000011
      f-3     :     0.000013
      g0      :     0.024735  g :     0.065098
      g+1     :     0.016034
      g-1     :     0.023775
      g+2     :     0.000286
      g-2     :     0.000259
      g+3     :     0.000002
      g-3     :     0.000002
      g+4     :     0.000002
      g-4     :     0.000003
  1 O s       :     3.538180  s :     3.538180
      pz      :     1.604897  p :     4.508728
      px      :     1.316148
      py      :     1.587683
      dz2     :     0.174826  d :     0.334198
      dxz     :     0.062423
      dyz     :     0.076640
      dx2y2   :     0.010356
      dxy     :     0.009952
      f0      :     0.081167  f :     0.174495
      f+1     :     0.033123
      f-1     :     0.044744
      f+2     :     0.007756
      f-2     :     0.007681
      f+3     :     0.000013
      f-3     :     0.000011

SPIN
  0 Crs       :     0.611627  s :     0.611627
      pz      :     0.043443  p :     0.186649
      px      :    -0.008344
      py      :     0.151550
      dz2     :     0.387975  d :     3.346620
      dxz     :     0.255156
      dyz     :     0.753265
      dx2y2   :     0.969359
      dxy     :     0.980865
      f0      :    -0.002858  f :    -0.006348
      f+1     :    -0.019123
      f-1     :     0.013091
      f+2     :     0.001304
      f-2     :     0.001234
      f+3     :    -0.000000
      f-3     :     0.000005
      g0      :    -0.001659  g :    -0.005668
      g+1     :    -0.006290
      g-1     :     0.001737
      g+2     :     0.000279
      g-2     :     0.000259
      g+3     :    -0.000000
      g-3     :     0.000000
      g+4     :     0.000002
      g-4     :     0.000003
  1 O s       :     0.021893  s :     0.021893
      pz      :    -0.056390  p :    -0.254845
      px      :    -0.237200
      py      :     0.038745
      dz2     :     0.003585  d :     0.059784
      dxz     :     0.011062
      dyz     :     0.024918
      dx2y2   :     0.010267
      dxy     :     0.009952
      f0      :     0.003432  f :     0.040289
      f+1     :     0.004901
      f-1     :     0.016547
      f+2     :     0.007746
      f-2     :     0.007681
      f+3     :    -0.000008
      f-3     :    -0.000010


                      *****************************
                      * MAYER POPULATION ANALYSIS *
                      *****************************

  NA   - Mulliken gross atomic population
  ZA   - Total nuclear charge
  QA   - Mulliken gross atomic charge
  VA   - Mayer's total valence
  BVA  - Mayer's bonded valence
  FA   - Mayer's free valence

  ATOM       NA         ZA         QA         VA         BVA        FA
  0 Cr    23.4513    24.0000     0.5487     5.9185     2.1114     3.8072
  1 O      8.5487     8.0000    -0.5487     2.2366     2.1114     0.1252

  Mayer bond orders larger than 0.100000
B(  0-Cr,  1-O ) :   2.1114 

-------
TIMINGS
-------

Total SCF time: 0 days 0 hours 0 min 3 sec 

Total time                  ....       3.907 sec
Sum of individual times     ....       3.768 sec  ( 96.4%)

Fock matrix formation       ....       3.332 sec  ( 85.3%)
  Split-RI-J                ....       2.337 sec  ( 70.1% of F)
  XC integration            ....       0.914 sec  ( 27.4% of F)
    Basis function eval.    ....       0.092 sec  ( 10.1% of XC)
    Density eval.           ....       0.100 sec  ( 10.9% of XC)
    XC-Functional eval.     ....       0.019 sec  (  2.1% of XC)
    XC-Potential eval.      ....       0.309 sec  ( 33.8% of XC)
Diagonalization             ....       0.094 sec  (  2.4%)
Density matrix formation    ....       0.013 sec  (  0.3%)
Population analysis         ....       0.007 sec  (  0.2%)
Initial guess               ....       0.097 sec  (  2.5%)
Orbital Transformation      ....       0.000 sec  (  0.0%)
Orbital Orthonormalization  ....       0.000 sec  (  0.0%)
DIIS solution               ....       0.034 sec  (  0.9%)
Grid generation             ....       0.192 sec  (  4.9%)


-------------------------------------------------------------------------------
                          DFT DISPERSION CORRECTION                            
                                                                               
                              DFTD3 V3.1  Rev 1                                
                          USING Becke-Johnson damping                          
-------------------------------------------------------------------------------
The SCAN functional is recognized
Active option DFTDOPT                   ...         4   

molecular C6(AA) [au] = 484.273128 


            DFT-D V3
 parameters
 s6 scaling factor         :     1.0000 
 a1 scaling factor         :     0.5380 
 s8 scaling factor         :     0.0000 
 a2 scaling factor         :     5.4200 
 ad hoc parameters k1-k3   :    16.0000     1.3333    -4.0000 

 Edisp/kcal,au: -0.070265127452  -0.000111974596 
 E6   /kcal   :  -0.070265127 
 E8   /kcal   :  -0.000000000 
 % E8         :   0.000000000 

-------------------------   ----------------
Dispersion correction           -0.000111975
-------------------------   ----------------


-------------------------   --------------------
FINAL SINGLE POINT ENERGY     -1119.818211634568
-------------------------   --------------------


                            ***************************************
                            *     ORCA property calculations      *
                            ***************************************

                                    ---------------------
                                    Active property flags
                                    ---------------------
   (+) Dipole Moment


------------------------------------------------------------------------------
                       ORCA ELECTRIC PROPERTIES CALCULATION
------------------------------------------------------------------------------

Dipole Moment Calculation                       ... on
Quadrupole Moment Calculation                   ... off
Polarizability Calculation                      ... off
GBWName                                         ... 23_CrO.gbw
Electron density file                           ... 23_CrO.scfp
The origin for moment calculation is the CENTER OF MASS  = ( 0.000000,  0.000000  1.081983)

-------------
DIPOLE MOMENT
-------------
                                X             Y             Z
Electronic contribution:     -0.00000       0.00000      -2.91127
Nuclear contribution   :      0.00000       0.00000       1.43702
                        -----------------------------------------
Total Dipole Moment    :     -0.00000       0.00000      -1.47425
                        -----------------------------------------
Magnitude (a.u.)       :      1.47425
Magnitude (Debye)      :      3.74724



--------------------
Rotational spectrum 
--------------------
 
Rotational constants in cm-1:     0.000000     0.528468     0.528468 
Rotational constants in MHz :     0.000000 15843.074100 15843.074100 

 Dipole components along the rotational axes: 
x,y,z [a.u.] :    -1.474250     0.000000    -0.000000 
x,y,z [Debye]:    -3.747245     0.000000    -0.000000 

 

Timings for individual modules:

Sum of individual times         ...        6.969 sec (=   0.116 min)
GTO integral calculation        ...        2.726 sec (=   0.045 min)  39.1 %
SCF iterations                  ...        4.243 sec (=   0.071 min)  60.9 %
                             ****ORCA TERMINATED NORMALLY****
TOTAL RUN TIME: 0 days 0 hours 0 minutes 7 seconds 556 msec
