
                                 *****************
                                 * O   R   C   A *
                                 *****************

           --- An Ab Initio, DFT and Semiempirical electronic structure package ---

                  #######################################################
                  #                        -***-                        #
                  #          Department of theory and spectroscopy      #
                  #               Directorship: Frank Neese             #
                  #        Max Planck Institute fuer Kohlenforschung    #
                  #                Kaiser Wilhelm Platz 1               #
                  #                 D-45470 Muelheim/Ruhr               #
                  #                      Germany                        #
                  #                                                     #
                  #                  All rights reserved                #
                  #                        -***-                        #
                  #######################################################


                         Program Version 4.2.0 -  RELEASE  -


 With contributions from (in alphabetic order):
   Daniel Aravena         : Magnetic Suceptibility
   Michael Atanasov       : Ab Initio Ligand Field Theory (pilot matlab implementation)
   Alexander A. Auer      : GIAO ZORA, VPT2
   Ute Becker             : Parallelization
   Giovanni Bistoni       : ED, misc. LED, open-shell LED, HFLED
   Martin Brehm           : Molecular dynamics
   Dmytro Bykov           : SCF Hessian
   Vijay G. Chilkuri      : MRCI spin determinant printing, contributions to CSF-ICE
   Dipayan Datta          : RHF DLPNO-CCSD density
   Achintya Kumar Dutta   : EOM-CC, STEOM-CC
   Dmitry Ganyushin       : Spin-Orbit,Spin-Spin,Magnetic field MRCI
   Miquel Garcia          : C-PCM Hessian, Gaussian charge scheme
   Yang Guo               : DLPNO-NEVPT2, CIM, IAO-localization
   Andreas Hansen         : Spin unrestricted coupled pair/coupled cluster methods
   Benjamin Helmich-Paris : CASSCF linear response (MC-RPA)
   Lee Huntington         : MR-EOM, pCC
   Robert Izsak           : Overlap fitted RIJCOSX, COSX-SCS-MP3, EOM
   Christian Kollmar      : KDIIS, OOCD, Brueckner-CCSD(T), CCSD density
   Simone Kossmann        : Meta GGA functionals, TD-DFT gradient, OOMP2, MP2 Hessian
   Martin Krupicka        : AUTO-CI
   Lucas Lang             : DCDCAS
   Dagmar Lenk            : GEPOL surface, SMD
   Dimitrios Liakos       : Extrapolation schemes; Compound Job, initial MDCI parallelization
   Dimitrios Manganas     : Further ROCIS development; embedding schemes
   Dimitrios Pantazis     : SARC Basis sets
   Taras Petrenko         : DFT Hessian,TD-DFT gradient, ASA, ECA, R-Raman, ABS, FL, XAS/XES, NRVS
   Peter Pinski           : DLPNO-MP2, DLPNO-MP2 Gradient
   Christoph Reimann      : Effective Core Potentials
   Marius Retegan         : Local ZFS, SOC
   Christoph Riplinger    : Optimizer, TS searches, QM/MM, DLPNO-CCSD(T), (RO)-DLPNO pert. Triples
   Tobias Risthaus        : Range-separated hybrids, TD-DFT gradient, RPA, STAB
   Michael Roemelt        : Original ROCIS implementation
   Masaaki Saitow         : Open-shell DLPNO-CCSD energy and density
   Barbara Sandhoefer     : DKH picture change effects
   Avijit Sen             : IP-ROCIS
   Kantharuban Sivalingam : CASSCF convergence, NEVPT2, FIC-MRCI
   Bernardo de Souza      : ESD, SOC TD-DFT
   Georgi Stoychev        : AutoAux, RI-MP2 NMR
   Willem Van den Heuvel  : Paramagnetic NMR
   Boris Wezisla          : Elementary symmetry handling
   Frank Wennmohs         : Technical directorship


 We gratefully acknowledge several colleagues who have allowed us to
 interface, adapt or use parts of their codes:
   Stefan Grimme, W. Hujo, H. Kruse,             : VdW corrections, initial TS optimization,
                  C. Bannwarth                     DFT functionals, gCP, sTDA/sTD-DF
   Ed Valeev, F. Pavosevic, A. Kumar             : LibInt (2-el integral package), F12 methods
   Garnet Chan, S. Sharma, J. Yang, R. Olivares  : DMRG
   Ulf Ekstrom                                   : XCFun DFT Library
   Mihaly Kallay                                 : mrcc  (arbitrary order and MRCC methods)
   Andreas Klamt, Michael Diedenhofen            : otool_cosmo (COSMO solvation model)
   Jiri Pittner, Ondrej Demel                    : Mk-CCSD
   Frank Weinhold                                : gennbo (NPA and NBO analysis)
   Christopher J. Cramer and Donald G. Truhlar   : smd solvation model
   Lars Goerigk                                  : TD-DFT with DH, B97 family of functionals
   V. Asgeirsson, H. Jonsson                     : NEB implementation
   FAccTs GmbH                                   : IRC, NEB, NEB-TS, Multilevel, MM, QM/MM, CI optimization
   S Lehtola, MJT Oliveira, MAL Marques          : LibXC Library


 Your calculation uses the libint2 library for the computation of 2-el integrals
 For citations please refer to: http://libint.valeyev.net

 Your ORCA version has been built with support for libXC version: 4.2.3
 For citations please refer to: https://tddft.org/programs/libxc/

 This ORCA versions uses:
   CBLAS   interface :  Fast vector & matrix operations
   LAPACKE interface :  Fast linear algebra routines
   SCALAPACK package :  Parallel linear algebra routines


Your calculation utilizes the atom-pairwise dispersion correction
with the Becke-Johnson damping scheme (D3BJ)
Cite in your paper:
S.Grimme, S.Ehrlich, L.Goerigk, J Comput Chem, (2011), 32, 1456–1465 
S.Grimme, J.Antony, S.Ehrlich and H.Krieg, J.Chem.Phys., 132, (2010), 154104 
   

----- Orbital basis set information -----
Your calculation utilizes the basis: aug-cc-pVTZ 
    H, B-Ne : Obtained from the ccRepo (grant-hill.group.shef.ac.uk/ccrepo) Feb. 2017
              R. A. Kendall, T. H. Dunning, Jr., R. J. Harrison, J. Chem. Phys. 96, 6796 (1992)
         He : Obtained from the ccRepo (grant-hill.group.shef.ac.uk/ccrepo) Feb. 2017
              D. E. Woon, T. H. Dunning, Jr., J. Chem. Phys. 100, 2975 (1994)
  Li-Be, Na : Obtained from the ccRepo (grant-hill.group.shef.ac.uk/ccrepo) Feb. 2017
              B. P. Prascher, D. E. Woon, K. A. Peterson, T. H. Dunning, Jr., A. K. Wilson, Theor. Chem. Acc. 128, 69 (2011)
         Mg : Obtained from the Peterson Research Group Website (tyr0.chem.wsu.edu/~kipeters) Feb. 2017
              B. P. Prascher, D. E. Woon, K. A. Peterson, T. H. Dunning, Jr., A. K. Wilson, Theor. Chem. Acc. 128, 69 (2011)
      Al-Ar : Obtained from the ccRepo (grant-hill.group.shef.ac.uk/ccrepo) Feb. 2017
              D. E. Woon, T. H. Dunning, Jr., J. Chem. Phys. 98, 1358 (1993)
      Sc-Zn : Obtained from the ccRepo (grant-hill.group.shef.ac.uk/ccrepo) Feb. 2017
              N. B. Balabanov, K. A. Peterson, J. Chem. Phys. 123, 064107 (2005)
              N. B. Balabanov, K. A. Peterson, J. Chem. Phys. 125, 074110 (2006)
      Ga-Kr : Obtained from the ccRepo (grant-hill.group.shef.ac.uk/ccrepo) Feb. 2017
              A. K. Wilson, D. E. Woon, K. A. Peterson, T. H. Dunning, Jr., J. Chem. Phys. 110, 7667 (1999)
     Ag, Au : Obtained from the Peterson Research Group Website (tyr0.chem.wsu.edu/~kipeters) Feb. 2017
              K. A. Peterson, C. Puzzarini, Theor. Chem. Acc. 114, 283 (2005)

----- AuxJ basis set information -----
Your calculation utilizes the auxiliary basis: def2/J
   F. Weigend, Phys. Chem. Chem. Phys. 8, 1057 (2006).

================================================================================
                                        WARNINGS
                       Please study these warnings very carefully!
================================================================================


WARNING: your system is open-shell and RHF/RKS was chosen
  ===> : WILL SWITCH to UHF/UKS


WARNING: The SCAN functional is very grid-sensitive!
         Use at least GRID5 and a higher intacc

INFO   : the flag for use of LIBINT has been found!

================================================================================
                                       INPUT FILE
================================================================================
NAME = 32_FeF.in
|  1> #
|  2> # 32_FeF scanfunc/aug-cc-pvtz
|  3> #
|  4> ! scanfunc d3bj aug-cc-pvtz def2/j grid4 nofinalgrid
|  5> 
|  6> *xyz 0 6
|  7>   Fe  0.00000000000000      0.00000000000000      0.10964273788681
|  8>   F   0.00000000000000      0.00000000000000      1.89035726211319
|  9> *
| 10> 
| 11> %pal
| 12> nprocs 24
| 13> end
| 14> 
| 15> 
| 16>                          ****END OF INPUT****
================================================================================

                       ****************************
                       * Single Point Calculation *
                       ****************************

---------------------------------
CARTESIAN COORDINATES (ANGSTROEM)
---------------------------------
  Fe     0.000000    0.000000    0.109643
  F      0.000000    0.000000    1.890357

----------------------------
CARTESIAN COORDINATES (A.U.)
----------------------------
  NO LB      ZA    FRAG     MASS         X           Y           Z
   0 Fe   26.0000    0    55.850    0.000000    0.000000    0.207195
   1 F     9.0000    0    18.998    0.000000    0.000000    3.572258

--------------------------------
INTERNAL COORDINATES (ANGSTROEM)
--------------------------------
 Fe     0   0   0     0.000000000000     0.00000000     0.00000000
 F      1   0   0     1.780714524226     0.00000000     0.00000000

---------------------------
INTERNAL COORDINATES (A.U.)
---------------------------
 Fe     0   0   0     0.000000000000     0.00000000     0.00000000
 F      1   0   0     3.365062773484     0.00000000     0.00000000

---------------------
BASIS SET INFORMATION
---------------------
There are 2 groups of distinct atoms

 Group   1 Type Fe  : 116s77p23d3f2g contracted to 8s7p5d3f2g pattern {19191919191911/151515151511/77711/111/11}
 Group   2 Type F   : 19s6p3d2f contracted to 5s4p3d2f pattern {88111/3111/111/11}

Atom   0Fe   basis set group =>   1
Atom   1F    basis set group =>   2
---------------------------------
AUXILIARY/J BASIS SET INFORMATION
---------------------------------
There are 2 groups of distinct atoms

 Group   1 Type Fe  : 19s5p5d3f3g contracted to 8s5p5d2f3g pattern {121111111/11111/11111/21/111}
 Group   2 Type F   : 12s5p4d2f1g contracted to 6s4p3d1f1g pattern {711111/2111/211/2/1}

Atom   0Fe   basis set group =>   1
Atom   1F    basis set group =>   2


           ************************************************************
           *        Program running with 24 parallel MPI-processes    *
           *              working on a common directory               *
           ************************************************************
------------------------------------------------------------------------------
                           ORCA GTO INTEGRAL CALCULATION
                           -- RI-GTO INTEGRALS CHOSEN --
------------------------------------------------------------------------------

                         BASIS SET STATISTICS AND STARTUP INFO

Gaussian basis set:
 # of primitive gaussian shells          ...  251
 # of primitive gaussian functions       ...  567
 # of contracted shells                  ...   39
 # of contracted basis functions         ...  139
 Highest angular momentum                ...    4
 Maximum contraction depth               ...   19
Auxiliary gaussian basis set:
 # of primitive gaussian shells          ...   59
 # of primitive gaussian functions       ...  177
 # of contracted shells                  ...   38
 # of contracted aux-basis functions     ...  138
 Highest angular momentum                ...    4
 Maximum contraction depth               ...   12
Ratio of auxiliary to basis functions    ...  0.99
Integral package used                  ... LIBINT
 One Electron integrals                  ... done
 Ordering auxiliary basis shells         ... done
 Integral threshhold             Thresh  ...  1.000e-10
 Primitive cut-off               TCut    ...  1.000e-11
 Pre-screening matrix                    ... done
 Shell pair data                         ... 
 Ordering of the shell pairs             ... done (   0.000 sec) 780 of 780 pairs
 Determination of significant pairs      ... done (   0.000 sec)
 Creation of shell pair data             ... done (   0.001 sec)
 Storage of shell pair data              ... done (   0.008 sec)
 Shell pair data done in (   0.009 sec)
 Computing two index integrals           ... done
 Cholesky decomposition of the V-matrix  ... done


Timings:
 Total evaluation time                   ...   2.253 sec (  0.038 min)
 One electron matrix time                ...   0.048 sec (  0.001 min) =  2.1%
 Schwartz matrix evaluation time         ...   2.168 sec (  0.036 min) = 96.2%
 Two index repulsion integral time       ...   0.001 sec (  0.000 min) =  0.0%
 Cholesky decomposition of V             ...   0.001 sec (  0.000 min) =  0.0%
 Three index repulsion integral time     ...   0.000 sec (  0.000 min) =  0.0%



           ************************************************************
           *        Program running with 24 parallel MPI-processes    *
           *              working on a common directory               *
           ************************************************************
-------------------------------------------------------------------------------
                                 ORCA SCF
-------------------------------------------------------------------------------

------------
SCF SETTINGS
------------
Hamiltonian:
 Density Functional     Method          .... DFT(GTOs)
 Exchange Functional    Exchange        .... SCAN
 Correlation Functional Correlation     .... SCAN
 Gradients option       PostSCFGGA      .... off
   Density functional embedding theory  .... OFF
   NL short-range parameter             ....  6.400000
 RI-approximation to the Coulomb term is turned on
   Number of auxiliary basis functions  .... 138


General Settings:
 Integral files         IntName         .... 32_FeF
 Hartree-Fock type      HFTyp           .... UHF
 Total Charge           Charge          ....    0
 Multiplicity           Mult            ....    6
 Number of Electrons    NEL             ....   35
 Basis Dimension        Dim             ....  139
 Nuclear Repulsion      ENuc            ....     69.5380787080 Eh

Convergence Acceleration:
 DIIS                   CNVDIIS         .... on
   Start iteration      DIISMaxIt       ....    12
   Startup error        DIISStart       ....  0.200000
   # of expansion vecs  DIISMaxEq       ....     5
   Bias factor          DIISBfac        ....   1.050
   Max. coefficient     DIISMaxC        ....  10.000
 Newton-Raphson         CNVNR           .... off
 SOSCF                  CNVSOSCF        .... off
 Level Shifting         CNVShift        .... on
   Level shift para.    LevelShift      ....    0.2500
   Turn off err/grad.   ShiftErr        ....    0.0010
 Zerner damping         CNVZerner       .... off
 Static damping         CNVDamp         .... on
   Fraction old density DampFac         ....    0.7000
   Max. Damping (<1)    DampMax         ....    0.9800
   Min. Damping (>=0)   DampMin         ....    0.0000
   Turn off err/grad.   DampErr         ....    0.1000
 Fernandez-Rico         CNVRico         .... off

SCF Procedure:
 Maximum # iterations   MaxIter         ....   125
 SCF integral mode      SCFMode         .... Direct
   Integral package                     .... LIBINT
 Reset frequency        DirectResetFreq ....    20
 Integral Threshold     Thresh          ....  1.000e-10 Eh
 Primitive CutOff       TCut            ....  1.000e-11 Eh

Convergence Tolerance:
 Convergence Check Mode ConvCheckMode   .... Total+1el-Energy
 Convergence forced     ConvForced      .... 0
 Energy Change          TolE            ....  1.000e-06 Eh
 1-El. energy change                    ....  1.000e-03 Eh
 DIIS Error             TolErr          ....  1.000e-06


Diagonalization of the overlap matrix:
Smallest eigenvalue                        ... 9.071e-05
Time for diagonalization                   ...    0.005 sec
Threshold for overlap eigenvalues          ... 1.000e-08
Number of eigenvalues below threshold      ... 0
Time for construction of square roots      ...    0.002 sec
Total time needed                          ...    0.008 sec

-------------------
DFT GRID GENERATION
-------------------

General Integration Accuracy     IntAcc      ...  4.670
Radial Grid Type                 RadialGrid  ... Gauss-Chebyshev
Angular Grid (max. acc.)         AngularGrid ... Lebedev-302
Angular grid pruning method      GridPruning ... 3 (G Style)
Weight generation scheme         WeightScheme... Becke
Basis function cutoff            BFCut       ...    1.0000e-10
Integration weight cutoff        WCut        ...    1.0000e-14
Grids for H and He will be reduced by one unit

# of grid points (after initial pruning)     ...  15912 (   0.0 sec)
# of grid points (after weights+screening)   ...  15863 (   0.0 sec)
nearest neighbour list constructed           ...    0.0 sec
Grid point re-assignment to atoms done       ...    0.0 sec
Grid point division into batches done        ...    0.1 sec
Reduced shell lists constructed in    0.1 sec

Total number of grid points                  ...    15863
Total number of batches                      ...      249
Average number of points per batch           ...       63
Average number of grid points per atom       ...     7932
Average number of shells per batch           ...    14.33 (36.75%)
Average number of basis functions per batch  ...    34.17 (24.58%)
Average number of large shells per batch     ...     7.42 (51.74%)
Average number of large basis fcns per batch ...    18.75 (54.88%)
Maximum spatial batch extension              ...  28.57, 31.41, 18.49 au
Average spatial batch extension              ...   0.89,  0.95,  0.67 au

Time for grid setup =    0.162 sec

------------------------------
INITIAL GUESS: MODEL POTENTIAL
------------------------------
Loading Hartree-Fock densities                     ... done
Calculating cut-offs                               ... done
Setting up the integral package                    ... done
Initializing the effective Hamiltonian             ... done
Starting the Coulomb interaction                   ... done (   0.0 sec)
Reading the grid                                   ... done
Mapping shells                                     ... done
Starting the XC term evaluation                    ... done (   0.0 sec)
  promolecular density results
     # of electrons  =     34.999991727
     EX              =    -72.309921248
     EC              =     -0.610718501
     EX+EC           =    -72.920639749
Transforming the Hamiltonian                       ... done (   0.0 sec)
Diagonalizing the Hamiltonian                      ... done (   0.0 sec)
Back transforming the eigenvectors                 ... done (   0.0 sec)
Now organizing SCF variables                       ... done
                      ------------------
                      INITIAL GUESS DONE (   0.3 sec)
                      ------------------
--------------
SCF ITERATIONS
--------------
ITER       Energy         Delta-E        Max-DP      RMS-DP      [F,P]     Damp
               ***  Starting incremental Fock matrix formation  ***
  0  -1363.4548104925   0.000000000000 0.22174790  0.00366416  0.5147705 0.7000
  1  -1363.5780025644  -0.123192071904 0.11720648  0.00206343  0.1716046 0.7000
                               ***Turning on DIIS***
  2  -1363.6115363913  -0.033533826897 0.20467044  0.00380793  0.0517036 0.0000
  3  -1363.6958074198  -0.084271028540 0.01913373  0.00051029  0.0785485 0.0000
  4  -1363.7026593723  -0.006851952513 0.01676012  0.00020722  0.0379837 0.0000
  5  -1363.7036904851  -0.001031112817 0.01218339  0.00019530  0.0214667 0.0000
  6  -1363.7040218964  -0.000331411224 0.00889922  0.00008921  0.0037710 0.0000
  7  -1363.7040488458  -0.000026949410 0.00694329  0.00006191  0.0007949 0.0000
  8  -1363.7040528909  -0.000004045139 0.00093539  0.00000991  0.0001875 0.0000
  9  -1363.7040529182  -0.000000027231 0.00037618  0.00000394  0.0002600 0.0000
 10  -1363.7040530341  -0.000000115982 0.00003501  0.00000070  0.0000788 0.0000
                 **** Energy Check signals convergence ****

               *****************************************************
               *                     SUCCESS                       *
               *           SCF CONVERGED AFTER  11 CYCLES          *
               *****************************************************


----------------
TOTAL SCF ENERGY
----------------

Total Energy       :        -1363.70405293 Eh          -37108.27383 eV

Components:
Nuclear Repulsion  :           69.53807871 Eh            1892.22732 eV
Electronic Energy  :        -1433.24213164 Eh          -39000.50115 eV
One Electron Energy:        -2023.63682951 Eh          -55065.95763 eV
Two Electron Energy:          590.39469787 Eh           16065.45648 eV

Virial components:
Potential Energy   :        -2724.91426028 Eh          -74148.68667 eV
Kinetic Energy     :         1361.21020735 Eh           37040.41284 eV
Virial Ratio       :            2.00183208


DFT components:
N(Alpha)           :       20.000013952288 electrons
N(Beta)            :       15.000013895207 electrons
N(Total)           :       35.000027847495 electrons
E(X)               :      -64.765969332026 Eh       
E(C)               :       -1.445717417752 Eh       
E(XC)              :      -66.211686749778 Eh       
DFET-embed. en.    :        0.000000000000 Eh       

---------------
SCF CONVERGENCE
---------------

  Last Energy change         ...    1.0681e-07  Tolerance :   1.0000e-06
  Last MAX-Density change    ...    1.5790e-05  Tolerance :   1.0000e-05
  Last RMS-Density change    ...    3.9093e-07  Tolerance :   1.0000e-06
  Last DIIS Error            ...    2.7321e-05  Tolerance :   1.0000e-06

             **** THE GBW FILE WAS UPDATED (32_FeF.gbw) ****
             **** DENSITY FILE WAS UPDATED (32_FeF.scfp) ****
             **** ENERGY FILE WAS UPDATED (32_FeF.en.tmp) ****
----------------------
UHF SPIN CONTAMINATION
----------------------

Warning: in a DFT calculation there is little theoretical justification to 
         calculate <S**2> as in Hartree-Fock theory. We will do it anyways
         but you should keep in mind that the values have only limited relevance

Expectation value of <S**2>     :     8.753094
Ideal value S*(S+1) for S=2.5   :     8.750000
Deviation                       :     0.003094

             **** THE GBW FILE WAS UPDATED (32_FeF.gbw) ****
             **** DENSITY FILE WAS UPDATED (32_FeF.scfp) ****
----------------
ORBITAL ENERGIES
----------------
                 SPIN UP ORBITALS
  NO   OCC          E(Eh)            E(eV) 
   0   1.0000    -255.629079     -6956.0209 
   1   1.0000     -29.937107      -814.6301 
   2   1.0000     -25.777608      -701.4444 
   3   1.0000     -25.754089      -700.8044 
   4   1.0000     -25.754089      -700.8044 
   5   1.0000     -24.465775      -665.7476 
   6   1.0000      -3.544913       -96.4620 
   7   1.0000      -2.347352       -63.8747 
   8   1.0000      -2.292501       -62.3821 
   9   1.0000      -2.292501       -62.3821 
  10   1.0000      -1.083434       -29.4817 
  11   1.0000      -0.424090       -11.5401 
  12   1.0000      -0.388487       -10.5713 
  13   1.0000      -0.388487       -10.5713 
  14   1.0000      -0.343639        -9.3509 
  15   1.0000      -0.310707        -8.4548 
  16   1.0000      -0.310707        -8.4548 
  17   1.0000      -0.309121        -8.4116 
  18   1.0000      -0.298130        -8.1125 
  19   1.0000      -0.193313        -5.2603 
  20   0.0000      -0.047086        -1.2813 
  21   0.0000      -0.047085        -1.2813 
  22   0.0000       0.008722         0.2373 
  23   0.0000       0.034432         0.9369 
  24   0.0000       0.043719         1.1897 
  25   0.0000       0.043720         1.1897 
  26   0.0000       0.061652         1.6776 
  27   0.0000       0.086122         2.3435 
  28   0.0000       0.086666         2.3583 
  29   0.0000       0.094404         2.5689 
  30   0.0000       0.094411         2.5690 
  31   0.0000       0.098957         2.6927 
  32   0.0000       0.131325         3.5735 
  33   0.0000       0.186057         5.0629 
  34   0.0000       0.186057         5.0629 
  35   0.0000       0.203068         5.5258 
  36   0.0000       0.250406         6.8139 
  37   0.0000       0.259475         7.0607 
  38   0.0000       0.259477         7.0607 
  39   0.0000       0.263554         7.1717 
  40   0.0000       0.266268         7.2455 
  41   0.0000       0.285302         7.7635 
  42   0.0000       0.285306         7.7636 
  43   0.0000       0.334021         9.0892 
  44   0.0000       0.451431        12.2841 
  45   0.0000       0.562101        15.2955 
  46   0.0000       0.690173        18.7805 
  47   0.0000       0.691148        18.8071 
  48   0.0000       0.712942        19.4001 
  49   0.0000       0.712943        19.4002 
  50   0.0000       0.806091        21.9349 
  51   0.0000       0.806091        21.9349 
  52   0.0000       0.816026        22.2052 
  53   0.0000       0.860951        23.4277 
  54   0.0000       0.860952        23.4277 
  55   0.0000       0.939388        25.5620 
  56   0.0000       0.946862        25.7654 
  57   0.0000       0.946862        25.7654 
  58   0.0000       0.986905        26.8550 
  59   0.0000       0.989118        26.9153 
  60   0.0000       1.043091        28.3839 
  61   0.0000       1.043092        28.3840 
  62   0.0000       1.046113        28.4662 
  63   0.0000       1.058354        28.7993 
  64   0.0000       1.087106        29.5817 
  65   0.0000       1.355621        36.8883 
  66   0.0000       1.387173        37.7469 
  67   0.0000       1.501122        40.8476 
  68   0.0000       1.501123        40.8476 
  69   0.0000       2.291130        62.3448 
  70   0.0000       2.383401        64.8556 
  71   0.0000       2.383401        64.8556 
  72   0.0000       2.520385        68.5832 
  73   0.0000       2.527561        68.7784 
  74   0.0000       2.542618        69.1882 
  75   0.0000       2.596540        70.6555 
  76   0.0000       2.596540        70.6555 
  77   0.0000       2.653190        72.1970 
  78   0.0000       2.664314        72.4997 
  79   0.0000       2.736081        74.4525 
  80   0.0000       2.736081        74.4525 
  81   0.0000       2.758824        75.0714 
  82   0.0000       2.760600        75.1198 
  83   0.0000       2.788853        75.8885 
  84   0.0000       2.788853        75.8885 
  85   0.0000       2.804063        76.3024 
  86   0.0000       2.933068        79.8128 
  87   0.0000       2.959052        80.5199 
  88   0.0000       2.959053        80.5199 
  89   0.0000       3.240301        88.1731 
  90   0.0000       3.240301        88.1731 
  91   0.0000       3.288738        89.4911 
  92   0.0000       3.290397        89.5363 
  93   0.0000       3.309381        90.0528 
  94   0.0000       3.309381        90.0528 
  95   0.0000       3.313156        90.1555 
  96   0.0000       3.560487        96.8858 
  97   0.0000       3.619072        98.4800 
  98   0.0000       3.624566        98.6295 
  99   0.0000       4.082591       111.0930 
 100   0.0000       4.082591       111.0930 
 101   0.0000       4.258877       115.8899 
 102   0.0000       4.404213       119.8447 
 103   0.0000       4.448323       121.0450 
 104   0.0000       4.751479       129.2943 
 105   0.0000       4.751479       129.2943 
 106   0.0000       4.909424       133.5922 
 107   0.0000       4.909424       133.5922 
 108   0.0000       5.057550       137.6229 
 109   0.0000       5.897611       160.4821 
 110   0.0000       8.522788       231.9168 
 111   0.0000       8.522788       231.9168 
 112   0.0000       8.601358       234.0548 
 113   0.0000       8.602517       234.0864 
 114   0.0000       8.698899       236.7091 
 115   0.0000       8.698899       236.7091 
 116   0.0000       8.799952       239.4589 
 117   0.0000       8.805313       239.6047 
 118   0.0000       8.822742       240.0790 
 119   0.0000       8.844703       240.6766 
 120   0.0000       8.860345       241.1022 
 121   0.0000       8.860345       241.1022 
 122   0.0000       8.880728       241.6569 
 123   0.0000       8.890443       241.9213 
 124   0.0000       8.974144       244.1989 
 125   0.0000       8.974144       244.1989 
 126   0.0000       9.131631       248.4843 
 127   0.0000       9.131631       248.4843 
 128   0.0000       9.412002       256.1136 
 129   0.0000       9.700782       263.9717 
 130   0.0000       9.700782       263.9717 
 131   0.0000       9.720004       264.4948 
 132   0.0000       9.724443       264.6155 
 133   0.0000       9.775693       266.0101 
 134   0.0000       9.801984       266.7255 
 135   0.0000      10.059751       273.7397 
 136   0.0000      10.059751       273.7397 
 137   0.0000      10.288189       279.9558 
 138   0.0000      14.177096       385.7784 

                 SPIN DOWN ORBITALS
  NO   OCC          E(Eh)            E(eV) 
   0   1.0000    -255.619655     -6955.7644 
   1   1.0000     -29.911525      -813.9340 
   2   1.0000     -25.730284      -700.1566 
   3   1.0000     -25.719546      -699.8644 
   4   1.0000     -25.719546      -699.8644 
   5   1.0000     -24.456508      -665.4954 
   6   1.0000      -3.340678       -90.9045 
   7   1.0000      -2.118477       -57.6467 
   8   1.0000      -2.103072       -57.2275 
   9   1.0000      -2.103072       -57.2275 
  10   1.0000      -1.061922       -28.8964 
  11   1.0000      -0.374746       -10.1973 
  12   1.0000      -0.338742        -9.2176 
  13   1.0000      -0.338742        -9.2176 
  14   1.0000      -0.221178        -6.0186 
  15   0.0000      -0.148626        -4.0443 
  16   0.0000      -0.133998        -3.6463 
  17   0.0000      -0.133998        -3.6463 
  18   0.0000      -0.093591        -2.5467 
  19   0.0000      -0.066954        -1.8219 
  20   0.0000      -0.026508        -0.7213 
  21   0.0000      -0.007633        -0.2077 
  22   0.0000      -0.007631        -0.2077 
  23   0.0000       0.020022         0.5448 
  24   0.0000       0.042226         1.1490 
  25   0.0000       0.042231         1.1492 
  26   0.0000       0.057741         1.5712 
  27   0.0000       0.057742         1.5712 
  28   0.0000       0.060310         1.6411 
  29   0.0000       0.066136         1.7996 
  30   0.0000       0.066619         1.8128 
  31   0.0000       0.073677         2.0049 
  32   0.0000       0.118431         3.2227 
  33   0.0000       0.190168         5.1747 
  34   0.0000       0.190168         5.1747 
  35   0.0000       0.217440         5.9169 
  36   0.0000       0.251622         6.8470 
  37   0.0000       0.251623         6.8470 
  38   0.0000       0.257067         6.9951 
  39   0.0000       0.283040         7.7019 
  40   0.0000       0.296256         8.0615 
  41   0.0000       0.308520         8.3952 
  42   0.0000       0.308520         8.3953 
  43   0.0000       0.336627         9.1601 
  44   0.0000       0.480427        13.0731 
  45   0.0000       0.578377        15.7384 
  46   0.0000       0.715673        19.4744 
  47   0.0000       0.716780        19.5046 
  48   0.0000       0.758764        20.6470 
  49   0.0000       0.758764        20.6470 
  50   0.0000       0.862444        23.4683 
  51   0.0000       0.871542        23.7159 
  52   0.0000       0.871542        23.7159 
  53   0.0000       0.898339        24.4451 
  54   0.0000       0.898340        24.4451 
  55   0.0000       0.976250        26.5651 
  56   0.0000       0.996155        27.1067 
  57   0.0000       0.996155        27.1067 
  58   0.0000       1.033167        28.1139 
  59   0.0000       1.034396        28.1473 
  60   0.0000       1.084252        29.5040 
  61   0.0000       1.084252        29.5040 
  62   0.0000       1.119937        30.4750 
  63   0.0000       1.124429        30.5973 
  64   0.0000       1.166054        31.7299 
  65   0.0000       1.389864        37.8201 
  66   0.0000       1.431353        38.9491 
  67   0.0000       1.558538        42.4100 
  68   0.0000       1.558538        42.4100 
  69   0.0000       2.332299        63.4651 
  70   0.0000       2.439354        66.3782 
  71   0.0000       2.439354        66.3782 
  72   0.0000       2.563008        69.7430 
  73   0.0000       2.567157        69.8559 
  74   0.0000       2.638121        71.7869 
  75   0.0000       2.696885        73.3860 
  76   0.0000       2.696885        73.3860 
  77   0.0000       2.753353        74.9226 
  78   0.0000       2.766262        75.2738 
  79   0.0000       2.766262        75.2738 
  80   0.0000       2.775359        75.5214 
  81   0.0000       2.798737        76.1575 
  82   0.0000       2.806088        76.3575 
  83   0.0000       2.864604        77.9498 
  84   0.0000       2.864604        77.9498 
  85   0.0000       2.871549        78.1388 
  86   0.0000       3.020140        82.1822 
  87   0.0000       3.050731        83.0146 
  88   0.0000       3.050731        83.0146 
  89   0.0000       3.310614        90.0864 
  90   0.0000       3.310614        90.0864 
  91   0.0000       3.387330        92.1739 
  92   0.0000       3.417170        92.9859 
  93   0.0000       3.425388        93.2096 
  94   0.0000       3.425388        93.2096 
  95   0.0000       3.426280        93.2338 
  96   0.0000       3.659809        99.5885 
  97   0.0000       3.718525       101.1862 
  98   0.0000       3.725982       101.3891 
  99   0.0000       4.206256       114.4581 
 100   0.0000       4.206256       114.4581 
 101   0.0000       4.320814       117.5753 
 102   0.0000       4.504648       122.5777 
 103   0.0000       4.603291       125.2619 
 104   0.0000       4.855014       132.1116 
 105   0.0000       4.855014       132.1116 
 106   0.0000       4.971794       135.2894 
 107   0.0000       4.971794       135.2894 
 108   0.0000       5.157619       140.3459 
 109   0.0000       6.013252       163.6289 
 110   0.0000       8.543813       232.4890 
 111   0.0000       8.543813       232.4890 
 112   0.0000       8.634134       234.9467 
 113   0.0000       8.634411       234.9543 
 114   0.0000       8.811463       239.7721 
 115   0.0000       8.811463       239.7721 
 116   0.0000       8.870630       241.3821 
 117   0.0000       8.871276       241.3997 
 118   0.0000       8.871688       241.4109 
 119   0.0000       8.953503       243.6372 
 120   0.0000       9.002240       244.9634 
 121   0.0000       9.002240       244.9634 
 122   0.0000       9.027755       245.6577 
 123   0.0000       9.027755       245.6577 
 124   0.0000       9.062568       246.6050 
 125   0.0000       9.073199       246.8943 
 126   0.0000       9.282672       252.5944 
 127   0.0000       9.282672       252.5944 
 128   0.0000       9.553622       259.9673 
 129   0.0000       9.766259       265.7534 
 130   0.0000       9.838488       267.7189 
 131   0.0000       9.838488       267.7189 
 132   0.0000       9.853980       268.1404 
 133   0.0000       9.939504       270.4677 
 134   0.0000       9.958234       270.9773 
 135   0.0000      10.226083       278.2659 
 136   0.0000      10.226083       278.2659 
 137   0.0000      10.447872       284.3010 
 138   0.0000      14.197642       386.3375 

                    ********************************
                    * MULLIKEN POPULATION ANALYSIS *
                    ********************************

--------------------------------------------
MULLIKEN ATOMIC CHARGES AND SPIN POPULATIONS
--------------------------------------------
   0 Fe:    0.574936    4.821146
   1 F :   -0.574936    0.178854
Sum of atomic charges         :   -0.0000000
Sum of atomic spin populations:    5.0000000

-----------------------------------------------------
MULLIKEN REDUCED ORBITAL CHARGES AND SPIN POPULATIONS
-----------------------------------------------------
CHARGE
  0 Fes       :     6.915584  s :     6.915584
      pz      :     4.214463  p :    12.277625
      px      :     4.031581
      py      :     4.031581
      dz2     :     1.089183  d :     6.211210
      dxz     :     1.061321
      dyz     :     1.061321
      dx2y2   :     0.999872
      dxy     :     1.999513
      f0      :     0.008225  f :     0.018441
      f+1     :     0.004989
      f-1     :     0.004989
      f+2     :     0.000019
      f-2     :     0.000023
      f+3     :     0.000098
      f-3     :     0.000098
      g0      :     0.001110  g :     0.002204
      g+1     :     0.000514
      g-1     :     0.000514
      g+2     :     0.000002
      g-2     :     0.000022
      g+3     :     0.000003
      g-3     :     0.000003
      g+4     :     0.000035
      g-4     :     0.000000
  1 F s       :     3.994265  s :     3.994265
      pz      :     1.772749  p :     5.565999
      px      :     1.896625
      py      :     1.896625
      dz2     :     0.003825  d :     0.013078
      dxz     :     0.004408
      dyz     :     0.004408
      dx2y2   :     0.000079
      dxy     :     0.000357
      f0      :     0.000560  f :     0.001595
      f+1     :     0.000461
      f-1     :     0.000461
      f+2     :     0.000028
      f-2     :     0.000085
      f+3     :     0.000000
      f-3     :     0.000000

SPIN
  0 Fes       :     0.865086  s :     0.865086
      pz      :     0.185781  p :     0.208077
      px      :     0.011148
      py      :     0.011148
      dz2     :     0.874770  d :     3.748324
      dxz     :     0.936764
      dyz     :     0.936764
      dx2y2   :     0.999872
      dxy     :     0.000154
      f0      :     0.000218  f :    -0.000143
      f+1     :    -0.000127
      f-1     :    -0.000127
      f+2     :     0.000019
      f-2     :     0.000021
      f+3     :    -0.000074
      f-3     :    -0.000074
      g0      :    -0.000113  g :    -0.000197
      g+1     :    -0.000037
      g-1     :    -0.000037
      g+2     :     0.000002
      g-2     :    -0.000003
      g+3     :     0.000002
      g-3     :     0.000002
      g+4     :    -0.000011
      g-4     :    -0.000000
  1 F s       :    -0.000740  s :    -0.000740
      pz      :     0.075703  p :     0.181932
      px      :     0.053115
      py      :     0.053115
      dz2     :    -0.000666  d :    -0.002239
      dxz     :    -0.000751
      dyz     :    -0.000751
      dx2y2   :     0.000079
      dxy     :    -0.000150
      f0      :    -0.000026  f :    -0.000098
      f+1     :    -0.000039
      f-1     :    -0.000039
      f+2     :     0.000028
      f-2     :    -0.000022
      f+3     :     0.000000
      f-3     :     0.000000


                     *******************************
                     * LOEWDIN POPULATION ANALYSIS *
                     *******************************

-------------------------------------------
LOEWDIN ATOMIC CHARGES AND SPIN POPULATIONS
-------------------------------------------
   0 Fe:    0.409369    4.695635
   1 F :   -0.409369    0.304365

----------------------------------------------------
LOEWDIN REDUCED ORBITAL CHARGES AND SPIN POPULATIONS
----------------------------------------------------
CHARGE
  0 Fes       :     6.704729  s :     6.704729
      pz      :     4.317809  p :    12.394830
      px      :     4.038511
      py      :     4.038511
      dz2     :     1.171786  d :     6.307624
      dxz     :     1.071836
      dyz     :     1.071836
      dx2y2   :     0.997722
      dxy     :     1.994443
      f0      :     0.076757  f :     0.169437
      f+1     :     0.046138
      f-1     :     0.046138
      f+2     :     0.000087
      f-2     :     0.000122
      f+3     :     0.000098
      f-3     :     0.000098
      g0      :     0.007421  g :     0.014012
      g+1     :     0.003251
      g-1     :     0.003251
      g+2     :     0.000006
      g-2     :     0.000041
      g+3     :     0.000003
      g-3     :     0.000003
      g+4     :     0.000035
      g-4     :     0.000000
  1 F s       :     3.734643  s :     3.734643
      pz      :     1.876893  p :     5.480234
      px      :     1.801671
      py      :     1.801671
      dz2     :     0.091512  d :     0.158660
      dxz     :     0.030839
      dyz     :     0.030839
      dx2y2   :     0.001542
      dxy     :     0.003927
      f0      :     0.018416  f :     0.035832
      f+1     :     0.007653
      f-1     :     0.007653
      f+2     :     0.000643
      f-2     :     0.001466
      f+3     :     0.000000
      f-3     :     0.000000

SPIN
  0 Fes       :     0.744127  s :     0.744127
      pz      :     0.238220  p :     0.273506
      px      :     0.017643
      py      :     0.017643
      dz2     :     0.854111  d :     3.663632
      dxz     :     0.905733
      dyz     :     0.905733
      dx2y2   :     0.997722
      dxy     :     0.000332
      f0      :     0.003972  f :     0.012782
      f+1     :     0.004397
      f-1     :     0.004397
      f+2     :     0.000087
      f-2     :     0.000076
      f+3     :    -0.000074
      f-3     :    -0.000074
      g0      :     0.000700  g :     0.001587
      g+1     :     0.000454
      g-1     :     0.000454
      g+2     :     0.000006
      g-2     :    -0.000019
      g+3     :     0.000002
      g-3     :     0.000002
      g+4     :    -0.000011
      g-4     :    -0.000000
  1 F s       :     0.033254  s :     0.033254
      pz      :     0.116233  p :     0.216077
      px      :     0.049922
      py      :     0.049922
      dz2     :     0.005601  d :     0.039748
      dxz     :     0.016469
      dyz     :     0.016469
      dx2y2   :     0.001542
      dxy     :    -0.000332
      f0      :     0.003794  f :     0.015286
      f+1     :     0.005454
      f-1     :     0.005454
      f+2     :     0.000643
      f-2     :    -0.000058
      f+3     :     0.000000
      f-3     :     0.000000


                      *****************************
                      * MAYER POPULATION ANALYSIS *
                      *****************************

  NA   - Mulliken gross atomic population
  ZA   - Total nuclear charge
  QA   - Mulliken gross atomic charge
  VA   - Mayer's total valence
  BVA  - Mayer's bonded valence
  FA   - Mayer's free valence

  ATOM       NA         ZA         QA         VA         BVA        FA
  0 Fe    25.4251    26.0000     0.5749     5.4014     0.7612     4.6402
  1 F      9.5749     9.0000    -0.5749     0.7776     0.7612     0.0164

  Mayer bond orders larger than 0.100000
B(  0-Fe,  1-F ) :   0.7612 

-------
TIMINGS
-------

Total SCF time: 0 days 0 hours 0 min 2 sec 

Total time                  ....       2.694 sec
Sum of individual times     ....       2.555 sec  ( 94.8%)

Fock matrix formation       ....       2.178 sec  ( 80.9%)
  Split-RI-J                ....       1.412 sec  ( 64.8% of F)
  XC integration            ....       0.733 sec  ( 33.6% of F)
    Basis function eval.    ....       0.072 sec  (  9.9% of XC)
    Density eval.           ....       0.069 sec  (  9.4% of XC)
    XC-Functional eval.     ....       0.014 sec  (  1.9% of XC)
    XC-Potential eval.      ....       0.205 sec  ( 28.0% of XC)
Diagonalization             ....       0.058 sec  (  2.2%)
Density matrix formation    ....       0.008 sec  (  0.3%)
Population analysis         ....       0.011 sec  (  0.4%)
Initial guess               ....       0.118 sec  (  4.4%)
Orbital Transformation      ....       0.000 sec  (  0.0%)
Orbital Orthonormalization  ....       0.000 sec  (  0.0%)
DIIS solution               ....       0.020 sec  (  0.7%)
Grid generation             ....       0.162 sec  (  6.0%)


-------------------------------------------------------------------------------
                          DFT DISPERSION CORRECTION                            
                                                                               
                              DFTD3 V3.1  Rev 1                                
                          USING Becke-Johnson damping                          
-------------------------------------------------------------------------------
The SCAN functional is recognized
Active option DFTDOPT                   ...         4   

molecular C6(AA) [au] = 301.673700 


            DFT-D V3
 parameters
 s6 scaling factor         :     1.0000 
 a1 scaling factor         :     0.5380 
 s8 scaling factor         :     0.0000 
 a2 scaling factor         :     5.4200 
 ad hoc parameters k1-k3   :    16.0000     1.3333    -4.0000 

 Edisp/kcal,au: -0.044577255521  -0.000071038371 
 E6   /kcal   :  -0.044577256 
 E8   /kcal   :  -0.000000000 
 % E8         :   0.000000000 

-------------------------   ----------------
Dispersion correction           -0.000071038
-------------------------   ----------------


-------------------------   --------------------
FINAL SINGLE POINT ENERGY     -1363.704123965695
-------------------------   --------------------


                            ***************************************
                            *     ORCA property calculations      *
                            ***************************************

                                    ---------------------
                                    Active property flags
                                    ---------------------
   (+) Dipole Moment


------------------------------------------------------------------------------
                       ORCA ELECTRIC PROPERTIES CALCULATION
------------------------------------------------------------------------------

Dipole Moment Calculation                       ... on
Quadrupole Moment Calculation                   ... off
Polarizability Calculation                      ... off
GBWName                                         ... 32_FeF.gbw
Electron density file                           ... 32_FeF.scfp
The origin for moment calculation is the CENTER OF MASS  = ( 0.000000,  0.000000  1.061319)

-------------
DIPOLE MOMENT
-------------
                                X             Y             Z
Electronic contribution:     -0.00000      -0.00000      -1.13378
Nuclear contribution   :      0.00000       0.00000       0.39123
                        -----------------------------------------
Total Dipole Moment    :     -0.00000      -0.00000      -0.74255
                        -----------------------------------------
Magnitude (a.u.)       :      0.74255
Magnitude (Debye)      :      1.88741



--------------------
Rotational spectrum 
--------------------
 
Rotational constants in cm-1:     0.000000     0.375023     0.375023 
Rotational constants in MHz :     0.000000 11242.894653 11242.894653 

 Dipole components along the rotational axes: 
x,y,z [a.u.] :    -0.742548    -0.000000    -0.000000 
x,y,z [Debye]:    -1.887408    -0.000001    -0.000000 

 

Timings for individual modules:

Sum of individual times         ...        5.670 sec (=   0.094 min)
GTO integral calculation        ...        2.647 sec (=   0.044 min)  46.7 %
SCF iterations                  ...        3.022 sec (=   0.050 min)  53.3 %
                             ****ORCA TERMINATED NORMALLY****
TOTAL RUN TIME: 0 days 0 hours 0 minutes 6 seconds 228 msec
