
                                 *****************
                                 * O   R   C   A *
                                 *****************

           --- An Ab Initio, DFT and Semiempirical electronic structure package ---

                  #######################################################
                  #                        -***-                        #
                  #          Department of theory and spectroscopy      #
                  #               Directorship: Frank Neese             #
                  #        Max Planck Institute fuer Kohlenforschung    #
                  #                Kaiser Wilhelm Platz 1               #
                  #                 D-45470 Muelheim/Ruhr               #
                  #                      Germany                        #
                  #                                                     #
                  #                  All rights reserved                #
                  #                        -***-                        #
                  #######################################################


                         Program Version 4.2.0 -  RELEASE  -


 With contributions from (in alphabetic order):
   Daniel Aravena         : Magnetic Suceptibility
   Michael Atanasov       : Ab Initio Ligand Field Theory (pilot matlab implementation)
   Alexander A. Auer      : GIAO ZORA, VPT2
   Ute Becker             : Parallelization
   Giovanni Bistoni       : ED, misc. LED, open-shell LED, HFLED
   Martin Brehm           : Molecular dynamics
   Dmytro Bykov           : SCF Hessian
   Vijay G. Chilkuri      : MRCI spin determinant printing, contributions to CSF-ICE
   Dipayan Datta          : RHF DLPNO-CCSD density
   Achintya Kumar Dutta   : EOM-CC, STEOM-CC
   Dmitry Ganyushin       : Spin-Orbit,Spin-Spin,Magnetic field MRCI
   Miquel Garcia          : C-PCM Hessian, Gaussian charge scheme
   Yang Guo               : DLPNO-NEVPT2, CIM, IAO-localization
   Andreas Hansen         : Spin unrestricted coupled pair/coupled cluster methods
   Benjamin Helmich-Paris : CASSCF linear response (MC-RPA)
   Lee Huntington         : MR-EOM, pCC
   Robert Izsak           : Overlap fitted RIJCOSX, COSX-SCS-MP3, EOM
   Christian Kollmar      : KDIIS, OOCD, Brueckner-CCSD(T), CCSD density
   Simone Kossmann        : Meta GGA functionals, TD-DFT gradient, OOMP2, MP2 Hessian
   Martin Krupicka        : AUTO-CI
   Lucas Lang             : DCDCAS
   Dagmar Lenk            : GEPOL surface, SMD
   Dimitrios Liakos       : Extrapolation schemes; Compound Job, initial MDCI parallelization
   Dimitrios Manganas     : Further ROCIS development; embedding schemes
   Dimitrios Pantazis     : SARC Basis sets
   Taras Petrenko         : DFT Hessian,TD-DFT gradient, ASA, ECA, R-Raman, ABS, FL, XAS/XES, NRVS
   Peter Pinski           : DLPNO-MP2, DLPNO-MP2 Gradient
   Christoph Reimann      : Effective Core Potentials
   Marius Retegan         : Local ZFS, SOC
   Christoph Riplinger    : Optimizer, TS searches, QM/MM, DLPNO-CCSD(T), (RO)-DLPNO pert. Triples
   Tobias Risthaus        : Range-separated hybrids, TD-DFT gradient, RPA, STAB
   Michael Roemelt        : Original ROCIS implementation
   Masaaki Saitow         : Open-shell DLPNO-CCSD energy and density
   Barbara Sandhoefer     : DKH picture change effects
   Avijit Sen             : IP-ROCIS
   Kantharuban Sivalingam : CASSCF convergence, NEVPT2, FIC-MRCI
   Bernardo de Souza      : ESD, SOC TD-DFT
   Georgi Stoychev        : AutoAux, RI-MP2 NMR
   Willem Van den Heuvel  : Paramagnetic NMR
   Boris Wezisla          : Elementary symmetry handling
   Frank Wennmohs         : Technical directorship


 We gratefully acknowledge several colleagues who have allowed us to
 interface, adapt or use parts of their codes:
   Stefan Grimme, W. Hujo, H. Kruse,             : VdW corrections, initial TS optimization,
                  C. Bannwarth                     DFT functionals, gCP, sTDA/sTD-DF
   Ed Valeev, F. Pavosevic, A. Kumar             : LibInt (2-el integral package), F12 methods
   Garnet Chan, S. Sharma, J. Yang, R. Olivares  : DMRG
   Ulf Ekstrom                                   : XCFun DFT Library
   Mihaly Kallay                                 : mrcc  (arbitrary order and MRCC methods)
   Andreas Klamt, Michael Diedenhofen            : otool_cosmo (COSMO solvation model)
   Jiri Pittner, Ondrej Demel                    : Mk-CCSD
   Frank Weinhold                                : gennbo (NPA and NBO analysis)
   Christopher J. Cramer and Donald G. Truhlar   : smd solvation model
   Lars Goerigk                                  : TD-DFT with DH, B97 family of functionals
   V. Asgeirsson, H. Jonsson                     : NEB implementation
   FAccTs GmbH                                   : IRC, NEB, NEB-TS, Multilevel, MM, QM/MM, CI optimization
   S Lehtola, MJT Oliveira, MAL Marques          : LibXC Library


 Your calculation uses the libint2 library for the computation of 2-el integrals
 For citations please refer to: http://libint.valeyev.net

 Your ORCA version has been built with support for libXC version: 4.2.3
 For citations please refer to: https://tddft.org/programs/libxc/

 This ORCA versions uses:
   CBLAS   interface :  Fast vector & matrix operations
   LAPACKE interface :  Fast linear algebra routines
   SCALAPACK package :  Parallel linear algebra routines


Your calculation utilizes the atom-pairwise dispersion correction
with the Becke-Johnson damping scheme (D3BJ)
Cite in your paper:
S.Grimme, S.Ehrlich, L.Goerigk, J Comput Chem, (2011), 32, 1456–1465 
S.Grimme, J.Antony, S.Ehrlich and H.Krieg, J.Chem.Phys., 132, (2010), 154104 
   

----- Orbital basis set information -----
Your calculation utilizes the basis: aug-cc-pVTZ 
    H, B-Ne : Obtained from the ccRepo (grant-hill.group.shef.ac.uk/ccrepo) Feb. 2017
              R. A. Kendall, T. H. Dunning, Jr., R. J. Harrison, J. Chem. Phys. 96, 6796 (1992)
         He : Obtained from the ccRepo (grant-hill.group.shef.ac.uk/ccrepo) Feb. 2017
              D. E. Woon, T. H. Dunning, Jr., J. Chem. Phys. 100, 2975 (1994)
  Li-Be, Na : Obtained from the ccRepo (grant-hill.group.shef.ac.uk/ccrepo) Feb. 2017
              B. P. Prascher, D. E. Woon, K. A. Peterson, T. H. Dunning, Jr., A. K. Wilson, Theor. Chem. Acc. 128, 69 (2011)
         Mg : Obtained from the Peterson Research Group Website (tyr0.chem.wsu.edu/~kipeters) Feb. 2017
              B. P. Prascher, D. E. Woon, K. A. Peterson, T. H. Dunning, Jr., A. K. Wilson, Theor. Chem. Acc. 128, 69 (2011)
      Al-Ar : Obtained from the ccRepo (grant-hill.group.shef.ac.uk/ccrepo) Feb. 2017
              D. E. Woon, T. H. Dunning, Jr., J. Chem. Phys. 98, 1358 (1993)
      Sc-Zn : Obtained from the ccRepo (grant-hill.group.shef.ac.uk/ccrepo) Feb. 2017
              N. B. Balabanov, K. A. Peterson, J. Chem. Phys. 123, 064107 (2005)
              N. B. Balabanov, K. A. Peterson, J. Chem. Phys. 125, 074110 (2006)
      Ga-Kr : Obtained from the ccRepo (grant-hill.group.shef.ac.uk/ccrepo) Feb. 2017
              A. K. Wilson, D. E. Woon, K. A. Peterson, T. H. Dunning, Jr., J. Chem. Phys. 110, 7667 (1999)
     Ag, Au : Obtained from the Peterson Research Group Website (tyr0.chem.wsu.edu/~kipeters) Feb. 2017
              K. A. Peterson, C. Puzzarini, Theor. Chem. Acc. 114, 283 (2005)

----- AuxJ basis set information -----
Your calculation utilizes the auxiliary basis: def2/J
   F. Weigend, Phys. Chem. Chem. Phys. 8, 1057 (2006).

================================================================================
                                        WARNINGS
                       Please study these warnings very carefully!
================================================================================


WARNING: your system is open-shell and RHF/RKS was chosen
  ===> : WILL SWITCH to UHF/UKS


WARNING: The SCAN functional is very grid-sensitive!
         Use at least GRID5 and a higher intacc

INFO   : the flag for use of LIBINT has been found!

================================================================================
                                       INPUT FILE
================================================================================
NAME = 33_FeCl.in
|  1> #
|  2> # 33_FeCl scanfunc/aug-cc-pvtz
|  3> #
|  4> ! scanfunc d3bj aug-cc-pvtz def2/j grid4 nofinalgrid
|  5> 
|  6> *xyz 0 6
|  7>   Fe  0.00000000000000      0.00000000000000     -0.08894892709089
|  8>   Cl  0.00000000000000      0.00000000000000      2.08894892709089
|  9> *
| 10> 
| 11> %pal
| 12> nprocs 24
| 13> end
| 14> 
| 15> 
| 16>                          ****END OF INPUT****
================================================================================

                       ****************************
                       * Single Point Calculation *
                       ****************************

---------------------------------
CARTESIAN COORDINATES (ANGSTROEM)
---------------------------------
  Fe     0.000000    0.000000   -0.088949
  Cl     0.000000    0.000000    2.088949

----------------------------
CARTESIAN COORDINATES (A.U.)
----------------------------
  NO LB      ZA    FRAG     MASS         X           Y           Z
   0 Fe   26.0000    0    55.850    0.000000    0.000000   -0.168089
   1 Cl   17.0000    0    35.453    0.000000    0.000000    3.947541

--------------------------------
INTERNAL COORDINATES (ANGSTROEM)
--------------------------------
 Fe     0   0   0     0.000000000000     0.00000000     0.00000000
 Cl     1   0   0     2.177897854182     0.00000000     0.00000000

---------------------------
INTERNAL COORDINATES (A.U.)
---------------------------
 Fe     0   0   0     0.000000000000     0.00000000     0.00000000
 Cl     1   0   0     4.115630492058     0.00000000     0.00000000

---------------------
BASIS SET INFORMATION
---------------------
There are 2 groups of distinct atoms

 Group   1 Type Fe  : 116s77p23d3f2g contracted to 8s7p5d3f2g pattern {19191919191911/151515151511/77711/111/11}
 Group   2 Type Cl  : 42s17p3d2f contracted to 6s5p3d2f pattern {131313111/77111/111/11}

Atom   0Fe   basis set group =>   1
Atom   1Cl   basis set group =>   2
---------------------------------
AUXILIARY/J BASIS SET INFORMATION
---------------------------------
There are 2 groups of distinct atoms

 Group   1 Type Fe  : 19s5p5d3f3g contracted to 8s5p5d2f3g pattern {121111111/11111/11111/21/111}
 Group   2 Type Cl  : 14s5p5d2f1g contracted to 8s4p3d1f1g pattern {71111111/2111/311/2/1}

Atom   0Fe   basis set group =>   1
Atom   1Cl   basis set group =>   2


           ************************************************************
           *        Program running with 24 parallel MPI-processes    *
           *              working on a common directory               *
           ************************************************************
------------------------------------------------------------------------------
                           ORCA GTO INTEGRAL CALCULATION
                           -- RI-GTO INTEGRALS CHOSEN --
------------------------------------------------------------------------------

                         BASIS SET STATISTICS AND STARTUP INFO

Gaussian basis set:
 # of primitive gaussian shells          ...  285
 # of primitive gaussian functions       ...  623
 # of contracted shells                  ...   41
 # of contracted basis functions         ...  143
 Highest angular momentum                ...    4
 Maximum contraction depth               ...   19
Auxiliary gaussian basis set:
 # of primitive gaussian shells          ...   62
 # of primitive gaussian functions       ...  184
 # of contracted shells                  ...   40
 # of contracted aux-basis functions     ...  140
 Highest angular momentum                ...    4
 Maximum contraction depth               ...   12
Ratio of auxiliary to basis functions    ...  0.98
Integral package used                  ... LIBINT
 One Electron integrals                  ... done
 Ordering auxiliary basis shells         ... done
 Integral threshhold             Thresh  ...  1.000e-10
 Primitive cut-off               TCut    ...  1.000e-11
 Pre-screening matrix                    ... done
 Shell pair data                         ... 
 Ordering of the shell pairs             ... done (   0.000 sec) 861 of 861 pairs
 Determination of significant pairs      ... done (   0.000 sec)
 Creation of shell pair data             ... done (   0.001 sec)
 Storage of shell pair data              ... done (   0.004 sec)
 Shell pair data done in (   0.006 sec)
 Computing two index integrals           ... done
 Cholesky decomposition of the V-matrix  ... done


Timings:
 Total evaluation time                   ...   2.657 sec (  0.044 min)
 One electron matrix time                ...   0.048 sec (  0.001 min) =  1.8%
 Schwartz matrix evaluation time         ...   2.572 sec (  0.043 min) = 96.8%
 Two index repulsion integral time       ...   0.001 sec (  0.000 min) =  0.0%
 Cholesky decomposition of V             ...   0.001 sec (  0.000 min) =  0.0%
 Three index repulsion integral time     ...   0.000 sec (  0.000 min) =  0.0%



           ************************************************************
           *        Program running with 24 parallel MPI-processes    *
           *              working on a common directory               *
           ************************************************************
-------------------------------------------------------------------------------
                                 ORCA SCF
-------------------------------------------------------------------------------

------------
SCF SETTINGS
------------
Hamiltonian:
 Density Functional     Method          .... DFT(GTOs)
 Exchange Functional    Exchange        .... SCAN
 Correlation Functional Correlation     .... SCAN
 Gradients option       PostSCFGGA      .... off
   Density functional embedding theory  .... OFF
   NL short-range parameter             ....  6.400000
 RI-approximation to the Coulomb term is turned on
   Number of auxiliary basis functions  .... 140


General Settings:
 Integral files         IntName         .... 33_FeCl
 Hartree-Fock type      HFTyp           .... UHF
 Total Charge           Charge          ....    0
 Multiplicity           Mult            ....    6
 Number of Electrons    NEL             ....   43
 Basis Dimension        Dim             ....  143
 Nuclear Repulsion      ENuc            ....    107.3954527387 Eh

Convergence Acceleration:
 DIIS                   CNVDIIS         .... on
   Start iteration      DIISMaxIt       ....    12
   Startup error        DIISStart       ....  0.200000
   # of expansion vecs  DIISMaxEq       ....     5
   Bias factor          DIISBfac        ....   1.050
   Max. coefficient     DIISMaxC        ....  10.000
 Newton-Raphson         CNVNR           .... off
 SOSCF                  CNVSOSCF        .... off
 Level Shifting         CNVShift        .... on
   Level shift para.    LevelShift      ....    0.2500
   Turn off err/grad.   ShiftErr        ....    0.0010
 Zerner damping         CNVZerner       .... off
 Static damping         CNVDamp         .... on
   Fraction old density DampFac         ....    0.7000
   Max. Damping (<1)    DampMax         ....    0.9800
   Min. Damping (>=0)   DampMin         ....    0.0000
   Turn off err/grad.   DampErr         ....    0.1000
 Fernandez-Rico         CNVRico         .... off

SCF Procedure:
 Maximum # iterations   MaxIter         ....   125
 SCF integral mode      SCFMode         .... Direct
   Integral package                     .... LIBINT
 Reset frequency        DirectResetFreq ....    20
 Integral Threshold     Thresh          ....  1.000e-10 Eh
 Primitive CutOff       TCut            ....  1.000e-11 Eh

Convergence Tolerance:
 Convergence Check Mode ConvCheckMode   .... Total+1el-Energy
 Convergence forced     ConvForced      .... 0
 Energy Change          TolE            ....  1.000e-06 Eh
 1-El. energy change                    ....  1.000e-03 Eh
 DIIS Error             TolErr          ....  1.000e-06


Diagonalization of the overlap matrix:
Smallest eigenvalue                        ... 1.510e-04
Time for diagonalization                   ...    0.005 sec
Threshold for overlap eigenvalues          ... 1.000e-08
Number of eigenvalues below threshold      ... 0
Time for construction of square roots      ...    0.003 sec
Total time needed                          ...    0.008 sec

-------------------
DFT GRID GENERATION
-------------------

General Integration Accuracy     IntAcc      ...  4.670
Radial Grid Type                 RadialGrid  ... Gauss-Chebyshev
Angular Grid (max. acc.)         AngularGrid ... Lebedev-302
Angular grid pruning method      GridPruning ... 3 (G Style)
Weight generation scheme         WeightScheme... Becke
Basis function cutoff            BFCut       ...    1.0000e-10
Integration weight cutoff        WCut        ...    1.0000e-14
Grids for H and He will be reduced by one unit

# of grid points (after initial pruning)     ...  16378 (   0.0 sec)
# of grid points (after weights+screening)   ...  16351 (   0.0 sec)
nearest neighbour list constructed           ...    0.0 sec
Grid point re-assignment to atoms done       ...    0.0 sec
Grid point division into batches done        ...    0.1 sec
Reduced shell lists constructed in    0.1 sec

Total number of grid points                  ...    16351
Total number of batches                      ...      256
Average number of points per batch           ...       63
Average number of grid points per atom       ...     8176
Average number of shells per batch           ...    14.17 (34.55%)
Average number of basis functions per batch  ...    33.83 (23.66%)
Average number of large shells per batch     ...     7.08 (50.00%)
Average number of large basis fcns per batch ...    18.08 (53.45%)
Maximum spatial batch extension              ...  24.49, 24.19, 18.13 au
Average spatial batch extension              ...   0.85,  0.84,  0.66 au

Time for grid setup =    0.163 sec

------------------------------
INITIAL GUESS: MODEL POTENTIAL
------------------------------
Loading Hartree-Fock densities                     ... done
Calculating cut-offs                               ... done
Setting up the integral package                    ... done
Initializing the effective Hamiltonian             ... done
Starting the Coulomb interaction                   ... done (   0.0 sec)
Reading the grid                                   ... done
Mapping shells                                     ... done
Starting the XC term evaluation                    ... done (   0.0 sec)
  promolecular density results
     # of electrons  =     42.999994011
     EX              =    -92.023387504
     EC              =     -0.754998518
     EX+EC           =    -92.778386022
Transforming the Hamiltonian                       ... done (   0.0 sec)
Diagonalizing the Hamiltonian                      ... done (   0.0 sec)
Back transforming the eigenvectors                 ... done (   0.0 sec)
Now organizing SCF variables                       ... done
                      ------------------
                      INITIAL GUESS DONE (   0.3 sec)
                      ------------------
--------------
SCF ITERATIONS
--------------
ITER       Energy         Delta-E        Max-DP      RMS-DP      [F,P]     Damp
               ***  Starting incremental Fock matrix formation  ***
  0  -1723.3672392177   0.000000000000 0.48994201  0.00750617  0.8147476 0.7000
  1  -1723.2061289365   0.161110281285 0.15793919  0.00256697  0.2318236 0.7000
  2  -1723.4095252391  -0.203396302663 0.12499906  0.00268492  0.3397060 0.7000
                               ***Turning on DIIS***
  3  -1723.6162316906  -0.206706451481 0.09744736  0.00172652  0.1539331 0.7000
  4  -1723.7484720250  -0.132240334380 0.23363738  0.00369434  0.0464431 0.0000
  5  -1724.0444554323  -0.295983407313 0.04657198  0.00060483  0.0698865 0.0000
  6  -1724.0644459862  -0.019990553959 0.08327455  0.00083493  0.0318139 0.0000
  7  -1724.0708209423  -0.006374956055 0.03438798  0.00035945  0.0175478 0.0000
  8  -1724.0719409529  -0.001120010642 0.01723646  0.00019651  0.0064356 0.0000
  9  -1724.0722889187  -0.000347965756 0.00640030  0.00008564  0.0035938 0.0000
 10  -1724.0723560281  -0.000067109379 0.00245467  0.00003790  0.0011775 0.0000
 11  -1724.0723772050  -0.000021176950 0.00208560  0.00003738  0.0007617 0.0000
 12  -1724.0723863447  -0.000009139627 0.00030394  0.00000578  0.0006362 0.0000
 13  -1724.0723876387  -0.000001294002 0.00024986  0.00000379  0.0004110 0.0000
 14  -1724.0723876360   0.000000002683 0.00004241  0.00000088  0.0001599 0.0000
                 **** Energy Check signals convergence ****

               *****************************************************
               *                     SUCCESS                       *
               *           SCF CONVERGED AFTER  15 CYCLES          *
               *****************************************************


----------------
TOTAL SCF ENERGY
----------------

Total Energy       :        -1724.07238776 Eh          -46914.39475 eV

Components:
Nuclear Repulsion  :          107.39545274 Eh            2922.37884 eV
Electronic Energy  :        -1831.46784050 Eh          -49836.77359 eV
One Electron Energy:        -2594.98786910 Eh          -70613.20982 eV
Two Electron Energy:          763.52002860 Eh           20776.43623 eV

Virial components:
Potential Energy   :        -3445.16592322 Eh          -93747.73081 eV
Kinetic Energy     :         1721.09353545 Eh           46833.33606 eV
Virial Ratio       :            2.00173079


DFT components:
N(Alpha)           :       24.000004185266 electrons
N(Beta)            :       19.000004842357 electrons
N(Total)           :       43.000009027623 electrons
E(X)               :      -82.226563669564 Eh       
E(C)               :       -1.793820544069 Eh       
E(XC)              :      -84.020384213633 Eh       
DFET-embed. en.    :        0.000000000000 Eh       

---------------
SCF CONVERGENCE
---------------

  Last Energy change         ...   -1.2802e-07  Tolerance :   1.0000e-06
  Last MAX-Density change    ...    4.4886e-05  Tolerance :   1.0000e-05
  Last RMS-Density change    ...    5.2342e-07  Tolerance :   1.0000e-06
  Last DIIS Error            ...    1.2007e-05  Tolerance :   1.0000e-06

             **** THE GBW FILE WAS UPDATED (33_FeCl.gbw) ****
             **** DENSITY FILE WAS UPDATED (33_FeCl.scfp) ****
             **** ENERGY FILE WAS UPDATED (33_FeCl.en.tmp) ****
----------------------
UHF SPIN CONTAMINATION
----------------------

Warning: in a DFT calculation there is little theoretical justification to 
         calculate <S**2> as in Hartree-Fock theory. We will do it anyways
         but you should keep in mind that the values have only limited relevance

Expectation value of <S**2>     :     8.753956
Ideal value S*(S+1) for S=2.5   :     8.750000
Deviation                       :     0.003956

             **** THE GBW FILE WAS UPDATED (33_FeCl.gbw) ****
             **** DENSITY FILE WAS UPDATED (33_FeCl.scfp) ****
----------------
ORBITAL ENERGIES
----------------
                 SPIN UP ORBITALS
  NO   OCC          E(Eh)            E(eV) 
   0   1.0000    -255.641417     -6956.3566 
   1   1.0000    -101.262998     -2755.5063 
   2   1.0000     -29.949280      -814.9614 
   3   1.0000     -25.790885      -701.8057 
   4   1.0000     -25.765460      -701.1138 
   5   1.0000     -25.765460      -701.1138 
   6   1.0000      -9.313398      -253.4304 
   7   1.0000      -7.072456      -192.4513 
   8   1.0000      -7.070424      -192.3960 
   9   1.0000      -7.070424      -192.3960 
  10   1.0000      -3.554680       -96.7278 
  11   1.0000      -2.357216       -64.1431 
  12   1.0000      -2.302137       -62.6443 
  13   1.0000      -2.302137       -62.6443 
  14   1.0000      -0.764855       -20.8128 
  15   1.0000      -0.397018       -10.8034 
  16   1.0000      -0.374925       -10.2022 
  17   1.0000      -0.374925       -10.2022 
  18   1.0000      -0.352664        -9.5965 
  19   1.0000      -0.316040        -8.5999 
  20   1.0000      -0.306954        -8.3526 
  21   1.0000      -0.288026        -7.8376 
  22   1.0000      -0.288026        -7.8376 
  23   1.0000      -0.192846        -5.2476 
  24   0.0000      -0.053568        -1.4576 
  25   0.0000      -0.053567        -1.4576 
  26   0.0000       0.006813         0.1854 
  27   0.0000       0.029453         0.8014 
  28   0.0000       0.037211         1.0126 
  29   0.0000       0.037216         1.0127 
  30   0.0000       0.059471         1.6183 
  31   0.0000       0.076624         2.0851 
  32   0.0000       0.077217         2.1012 
  33   0.0000       0.084575         2.3014 
  34   0.0000       0.094708         2.5771 
  35   0.0000       0.094725         2.5776 
  36   0.0000       0.111765         3.0413 
  37   0.0000       0.133871         3.6428 
  38   0.0000       0.133875         3.6429 
  39   0.0000       0.148413         4.0385 
  40   0.0000       0.183601         4.9960 
  41   0.0000       0.183606         4.9962 
  42   0.0000       0.184153         5.0111 
  43   0.0000       0.232099         6.3157 
  44   0.0000       0.233651         6.3580 
  45   0.0000       0.257235         6.9997 
  46   0.0000       0.257257         7.0003 
  47   0.0000       0.259788         7.0692 
  48   0.0000       0.280788         7.6406 
  49   0.0000       0.282393         7.6843 
  50   0.0000       0.319832         8.7031 
  51   0.0000       0.366036         9.9604 
  52   0.0000       0.366040         9.9605 
  53   0.0000       0.408357        11.1120 
  54   0.0000       0.502169        13.6647 
  55   0.0000       0.580193        15.7878 
  56   0.0000       0.580195        15.7879 
  57   0.0000       0.679994        18.5036 
  58   0.0000       0.705349        19.1935 
  59   0.0000       0.705352        19.1936 
  60   0.0000       0.746929        20.3250 
  61   0.0000       0.747613        20.3436 
  62   0.0000       0.779470        21.2105 
  63   0.0000       0.779471        21.2105 
  64   0.0000       0.790822        21.5194 
  65   0.0000       0.790823        21.5194 
  66   0.0000       0.797426        21.6991 
  67   0.0000       0.799387        21.7524 
  68   0.0000       0.812837        22.1184 
  69   0.0000       0.861881        23.4530 
  70   0.0000       0.986077        26.8325 
  71   0.0000       0.986083        26.8327 
  72   0.0000       1.024463        27.8771 
  73   0.0000       1.030344        28.0371 
  74   0.0000       1.042989        28.3812 
  75   0.0000       1.042989        28.3812 
  76   0.0000       1.043172        28.3862 
  77   0.0000       1.051537        28.6138 
  78   0.0000       1.051537        28.6138 
  79   0.0000       1.090047        29.6617 
  80   0.0000       1.220394        33.2086 
  81   0.0000       1.222443        33.2644 
  82   0.0000       1.384134        37.6642 
  83   0.0000       1.586702        43.1764 
  84   0.0000       1.586702        43.1764 
  85   0.0000       1.892413        51.4952 
  86   0.0000       2.250930        61.2509 
  87   0.0000       2.251348        61.2623 
  88   0.0000       2.347323        63.8739 
  89   0.0000       2.347323        63.8739 
  90   0.0000       2.417213        65.7757 
  91   0.0000       2.417214        65.7757 
  92   0.0000       2.429584        66.1123 
  93   0.0000       2.574651        70.0598 
  94   0.0000       2.597000        70.6679 
  95   0.0000       2.597000        70.6680 
  96   0.0000       2.613071        71.1053 
  97   0.0000       2.627841        71.5072 
  98   0.0000       2.702883        73.5492 
  99   0.0000       2.702883        73.5492 
 100   0.0000       2.820076        76.7382 
 101   0.0000       2.820076        76.7382 
 102   0.0000       2.851497        77.5932 
 103   0.0000       2.866679        78.0063 
 104   0.0000       2.869991        78.0964 
 105   0.0000       2.871096        78.1265 
 106   0.0000       2.927117        79.6509 
 107   0.0000       2.927117        79.6509 
 108   0.0000       2.971776        80.8661 
 109   0.0000       2.971777        80.8662 
 110   0.0000       3.034882        82.5833 
 111   0.0000       3.280354        89.2630 
 112   0.0000       3.280354        89.2630 
 113   0.0000       3.282956        89.3338 
 114   0.0000       3.283998        89.3621 
 115   0.0000       3.331410        90.6523 
 116   0.0000       3.340733        90.9060 
 117   0.0000       3.348708        91.1230 
 118   0.0000       3.567707        97.0823 
 119   0.0000       3.567708        97.0823 
 120   0.0000       3.858123       104.9849 
 121   0.0000       4.388050       119.4049 
 122   0.0000       4.432143       120.6047 
 123   0.0000       4.602845       125.2498 
 124   0.0000       4.602845       125.2498 
 125   0.0000       5.460664       148.5922 
 126   0.0000       6.142737       167.1524 
 127   0.0000       8.821759       240.0523 
 128   0.0000       8.845447       240.6969 
 129   0.0000       8.845447       240.6969 
 130   0.0000       8.848028       240.7671 
 131   0.0000       8.873957       241.4726 
 132   0.0000       8.873957       241.4726 
 133   0.0000       8.934061       243.1082 
 134   0.0000       9.685835       263.5650 
 135   0.0000       9.685835       263.5650 
 136   0.0000       9.687219       263.6026 
 137   0.0000       9.710907       264.2472 
 138   0.0000       9.714402       264.3423 
 139   0.0000       9.715713       264.3780 
 140   0.0000       9.793382       266.4915 
 141   0.0000       9.793382       266.4915 
 142   0.0000       9.910072       269.6668 

                 SPIN DOWN ORBITALS
  NO   OCC          E(Eh)            E(eV) 
   0   1.0000    -255.632173     -6956.1051 
   1   1.0000    -101.260738     -2755.4448 
   2   1.0000     -29.923789      -814.2677 
   3   1.0000     -25.743313      -700.5112 
   4   1.0000     -25.731413      -700.1873 
   5   1.0000     -25.731413      -700.1873 
   6   1.0000      -9.319546      -253.5977 
   7   1.0000      -7.071670      -192.4299 
   8   1.0000      -7.070456      -192.3969 
   9   1.0000      -7.070456      -192.3969 
  10   1.0000      -3.352539       -91.2272 
  11   1.0000      -2.131765       -58.0083 
  12   1.0000      -2.113489       -57.5110 
  13   1.0000      -2.113489       -57.5110 
  14   1.0000      -0.747932       -20.3523 
  15   1.0000      -0.338716        -9.2169 
  16   1.0000      -0.294133        -8.0038 
  17   1.0000      -0.294133        -8.0038 
  18   1.0000      -0.230154        -6.2628 
  19   0.0000      -0.166937        -4.5426 
  20   0.0000      -0.153350        -4.1729 
  21   0.0000      -0.153350        -4.1729 
  22   0.0000      -0.104315        -2.8386 
  23   0.0000      -0.075997        -2.0680 
  24   0.0000      -0.009568        -0.2604 
  25   0.0000      -0.009567        -0.2603 
  26   0.0000      -0.007562        -0.2058 
  27   0.0000       0.017225         0.4687 
  28   0.0000       0.039528         1.0756 
  29   0.0000       0.039529         1.0756 
  30   0.0000       0.057822         1.5734 
  31   0.0000       0.057824         1.5735 
  32   0.0000       0.057848         1.5741 
  33   0.0000       0.062153         1.6913 
  34   0.0000       0.064026         1.7422 
  35   0.0000       0.071390         1.9426 
  36   0.0000       0.110860         3.0167 
  37   0.0000       0.127905         3.4805 
  38   0.0000       0.131642         3.5822 
  39   0.0000       0.131643         3.5822 
  40   0.0000       0.183976         5.0062 
  41   0.0000       0.183977         5.0063 
  42   0.0000       0.211077         5.7437 
  43   0.0000       0.235965         6.4209 
  44   0.0000       0.240973         6.5572 
  45   0.0000       0.253426         6.8961 
  46   0.0000       0.267717         7.2850 
  47   0.0000       0.267719         7.2850 
  48   0.0000       0.301734         8.2106 
  49   0.0000       0.310326         8.4444 
  50   0.0000       0.339417         9.2360 
  51   0.0000       0.376517        10.2455 
  52   0.0000       0.376517        10.2456 
  53   0.0000       0.412901        11.2356 
  54   0.0000       0.527645        14.3580 
  55   0.0000       0.592170        16.1138 
  56   0.0000       0.592171        16.1138 
  57   0.0000       0.707523        19.2527 
  58   0.0000       0.739666        20.1273 
  59   0.0000       0.739666        20.1273 
  60   0.0000       0.759134        20.6571 
  61   0.0000       0.759266        20.6607 
  62   0.0000       0.806615        21.9491 
  63   0.0000       0.806615        21.9491 
  64   0.0000       0.825003        22.4495 
  65   0.0000       0.837406        22.7870 
  66   0.0000       0.840953        22.8835 
  67   0.0000       0.844907        22.9911 
  68   0.0000       0.844907        22.9911 
  69   0.0000       0.910885        24.7865 
  70   0.0000       1.050469        28.5847 
  71   0.0000       1.050470        28.5847 
  72   0.0000       1.067987        29.0614 
  73   0.0000       1.067987        29.0614 
  74   0.0000       1.073377        29.2081 
  75   0.0000       1.084985        29.5239 
  76   0.0000       1.084985        29.5239 
  77   0.0000       1.104832        30.0640 
  78   0.0000       1.109825        30.1999 
  79   0.0000       1.139369        31.0038 
  80   0.0000       1.251523        34.0557 
  81   0.0000       1.259799        34.2809 
  82   0.0000       1.425430        38.7879 
  83   0.0000       1.634132        44.4670 
  84   0.0000       1.634132        44.4670 
  85   0.0000       1.941237        52.8238 
  86   0.0000       2.268075        61.7174 
  87   0.0000       2.268526        61.7297 
  88   0.0000       2.371587        64.5342 
  89   0.0000       2.371587        64.5342 
  90   0.0000       2.442065        66.4520 
  91   0.0000       2.442065        66.4520 
  92   0.0000       2.457101        66.8611 
  93   0.0000       2.659095        72.3577 
  94   0.0000       2.698925        73.4415 
  95   0.0000       2.698925        73.4415 
  96   0.0000       2.728542        74.2474 
  97   0.0000       2.762566        75.1733 
  98   0.0000       2.814732        76.5928 
  99   0.0000       2.814732        76.5928 
 100   0.0000       2.840032        77.2812 
 101   0.0000       2.840032        77.2812 
 102   0.0000       2.897695        78.8503 
 103   0.0000       2.900117        78.9162 
 104   0.0000       2.908394        79.1414 
 105   0.0000       2.943750        80.1035 
 106   0.0000       2.967938        80.7617 
 107   0.0000       2.967938        80.7617 
 108   0.0000       3.052708        83.0684 
 109   0.0000       3.052708        83.0684 
 110   0.0000       3.134545        85.2953 
 111   0.0000       3.376199        91.8710 
 112   0.0000       3.392609        92.3176 
 113   0.0000       3.392609        92.3176 
 114   0.0000       3.406336        92.6911 
 115   0.0000       3.427328        93.2623 
 116   0.0000       3.455306        94.0237 
 117   0.0000       3.461752        94.1991 
 118   0.0000       3.687606       100.3449 
 119   0.0000       3.687606       100.3449 
 120   0.0000       3.978381       108.2573 
 121   0.0000       4.483887       122.0128 
 122   0.0000       4.587274       124.8261 
 123   0.0000       4.776483       129.9747 
 124   0.0000       4.776483       129.9747 
 125   0.0000       5.593159       152.1976 
 126   0.0000       6.201999       168.7650 
 127   0.0000       9.007841       245.1158 
 128   0.0000       9.007841       245.1158 
 129   0.0000       9.052276       246.3250 
 130   0.0000       9.062968       246.6159 
 131   0.0000       9.112340       247.9594 
 132   0.0000       9.112340       247.9594 
 133   0.0000       9.192853       250.1502 
 134   0.0000       9.753843       265.4156 
 135   0.0000       9.822092       267.2727 
 136   0.0000       9.822092       267.2727 
 137   0.0000       9.843022       267.8423 
 138   0.0000       9.855064       268.1699 
 139   0.0000       9.874143       268.6891 
 140   0.0000       9.965425       271.1730 
 141   0.0000       9.965425       271.1730 
 142   0.0000      10.084105       274.4024 

                    ********************************
                    * MULLIKEN POPULATION ANALYSIS *
                    ********************************

--------------------------------------------
MULLIKEN ATOMIC CHARGES AND SPIN POPULATIONS
--------------------------------------------
   0 Fe:    0.395069    4.806090
   1 Cl:   -0.395069    0.193910
Sum of atomic charges         :   -0.0000000
Sum of atomic spin populations:    5.0000000

-----------------------------------------------------
MULLIKEN REDUCED ORBITAL CHARGES AND SPIN POPULATIONS
-----------------------------------------------------
CHARGE
  0 Fes       :     6.968667  s :     6.968667
      pz      :     4.285731  p :    12.369885
      px      :     4.042077
      py      :     4.042077
      dz2     :     1.104332  d :     6.247559
      dxz     :     1.072448
      dyz     :     1.072448
      dx2y2   :     0.999694
      dxy     :     1.998639
      f0      :     0.006944  f :     0.018100
      f+1     :     0.005472
      f-1     :     0.005472
      f+2     :     0.000005
      f-2     :     0.000014
      f+3     :     0.000097
      f-3     :     0.000097
      g0      :     0.000289  g :     0.000719
      g+1     :     0.000183
      g-1     :     0.000183
      g+2     :     0.000003
      g-2     :     0.000020
      g+3     :     0.000003
      g-3     :     0.000003
      g+4     :     0.000035
      g-4     :     0.000000
  1 Cls       :     5.940417  s :     5.940417
      pz      :     3.682522  p :    11.422651
      px      :     3.870064
      py      :     3.870064
      dz2     :     0.010251  d :     0.028197
      dxz     :     0.008444
      dyz     :     0.008444
      dx2y2   :     0.000166
      dxy     :     0.000893
      f0      :     0.000813  f :     0.003804
      f+1     :     0.001213
      f-1     :     0.001213
      f+2     :     0.000133
      f-2     :     0.000433
      f+3     :     0.000000
      f-3     :     0.000000

SPIN
  0 Fes       :     0.842448  s :     0.842448
      pz      :     0.209383  p :     0.232475
      px      :     0.011546
      py      :     0.011546
      dz2     :     0.883153  d :     3.733351
      dxz     :     0.924993
      dyz     :     0.924993
      dx2y2   :     0.999694
      dxy     :     0.000517
      f0      :    -0.000415  f :    -0.002072
      f+1     :    -0.000757
      f-1     :    -0.000757
      f+2     :     0.000005
      f-2     :    -0.000004
      f+3     :    -0.000072
      f-3     :    -0.000072
      g0      :    -0.000058  g :    -0.000111
      g+1     :    -0.000025
      g-1     :    -0.000025
      g+2     :     0.000003
      g-2     :     0.000002
      g+3     :     0.000001
      g-3     :     0.000001
      g+4     :    -0.000011
      g-4     :     0.000000
  1 Cls       :    -0.004536  s :    -0.004536
      pz      :     0.069649  p :     0.198869
      px      :     0.064610
      py      :     0.064610
      dz2     :     0.000491  d :    -0.000197
      dxz     :    -0.000221
      dyz     :    -0.000221
      dx2y2   :     0.000166
      dxy     :    -0.000411
      f0      :    -0.000104  f :    -0.000226
      f+1     :    -0.000075
      f-1     :    -0.000075
      f+2     :     0.000133
      f-2     :    -0.000104
      f+3     :     0.000000
      f-3     :     0.000000


                     *******************************
                     * LOEWDIN POPULATION ANALYSIS *
                     *******************************

-------------------------------------------
LOEWDIN ATOMIC CHARGES AND SPIN POPULATIONS
-------------------------------------------
   0 Fe:    0.060462    4.662224
   1 Cl:   -0.060462    0.337776

----------------------------------------------------
LOEWDIN REDUCED ORBITAL CHARGES AND SPIN POPULATIONS
----------------------------------------------------
CHARGE
  0 Fes       :     6.750540  s :     6.750540
      pz      :     4.469559  p :    12.598121
      px      :     4.064281
      py      :     4.064281
      dz2     :     1.225913  d :     6.463242
      dxz     :     1.123212
      dyz     :     1.123212
      dx2y2   :     0.997544
      dxy     :     1.993362
      f0      :     0.053754  f :     0.123618
      f+1     :     0.034783
      f-1     :     0.034783
      f+2     :     0.000047
      f-2     :     0.000059
      f+3     :     0.000097
      f-3     :     0.000097
      g0      :     0.002072  g :     0.004017
      g+1     :     0.000937
      g-1     :     0.000937
      g+2     :     0.000002
      g-2     :     0.000025
      g+3     :     0.000003
      g-3     :     0.000003
      g+4     :     0.000035
      g-4     :     0.000000
  1 Cls       :     5.649541  s :     5.649541
      pz      :     3.703597  p :    11.177066
      px      :     3.736734
      py      :     3.736734
      dz2     :     0.105864  d :     0.157620
      dxz     :     0.023757
      dyz     :     0.023757
      dx2y2   :     0.001044
      dxy     :     0.003198
      f0      :     0.039125  f :     0.076236
      f+1     :     0.016196
      f-1     :     0.016196
      f+2     :     0.001363
      f-2     :     0.003355
      f+3     :     0.000000
      f-3     :     0.000000

SPIN
  0 Fes       :     0.680606  s :     0.680606
      pz      :     0.270921  p :     0.306665
      px      :     0.017872
      py      :     0.017872
      dz2     :     0.866992  d :     3.666951
      dxz     :     0.900847
      dyz     :     0.900847
      dx2y2   :     0.997544
      dxy     :     0.000722
      f0      :     0.003720  f :     0.007685
      f+1     :     0.002007
      f-1     :     0.002007
      f+2     :     0.000047
      f-2     :     0.000048
      f+3     :    -0.000072
      f-3     :    -0.000072
      g0      :     0.000187  g :     0.000317
      g+1     :     0.000072
      g-1     :     0.000072
      g+2     :     0.000002
      g-2     :    -0.000007
      g+3     :     0.000001
      g-3     :     0.000001
      g+4     :    -0.000011
      g-4     :     0.000000
  1 Cls       :     0.031159  s :     0.031159
      pz      :     0.121355  p :     0.239278
      px      :     0.058962
      py      :     0.058962
      dz2     :     0.021130  d :     0.042603
      dxz     :     0.010485
      dyz     :     0.010485
      dx2y2   :     0.001044
      dxy     :    -0.000540
      f0      :     0.003942  f :     0.024736
      f+1     :     0.009827
      f-1     :     0.009827
      f+2     :     0.001363
      f-2     :    -0.000224
      f+3     :     0.000000
      f-3     :     0.000000


                      *****************************
                      * MAYER POPULATION ANALYSIS *
                      *****************************

  NA   - Mulliken gross atomic population
  ZA   - Total nuclear charge
  QA   - Mulliken gross atomic charge
  VA   - Mayer's total valence
  BVA  - Mayer's bonded valence
  FA   - Mayer's free valence

  ATOM       NA         ZA         QA         VA         BVA        FA
  0 Fe    25.6049    26.0000     0.3951     5.6173     1.0416     4.5757
  1 Cl    17.3951    17.0000    -0.3951     1.0687     1.0416     0.0271

  Mayer bond orders larger than 0.100000
B(  0-Fe,  1-Cl) :   1.0416 

-------
TIMINGS
-------

Total SCF time: 0 days 0 hours 0 min 3 sec 

Total time                  ....       3.422 sec
Sum of individual times     ....       3.287 sec  ( 96.1%)

Fock matrix formation       ....       2.895 sec  ( 84.6%)
  Split-RI-J                ....       2.059 sec  ( 71.1% of F)
  XC integration            ....       0.757 sec  ( 26.2% of F)
    Basis function eval.    ....       0.093 sec  ( 12.2% of XC)
    Density eval.           ....       0.095 sec  ( 12.5% of XC)
    XC-Functional eval.     ....       0.018 sec  (  2.4% of XC)
    XC-Potential eval.      ....       0.290 sec  ( 38.3% of XC)
Diagonalization             ....       0.082 sec  (  2.4%)
Density matrix formation    ....       0.011 sec  (  0.3%)
Population analysis         ....       0.007 sec  (  0.2%)
Initial guess               ....       0.102 sec  (  3.0%)
Orbital Transformation      ....       0.000 sec  (  0.0%)
Orbital Orthonormalization  ....       0.000 sec  (  0.0%)
DIIS solution               ....       0.028 sec  (  0.8%)
Grid generation             ....       0.163 sec  (  4.8%)


-------------------------------------------------------------------------------
                          DFT DISPERSION CORRECTION                            
                                                                               
                              DFTD3 V3.1  Rev 1                                
                          USING Becke-Johnson damping                          
-------------------------------------------------------------------------------
The SCAN functional is recognized
Active option DFTDOPT                   ...         4   

molecular C6(AA) [au] = 595.262319 


            DFT-D V3
 parameters
 s6 scaling factor         :     1.0000 
 a1 scaling factor         :     0.5380 
 s8 scaling factor         :     0.0000 
 a2 scaling factor         :     5.4200 
 ad hoc parameters k1-k3   :    16.0000     1.3333    -4.0000 

 Edisp/kcal,au: -0.105265057144  -0.000167750529 
 E6   /kcal   :  -0.105265057 
 E8   /kcal   :  -0.000000000 
 % E8         :   0.000000000 

-------------------------   ----------------
Dispersion correction           -0.000167751
-------------------------   ----------------


-------------------------   --------------------
FINAL SINGLE POINT ENERGY     -1724.072555514526
-------------------------   --------------------


                            ***************************************
                            *     ORCA property calculations      *
                            ***************************************

                                    ---------------------
                                    Active property flags
                                    ---------------------
   (+) Dipole Moment


------------------------------------------------------------------------------
                       ORCA ELECTRIC PROPERTIES CALCULATION
------------------------------------------------------------------------------

Dipole Moment Calculation                       ... on
Quadrupole Moment Calculation                   ... off
Polarizability Calculation                      ... off
GBWName                                         ... 33_FeCl.gbw
Electron density file                           ... 33_FeCl.scfp
The origin for moment calculation is the CENTER OF MASS  = ( 0.000000,  0.000000  1.430012)

-------------
DIPOLE MOMENT
-------------
                                X             Y             Z
Electronic contribution:     -0.00000       0.00000      -2.02514
Nuclear contribution   :      0.00000       0.00000       1.24736
                        -----------------------------------------
Total Dipole Moment    :     -0.00000       0.00000      -0.77778
                        -----------------------------------------
Magnitude (a.u.)       :      0.77778
Magnitude (Debye)      :      1.97697



--------------------
Rotational spectrum 
--------------------
 
Rotational constants in cm-1:     0.000000     0.163882     0.163882 
Rotational constants in MHz :     0.000000  4913.053230  4913.053230 

 Dipole components along the rotational axes: 
x,y,z [a.u.] :    -0.777784     0.000000    -0.000000 
x,y,z [Debye]:    -1.976969     0.000001    -0.000001 

 

Timings for individual modules:

Sum of individual times         ...        6.846 sec (=   0.114 min)
GTO integral calculation        ...        3.058 sec (=   0.051 min)  44.7 %
SCF iterations                  ...        3.788 sec (=   0.063 min)  55.3 %
                             ****ORCA TERMINATED NORMALLY****
TOTAL RUN TIME: 0 days 0 hours 0 minutes 7 seconds 425 msec
