
                                 *****************
                                 * O   R   C   A *
                                 *****************

           --- An Ab Initio, DFT and Semiempirical electronic structure package ---

                  #######################################################
                  #                        -***-                        #
                  #          Department of theory and spectroscopy      #
                  #               Directorship: Frank Neese             #
                  #        Max Planck Institute fuer Kohlenforschung    #
                  #                Kaiser Wilhelm Platz 1               #
                  #                 D-45470 Muelheim/Ruhr               #
                  #                      Germany                        #
                  #                                                     #
                  #                  All rights reserved                #
                  #                        -***-                        #
                  #######################################################


                         Program Version 4.2.0 -  RELEASE  -


 With contributions from (in alphabetic order):
   Daniel Aravena         : Magnetic Suceptibility
   Michael Atanasov       : Ab Initio Ligand Field Theory (pilot matlab implementation)
   Alexander A. Auer      : GIAO ZORA, VPT2
   Ute Becker             : Parallelization
   Giovanni Bistoni       : ED, misc. LED, open-shell LED, HFLED
   Martin Brehm           : Molecular dynamics
   Dmytro Bykov           : SCF Hessian
   Vijay G. Chilkuri      : MRCI spin determinant printing, contributions to CSF-ICE
   Dipayan Datta          : RHF DLPNO-CCSD density
   Achintya Kumar Dutta   : EOM-CC, STEOM-CC
   Dmitry Ganyushin       : Spin-Orbit,Spin-Spin,Magnetic field MRCI
   Miquel Garcia          : C-PCM Hessian, Gaussian charge scheme
   Yang Guo               : DLPNO-NEVPT2, CIM, IAO-localization
   Andreas Hansen         : Spin unrestricted coupled pair/coupled cluster methods
   Benjamin Helmich-Paris : CASSCF linear response (MC-RPA)
   Lee Huntington         : MR-EOM, pCC
   Robert Izsak           : Overlap fitted RIJCOSX, COSX-SCS-MP3, EOM
   Christian Kollmar      : KDIIS, OOCD, Brueckner-CCSD(T), CCSD density
   Simone Kossmann        : Meta GGA functionals, TD-DFT gradient, OOMP2, MP2 Hessian
   Martin Krupicka        : AUTO-CI
   Lucas Lang             : DCDCAS
   Dagmar Lenk            : GEPOL surface, SMD
   Dimitrios Liakos       : Extrapolation schemes; Compound Job, initial MDCI parallelization
   Dimitrios Manganas     : Further ROCIS development; embedding schemes
   Dimitrios Pantazis     : SARC Basis sets
   Taras Petrenko         : DFT Hessian,TD-DFT gradient, ASA, ECA, R-Raman, ABS, FL, XAS/XES, NRVS
   Peter Pinski           : DLPNO-MP2, DLPNO-MP2 Gradient
   Christoph Reimann      : Effective Core Potentials
   Marius Retegan         : Local ZFS, SOC
   Christoph Riplinger    : Optimizer, TS searches, QM/MM, DLPNO-CCSD(T), (RO)-DLPNO pert. Triples
   Tobias Risthaus        : Range-separated hybrids, TD-DFT gradient, RPA, STAB
   Michael Roemelt        : Original ROCIS implementation
   Masaaki Saitow         : Open-shell DLPNO-CCSD energy and density
   Barbara Sandhoefer     : DKH picture change effects
   Avijit Sen             : IP-ROCIS
   Kantharuban Sivalingam : CASSCF convergence, NEVPT2, FIC-MRCI
   Bernardo de Souza      : ESD, SOC TD-DFT
   Georgi Stoychev        : AutoAux, RI-MP2 NMR
   Willem Van den Heuvel  : Paramagnetic NMR
   Boris Wezisla          : Elementary symmetry handling
   Frank Wennmohs         : Technical directorship


 We gratefully acknowledge several colleagues who have allowed us to
 interface, adapt or use parts of their codes:
   Stefan Grimme, W. Hujo, H. Kruse,             : VdW corrections, initial TS optimization,
                  C. Bannwarth                     DFT functionals, gCP, sTDA/sTD-DF
   Ed Valeev, F. Pavosevic, A. Kumar             : LibInt (2-el integral package), F12 methods
   Garnet Chan, S. Sharma, J. Yang, R. Olivares  : DMRG
   Ulf Ekstrom                                   : XCFun DFT Library
   Mihaly Kallay                                 : mrcc  (arbitrary order and MRCC methods)
   Andreas Klamt, Michael Diedenhofen            : otool_cosmo (COSMO solvation model)
   Jiri Pittner, Ondrej Demel                    : Mk-CCSD
   Frank Weinhold                                : gennbo (NPA and NBO analysis)
   Christopher J. Cramer and Donald G. Truhlar   : smd solvation model
   Lars Goerigk                                  : TD-DFT with DH, B97 family of functionals
   V. Asgeirsson, H. Jonsson                     : NEB implementation
   FAccTs GmbH                                   : IRC, NEB, NEB-TS, Multilevel, MM, QM/MM, CI optimization
   S Lehtola, MJT Oliveira, MAL Marques          : LibXC Library


 Your calculation uses the libint2 library for the computation of 2-el integrals
 For citations please refer to: http://libint.valeyev.net

 Your ORCA version has been built with support for libXC version: 4.2.3
 For citations please refer to: https://tddft.org/programs/libxc/

 This ORCA versions uses:
   CBLAS   interface :  Fast vector & matrix operations
   LAPACKE interface :  Fast linear algebra routines
   SCALAPACK package :  Parallel linear algebra routines


Your calculation utilizes the atom-pairwise dispersion correction
with the Becke-Johnson damping scheme (D3BJ)
Cite in your paper:
S.Grimme, S.Ehrlich, L.Goerigk, J Comput Chem, (2011), 32, 1456–1465 
S.Grimme, J.Antony, S.Ehrlich and H.Krieg, J.Chem.Phys., 132, (2010), 154104 
   

----- Orbital basis set information -----
Your calculation utilizes the basis: aug-cc-pVTZ 
    H, B-Ne : Obtained from the ccRepo (grant-hill.group.shef.ac.uk/ccrepo) Feb. 2017
              R. A. Kendall, T. H. Dunning, Jr., R. J. Harrison, J. Chem. Phys. 96, 6796 (1992)
         He : Obtained from the ccRepo (grant-hill.group.shef.ac.uk/ccrepo) Feb. 2017
              D. E. Woon, T. H. Dunning, Jr., J. Chem. Phys. 100, 2975 (1994)
  Li-Be, Na : Obtained from the ccRepo (grant-hill.group.shef.ac.uk/ccrepo) Feb. 2017
              B. P. Prascher, D. E. Woon, K. A. Peterson, T. H. Dunning, Jr., A. K. Wilson, Theor. Chem. Acc. 128, 69 (2011)
         Mg : Obtained from the Peterson Research Group Website (tyr0.chem.wsu.edu/~kipeters) Feb. 2017
              B. P. Prascher, D. E. Woon, K. A. Peterson, T. H. Dunning, Jr., A. K. Wilson, Theor. Chem. Acc. 128, 69 (2011)
      Al-Ar : Obtained from the ccRepo (grant-hill.group.shef.ac.uk/ccrepo) Feb. 2017
              D. E. Woon, T. H. Dunning, Jr., J. Chem. Phys. 98, 1358 (1993)
      Sc-Zn : Obtained from the ccRepo (grant-hill.group.shef.ac.uk/ccrepo) Feb. 2017
              N. B. Balabanov, K. A. Peterson, J. Chem. Phys. 123, 064107 (2005)
              N. B. Balabanov, K. A. Peterson, J. Chem. Phys. 125, 074110 (2006)
      Ga-Kr : Obtained from the ccRepo (grant-hill.group.shef.ac.uk/ccrepo) Feb. 2017
              A. K. Wilson, D. E. Woon, K. A. Peterson, T. H. Dunning, Jr., J. Chem. Phys. 110, 7667 (1999)
     Ag, Au : Obtained from the Peterson Research Group Website (tyr0.chem.wsu.edu/~kipeters) Feb. 2017
              K. A. Peterson, C. Puzzarini, Theor. Chem. Acc. 114, 283 (2005)

----- AuxJ basis set information -----
Your calculation utilizes the auxiliary basis: def2/J
   F. Weigend, Phys. Chem. Chem. Phys. 8, 1057 (2006).

================================================================================
                                        WARNINGS
                       Please study these warnings very carefully!
================================================================================


WARNING: your system is open-shell and RHF/RKS was chosen
  ===> : WILL SWITCH to UHF/UKS


WARNING: The SCAN functional is very grid-sensitive!
         Use at least GRID5 and a higher intacc

INFO   : the flag for use of LIBINT has been found!

================================================================================
                                       INPUT FILE
================================================================================
NAME = 41_CoO.in
|  1> #
|  2> # 41_CoO scanfunc/aug-cc-pvtz
|  3> #
|  4> ! scanfunc d3bj aug-cc-pvtz def2/j grid4 nofinalgrid
|  5> 
|  6> *xyz 0 4
|  7>   Co  0.00000000000000      0.00000000000000      0.18722579130779
|  8>   O   0.00000000000000      0.00000000000000      1.81277420869221
|  9> *
| 10> 
| 11> %pal
| 12> nprocs 24
| 13> end
| 14> 
| 15> 
| 16>                          ****END OF INPUT****
================================================================================

                       ****************************
                       * Single Point Calculation *
                       ****************************

---------------------------------
CARTESIAN COORDINATES (ANGSTROEM)
---------------------------------
  Co     0.000000    0.000000    0.187226
  O      0.000000    0.000000    1.812774

----------------------------
CARTESIAN COORDINATES (A.U.)
----------------------------
  NO LB      ZA    FRAG     MASS         X           Y           Z
   0 Co   27.0000    0    58.930    0.000000    0.000000    0.353805
   1 O     8.0000    0    15.999    0.000000    0.000000    3.425647

--------------------------------
INTERNAL COORDINATES (ANGSTROEM)
--------------------------------
 Co     0   0   0     0.000000000000     0.00000000     0.00000000
 O      1   0   0     1.625548417384     0.00000000     0.00000000

---------------------------
INTERNAL COORDINATES (A.U.)
---------------------------
 Co     0   0   0     0.000000000000     0.00000000     0.00000000
 O      1   0   0     3.071841326286     0.00000000     0.00000000

---------------------
BASIS SET INFORMATION
---------------------
There are 2 groups of distinct atoms

 Group   1 Type Co  : 116s77p23d3f2g contracted to 8s7p5d3f2g pattern {19191919191911/151515151511/77711/111/11}
 Group   2 Type O   : 19s6p3d2f contracted to 5s4p3d2f pattern {88111/3111/111/11}

Atom   0Co   basis set group =>   1
Atom   1O    basis set group =>   2
---------------------------------
AUXILIARY/J BASIS SET INFORMATION
---------------------------------
There are 2 groups of distinct atoms

 Group   1 Type Co  : 19s5p5d3f3g contracted to 8s5p5d2f3g pattern {121111111/11111/11111/21/111}
 Group   2 Type O   : 12s5p4d2f1g contracted to 6s4p3d1f1g pattern {711111/2111/211/2/1}

Atom   0Co   basis set group =>   1
Atom   1O    basis set group =>   2


           ************************************************************
           *        Program running with 24 parallel MPI-processes    *
           *              working on a common directory               *
           ************************************************************
------------------------------------------------------------------------------
                           ORCA GTO INTEGRAL CALCULATION
                           -- RI-GTO INTEGRALS CHOSEN --
------------------------------------------------------------------------------

                         BASIS SET STATISTICS AND STARTUP INFO

Gaussian basis set:
 # of primitive gaussian shells          ...  251
 # of primitive gaussian functions       ...  567
 # of contracted shells                  ...   39
 # of contracted basis functions         ...  139
 Highest angular momentum                ...    4
 Maximum contraction depth               ...   19
Auxiliary gaussian basis set:
 # of primitive gaussian shells          ...   59
 # of primitive gaussian functions       ...  177
 # of contracted shells                  ...   38
 # of contracted aux-basis functions     ...  138
 Highest angular momentum                ...    4
 Maximum contraction depth               ...   12
Ratio of auxiliary to basis functions    ...  0.99
Integral package used                  ... LIBINT
 One Electron integrals                  ... done
 Ordering auxiliary basis shells         ... done
 Integral threshhold             Thresh  ...  1.000e-10
 Primitive cut-off               TCut    ...  1.000e-11
 Pre-screening matrix                    ... done
 Shell pair data                         ... 
 Ordering of the shell pairs             ... done (   0.000 sec) 780 of 780 pairs
 Determination of significant pairs      ... done (   0.000 sec)
 Creation of shell pair data             ... done (   0.001 sec)
 Storage of shell pair data              ... done (   0.002 sec)
 Shell pair data done in (   0.003 sec)
 Computing two index integrals           ... done
 Cholesky decomposition of the V-matrix  ... done


Timings:
 Total evaluation time                   ...   2.270 sec (  0.038 min)
 One electron matrix time                ...   0.058 sec (  0.001 min) =  2.6%
 Schwartz matrix evaluation time         ...   2.178 sec (  0.036 min) = 96.0%
 Two index repulsion integral time       ...   0.001 sec (  0.000 min) =  0.0%
 Cholesky decomposition of V             ...   0.001 sec (  0.000 min) =  0.0%
 Three index repulsion integral time     ...   0.000 sec (  0.000 min) =  0.0%



           ************************************************************
           *        Program running with 24 parallel MPI-processes    *
           *              working on a common directory               *
           ************************************************************
-------------------------------------------------------------------------------
                                 ORCA SCF
-------------------------------------------------------------------------------

------------
SCF SETTINGS
------------
Hamiltonian:
 Density Functional     Method          .... DFT(GTOs)
 Exchange Functional    Exchange        .... SCAN
 Correlation Functional Correlation     .... SCAN
 Gradients option       PostSCFGGA      .... off
   Density functional embedding theory  .... OFF
   NL short-range parameter             ....  6.400000
 RI-approximation to the Coulomb term is turned on
   Number of auxiliary basis functions  .... 138


General Settings:
 Integral files         IntName         .... 41_CoO
 Hartree-Fock type      HFTyp           .... UHF
 Total Charge           Charge          ....    0
 Multiplicity           Mult            ....    4
 Number of Electrons    NEL             ....   35
 Basis Dimension        Dim             ....  139
 Nuclear Repulsion      ENuc            ....     70.3161319407 Eh

Convergence Acceleration:
 DIIS                   CNVDIIS         .... on
   Start iteration      DIISMaxIt       ....    12
   Startup error        DIISStart       ....  0.200000
   # of expansion vecs  DIISMaxEq       ....     5
   Bias factor          DIISBfac        ....   1.050
   Max. coefficient     DIISMaxC        ....  10.000
 Newton-Raphson         CNVNR           .... off
 SOSCF                  CNVSOSCF        .... off
 Level Shifting         CNVShift        .... on
   Level shift para.    LevelShift      ....    0.2500
   Turn off err/grad.   ShiftErr        ....    0.0010
 Zerner damping         CNVZerner       .... off
 Static damping         CNVDamp         .... on
   Fraction old density DampFac         ....    0.7000
   Max. Damping (<1)    DampMax         ....    0.9800
   Min. Damping (>=0)   DampMin         ....    0.0000
   Turn off err/grad.   DampErr         ....    0.1000
 Fernandez-Rico         CNVRico         .... off

SCF Procedure:
 Maximum # iterations   MaxIter         ....   125
 SCF integral mode      SCFMode         .... Direct
   Integral package                     .... LIBINT
 Reset frequency        DirectResetFreq ....    20
 Integral Threshold     Thresh          ....  1.000e-10 Eh
 Primitive CutOff       TCut            ....  1.000e-11 Eh

Convergence Tolerance:
 Convergence Check Mode ConvCheckMode   .... Total+1el-Energy
 Convergence forced     ConvForced      .... 0
 Energy Change          TolE            ....  1.000e-06 Eh
 1-El. energy change                    ....  1.000e-03 Eh
 DIIS Error             TolErr          ....  1.000e-06


Diagonalization of the overlap matrix:
Smallest eigenvalue                        ... 8.975e-05
Time for diagonalization                   ...    0.004 sec
Threshold for overlap eigenvalues          ... 1.000e-08
Number of eigenvalues below threshold      ... 0
Time for construction of square roots      ...    0.002 sec
Total time needed                          ...    0.006 sec

-------------------
DFT GRID GENERATION
-------------------

General Integration Accuracy     IntAcc      ...  4.670
Radial Grid Type                 RadialGrid  ... Gauss-Chebyshev
Angular Grid (max. acc.)         AngularGrid ... Lebedev-302
Angular grid pruning method      GridPruning ... 3 (G Style)
Weight generation scheme         WeightScheme... Becke
Basis function cutoff            BFCut       ...    1.0000e-10
Integration weight cutoff        WCut        ...    1.0000e-14
Grids for H and He will be reduced by one unit

# of grid points (after initial pruning)     ...  15852 (   0.0 sec)
# of grid points (after weights+screening)   ...  15810 (   0.0 sec)
nearest neighbour list constructed           ...    0.0 sec
Grid point re-assignment to atoms done       ...    0.0 sec
Grid point division into batches done        ...    0.1 sec
Reduced shell lists constructed in    0.1 sec

Total number of grid points                  ...    15810
Total number of batches                      ...      248
Average number of points per batch           ...       63
Average number of grid points per atom       ...     7905
Average number of shells per batch           ...    14.17 (36.32%)
Average number of basis functions per batch  ...    33.33 (23.98%)
Average number of large shells per batch     ...     6.42 (45.29%)
Average number of large basis fcns per batch ...    16.42 (49.25%)
Maximum spatial batch extension              ...  28.57, 31.41, 18.20 au
Average spatial batch extension              ...   0.89,  0.95,  0.67 au

Time for grid setup =    0.157 sec

------------------------------
INITIAL GUESS: MODEL POTENTIAL
------------------------------
Loading Hartree-Fock densities                     ... done
Calculating cut-offs                               ... done
Setting up the integral package                    ... done
Initializing the effective Hamiltonian             ... done
Starting the Coulomb interaction                   ... done (   0.0 sec)
Reading the grid                                   ... done
Mapping shells                                     ... done
Starting the XC term evaluation                    ... done (   0.0 sec)
  promolecular density results
     # of electrons  =     35.000025209
     EX              =    -74.418623608
     EC              =     -0.613890405
     EX+EC           =    -75.032514013
Transforming the Hamiltonian                       ... done (   0.0 sec)
Diagonalizing the Hamiltonian                      ... done (   0.0 sec)
Back transforming the eigenvectors                 ... done (   0.0 sec)
Now organizing SCF variables                       ... done
                      ------------------
                      INITIAL GUESS DONE (   0.3 sec)
                      ------------------
--------------
SCF ITERATIONS
--------------
ITER       Energy         Delta-E        Max-DP      RMS-DP      [F,P]     Damp
               ***  Starting incremental Fock matrix formation  ***
  0  -1457.5605376766   0.000000000000 0.29576733  0.00409798  0.7595312 0.7000
  1  -1457.7387639515  -0.178226274932 0.20703713  0.00186959  0.1880183 0.7000
                               ***Turning on DIIS***
  2  -1457.8103444068  -0.071580455286 0.48308664  0.00423355  0.0726715 0.0000
  3  -1458.0385848403  -0.228240433463 0.03425559  0.00041939  0.1320188 0.7000
  4  -1458.0611881684  -0.022603328107 0.08547313  0.00124557  0.0630549 0.0000
  5  -1458.0716181505  -0.010429982153 0.03774153  0.00043411  0.0954884 0.0000
  6  -1458.0825425534  -0.010924402917 0.01809208  0.00032596  0.0502167 0.0000
  7  -1458.0865370505  -0.003994497068 0.04424619  0.00063586  0.0327655 0.0000
  8  -1458.0890871387  -0.002550088241 0.00866712  0.00014820  0.0183874 0.0000
  9  -1458.0898682230  -0.000781084286 0.00857865  0.00014972  0.0098070 0.0000
 10  -1458.0903354569  -0.000467233831 0.00634704  0.00008901  0.0026189 0.0000
 11  -1458.0905271936  -0.000191736781 0.00609838  0.00008891  0.0014431 0.0000
 12  -1458.0906991992  -0.000172005528 0.00643533  0.00009295  0.0010368 0.0000
 13  -1458.0908605562  -0.000161357051 0.02832924  0.00032861  0.0009624 0.0000
 14  -1458.0913857532  -0.000525196969 0.00146999  0.00002085  0.0016705 0.0000
 15  -1458.0913598937   0.000025859512 0.00172603  0.00001781  0.0021572 0.0000
 16  -1458.0913356036   0.000024290119 0.00173659  0.00002181  0.0018596 0.0000
 17  -1458.0913080248   0.000027578773 0.00057843  0.00001155  0.0016915 0.0000
 18  -1458.0913118459  -0.000003821151 0.00587529  0.00008602  0.0015447 0.0000
 19  -1458.0914127017  -0.000100855775 0.00486033  0.00005881  0.0027416 0.0000
               *** Restarting incremental Fock matrix formation ***
                                   *** Resetting DIIS ***
 20  -1458.0914967796  -0.000084077907 0.00615871  0.00006664  0.0017860 0.0000
 21  -1458.0915645200  -0.000067740338 0.00399729  0.00004673  0.0038739 0.0000
 22  -1458.0916354541  -0.000070934185 0.01381366  0.00015350  0.0009521 0.0000
 23  -1458.0918131050  -0.000177650898 0.00043513  0.00000717  0.0014412 0.0000
 24  -1458.0918067747   0.000006330382 0.00018730  0.00000224  0.0014583 0.0000
 25  -1458.0918045251   0.000002249545 0.00226609  0.00003843  0.0015047 0.0000
 26  -1458.0918335873  -0.000029062194 0.00190942  0.00002111  0.0018765 0.0000
 27  -1458.0918538561  -0.000020268810 0.00738875  0.00011219  0.0013521 0.0000
 28  -1458.0919119181  -0.000058061969 0.00222982  0.00003804  0.0036726 0.0000
 29  -1458.0919480102  -0.000036092122 0.00229345  0.00002747  0.0010048 0.0000
 30  -1458.0919734450  -0.000025434815 0.01271213  0.00014261  0.0002309 0.0000
 31  -1458.0920773474  -0.000103902391 0.00045239  0.00000682  0.0012622 0.0000
 32  -1458.0920804175  -0.000003070082 0.00072214  0.00001092  0.0012091 0.0000
 33  -1458.0920764335   0.000003983987 0.00061910  0.00000997  0.0011780 0.0000
 34  -1458.0920712981   0.000005135377 0.00035462  0.00000397  0.0011747 0.0000
 35  -1458.0920691071   0.000002191084 0.00493675  0.00007979  0.0011604 0.0000
 36  -1458.0920729676  -0.000003860561 0.00194209  0.00002685  0.0044329 0.0000
 37  -1458.0921035746  -0.000030607019 0.00138560  0.00001739  0.0016311 0.0000
 38  -1458.0921173433  -0.000013768708 0.00713858  0.00007984  0.0004728 0.0000
 39  -1458.0921529110  -0.000035567620 0.00152516  0.00002524  0.0011853 0.0000
               *** Restarting incremental Fock matrix formation ***
                                   *** Resetting DIIS ***
 40  -1458.0921469811   0.000005929840 0.00568193  0.00007353  0.0009557 0.0000
 41  -1458.0920463442   0.000100636956 0.00169516  0.00001842  0.0083942 0.0000
 42  -1458.0921302749  -0.000083930699 0.00117950  0.00001067  0.0041305 0.0000
 43  -1458.0921551342  -0.000024859301 0.00088350  0.00000912  0.0022673 0.0000
 44  -1458.0921655524  -0.000010418207 0.00063571  0.00001094  0.0010692 0.0000
 45  -1458.0921703816  -0.000004829264 0.00357035  0.00004161  0.0004289 0.0000
 46  -1458.0921798728  -0.000009491212 0.00081403  0.00001031  0.0007737 0.0000
 47  -1458.0921824484  -0.000002575579 0.00060435  0.00000691  0.0006687 0.0000
 48  -1458.0921841314  -0.000001682986 0.00019063  0.00000194  0.0005262 0.0000
 49  -1458.0921840957   0.000000035709 0.00010339  0.00000107  0.0006273 0.0000
 50  -1458.0921845225  -0.000000426754 0.00404504  0.00004882  0.0005597 0.0000
 51  -1458.0921895111  -0.000004988604 0.00030891  0.00000635  0.0013057 0.0000
 52  -1458.0921903875  -0.000000876410 0.00059938  0.00000626  0.0004209 0.0000
 53  -1458.0921909902  -0.000000602775 0.00239673  0.00002931  0.0004337 0.0000
 54  -1458.0921938354  -0.000002845179 0.00140218  0.00001699  0.0001379 0.0000
 55  -1458.0921949793  -0.000001143836 0.00012883  0.00000135  0.0000630 0.0000
 56  -1458.0921947262   0.000000253022 0.00068332  0.00000893  0.0000989 0.0000
                 **** Energy Check signals convergence ****

               *****************************************************
               *                     SUCCESS                       *
               *           SCF CONVERGED AFTER  57 CYCLES          *
               *****************************************************


----------------
TOTAL SCF ENERGY
----------------

Total Energy       :        -1458.09219537 Eh          -39676.70576 eV

Components:
Nuclear Repulsion  :           70.31613194 Eh            1913.39923 eV
Electronic Energy  :        -1528.40832731 Eh          -41590.10499 eV
One Electron Energy:        -2159.37646958 Eh          -58759.62102 eV
Two Electron Energy:          630.96814227 Eh           17169.51603 eV

Virial components:
Potential Energy   :        -2914.50876795 Eh          -79307.81551 eV
Kinetic Energy     :         1456.41657258 Eh           39631.10975 eV
Virial Ratio       :            2.00115051


DFT components:
N(Alpha)           :       19.000003697465 electrons
N(Beta)            :       16.000005384033 electrons
N(Total)           :       35.000009081498 electrons
E(X)               :      -66.449656972477 Eh       
E(C)               :       -1.499348122467 Eh       
E(XC)              :      -67.949005094943 Eh       
DFET-embed. en.    :        0.000000000000 Eh       

---------------
SCF CONVERGENCE
---------------

  Last Energy change         ...   -6.4547e-07  Tolerance :   1.0000e-06
  Last MAX-Density change    ...    2.8300e-04  Tolerance :   1.0000e-05
  Last RMS-Density change    ...    3.5157e-06  Tolerance :   1.0000e-06
  Last DIIS Error            ...    1.4921e-05  Tolerance :   1.0000e-06

             **** THE GBW FILE WAS UPDATED (41_CoO.gbw) ****
             **** DENSITY FILE WAS UPDATED (41_CoO.scfp) ****
             **** ENERGY FILE WAS UPDATED (41_CoO.en.tmp) ****
----------------------
UHF SPIN CONTAMINATION
----------------------

Warning: in a DFT calculation there is little theoretical justification to 
         calculate <S**2> as in Hartree-Fock theory. We will do it anyways
         but you should keep in mind that the values have only limited relevance

Expectation value of <S**2>     :     3.786418
Ideal value S*(S+1) for S=1.5   :     3.750000
Deviation                       :     0.036418

             **** THE GBW FILE WAS UPDATED (41_CoO.gbw) ****
             **** DENSITY FILE WAS UPDATED (41_CoO.scfp) ****
----------------
ORBITAL ENERGIES
----------------
                 SPIN UP ORBITALS
  NO   OCC          E(Eh)            E(eV) 
   0   1.0000    -277.130935     -7541.1161 
   1   1.0000     -32.685023      -889.4047 
   2   1.0000     -28.350641      -771.4602 
   3   1.0000     -28.350641      -771.4602 
   4   1.0000     -28.344206      -771.2850 
   5   1.0000     -18.963745      -516.0297 
   6   1.0000      -3.810373      -103.6855 
   7   1.0000      -2.480951       -67.5101 
   8   1.0000      -2.480951       -67.5101 
   9   1.0000      -2.478386       -67.4403 
  10   1.0000      -0.883781       -24.0489 
  11   1.0000      -0.375678       -10.2227 
  12   1.0000      -0.375678       -10.2227 
  13   1.0000      -0.357786        -9.7358 
  14   1.0000      -0.344572        -9.3763 
  15   1.0000      -0.282496        -7.6871 
  16   1.0000      -0.256845        -6.9891 
  17   1.0000      -0.256845        -6.9891 
  18   1.0000      -0.229115        -6.2345 
  19   0.0000      -0.142701        -3.8831 
  20   0.0000      -0.021754        -0.5920 
  21   0.0000      -0.021754        -0.5920 
  22   0.0000       0.015747         0.4285 
  23   0.0000       0.023063         0.6276 
  24   0.0000       0.042117         1.1461 
  25   0.0000       0.042117         1.1461 
  26   0.0000       0.076799         2.0898 
  27   0.0000       0.091562         2.4915 
  28   0.0000       0.091759         2.4969 
  29   0.0000       0.092409         2.5146 
  30   0.0000       0.092410         2.5146 
  31   0.0000       0.101348         2.7578 
  32   0.0000       0.131279         3.5723 
  33   0.0000       0.208354         5.6696 
  34   0.0000       0.208354         5.6696 
  35   0.0000       0.213699         5.8151 
  36   0.0000       0.232837         6.3358 
  37   0.0000       0.232837         6.3358 
  38   0.0000       0.267326         7.2743 
  39   0.0000       0.301195         8.1959 
  40   0.0000       0.306747         8.3470 
  41   0.0000       0.320733         8.7276 
  42   0.0000       0.320733         8.7276 
  43   0.0000       0.345129         9.3914 
  44   0.0000       0.507035        13.7971 
  45   0.0000       0.590661        16.0727 
  46   0.0000       0.591130        16.0855 
  47   0.0000       0.614883        16.7318 
  48   0.0000       0.713068        19.4036 
  49   0.0000       0.713068        19.4036 
  50   0.0000       0.739329        20.1182 
  51   0.0000       0.831785        22.6340 
  52   0.0000       0.831785        22.6340 
  53   0.0000       0.928928        25.2774 
  54   0.0000       0.928928        25.2774 
  55   0.0000       0.983309        26.7572 
  56   0.0000       0.990922        26.9644 
  57   0.0000       0.990922        26.9644 
  58   0.0000       1.107771        30.1440 
  59   0.0000       1.108154        30.1544 
  60   0.0000       1.121356        30.5136 
  61   0.0000       1.129140        30.7255 
  62   0.0000       1.129140        30.7255 
  63   0.0000       1.203030        32.7361 
  64   0.0000       1.215232        33.0681 
  65   0.0000       1.231976        33.5238 
  66   0.0000       1.502243        40.8781 
  67   0.0000       1.502243        40.8781 
  68   0.0000       1.696660        46.1685 
  69   0.0000       1.877056        51.0773 
  70   0.0000       1.930583        52.5338 
  71   0.0000       1.930583        52.5338 
  72   0.0000       1.936740        52.7014 
  73   0.0000       1.937008        52.7087 
  74   0.0000       2.131510        58.0013 
  75   0.0000       2.131510        58.0013 
  76   0.0000       2.198498        59.8242 
  77   0.0000       2.198553        59.8257 
  78   0.0000       2.346297        63.8460 
  79   0.0000       2.677668        72.8630 
  80   0.0000       2.677668        72.8630 
  81   0.0000       2.924058        79.5677 
  82   0.0000       3.122719        84.9735 
  83   0.0000       3.122719        84.9735 
  84   0.0000       3.142104        85.5010 
  85   0.0000       3.149484        85.7018 
  86   0.0000       3.158816        85.9558 
  87   0.0000       3.335551        90.7650 
  88   0.0000       3.335551        90.7650 
  89   0.0000       3.375986        91.8652 
  90   0.0000       3.375986        91.8652 
  91   0.0000       3.483233        94.7836 
  92   0.0000       3.812576       103.7455 
  93   0.0000       3.812576       103.7455 
  94   0.0000       3.824739       104.0764 
  95   0.0000       4.032618       109.7331 
  96   0.0000       4.033952       109.7694 
  97   0.0000       4.049068       110.1807 
  98   0.0000       4.049068       110.1807 
  99   0.0000       4.139744       112.6482 
 100   0.0000       4.275053       116.3301 
 101   0.0000       4.281629       116.5090 
 102   0.0000       4.573791       124.4592 
 103   0.0000       4.573791       124.4592 
 104   0.0000       5.056009       137.5810 
 105   0.0000       5.106290       138.9492 
 106   0.0000       5.187775       141.1665 
 107   0.0000       5.541189       150.7834 
 108   0.0000       5.541189       150.7834 
 109   0.0000       6.200702       168.7297 
 110   0.0000       6.200702       168.7297 
 111   0.0000       6.319362       171.9586 
 112   0.0000       6.320553       171.9910 
 113   0.0000       6.450125       175.5168 
 114   0.0000       6.591859       179.3736 
 115   0.0000       6.591859       179.3736 
 116   0.0000       6.608173       179.8175 
 117   0.0000       6.608239       179.8193 
 118   0.0000       6.983268       190.0244 
 119   0.0000       7.011326       190.7879 
 120   0.0000       7.011326       190.7879 
 121   0.0000       7.360613       200.2925 
 122   0.0000      10.376311       282.3538 
 123   0.0000      10.387485       282.6578 
 124   0.0000      10.387486       282.6579 
 125   0.0000      10.412118       283.3281 
 126   0.0000      10.526569       286.4425 
 127   0.0000      10.526569       286.4425 
 128   0.0000      10.755058       292.6600 
 129   0.0000      10.901659       296.6492 
 130   0.0000      11.581646       315.1526 
 131   0.0000      11.581646       315.1526 
 132   0.0000      11.591411       315.4183 
 133   0.0000      11.597254       315.5773 
 134   0.0000      11.686579       318.0080 
 135   0.0000      11.713834       318.7496 
 136   0.0000      11.994236       326.3797 
 137   0.0000      11.994236       326.3797 
 138   0.0000      12.353706       336.1614 

                 SPIN DOWN ORBITALS
  NO   OCC          E(Eh)            E(eV) 
   0   1.0000    -277.126101     -7540.9846 
   1   1.0000     -32.626806      -887.8205 
   2   1.0000     -28.309359      -770.3368 
   3   1.0000     -28.309359      -770.3368 
   4   1.0000     -28.303185      -770.1688 
   5   1.0000     -18.962563      -515.9976 
   6   1.0000      -3.665993       -99.7568 
   7   1.0000      -2.368573       -64.4521 
   8   1.0000      -2.334584       -63.5273 
   9   1.0000      -2.334584       -63.5273 
  10   1.0000      -0.835118       -22.7247 
  11   1.0000      -0.342583        -9.3222 
  12   1.0000      -0.272658        -7.4194 
  13   1.0000      -0.272000        -7.4015 
  14   1.0000      -0.271999        -7.4015 
  15   1.0000      -0.205340        -5.5876 
  16   0.0000      -0.143291        -3.8991 
  17   0.0000      -0.138999        -3.7823 
  18   0.0000      -0.138998        -3.7823 
  19   0.0000      -0.111743        -3.0407 
  20   0.0000      -0.000954        -0.0260 
  21   0.0000      -0.000954        -0.0260 
  22   0.0000       0.019920         0.5420 
  23   0.0000       0.025060         0.6819 
  24   0.0000       0.049137         1.3371 
  25   0.0000       0.049138         1.3371 
  26   0.0000       0.079317         2.1583 
  27   0.0000       0.094130         2.5614 
  28   0.0000       0.094131         2.5614 
  29   0.0000       0.094822         2.5802 
  30   0.0000       0.095763         2.6058 
  31   0.0000       0.105406         2.8682 
  32   0.0000       0.144149         3.9225 
  33   0.0000       0.220953         6.0124 
  34   0.0000       0.220953         6.0124 
  35   0.0000       0.221794         6.0353 
  36   0.0000       0.242304         6.5934 
  37   0.0000       0.242305         6.5935 
  38   0.0000       0.273857         7.4520 
  39   0.0000       0.315016         8.5720 
  40   0.0000       0.328374         8.9355 
  41   0.0000       0.342739         9.3264 
  42   0.0000       0.342739         9.3264 
  43   0.0000       0.355141         9.6639 
  44   0.0000       0.525468        14.2987 
  45   0.0000       0.602352        16.3908 
  46   0.0000       0.604148        16.4397 
  47   0.0000       0.633875        17.2486 
  48   0.0000       0.731582        19.9074 
  49   0.0000       0.731582        19.9074 
  50   0.0000       0.752837        20.4857 
  51   0.0000       0.873443        23.7676 
  52   0.0000       0.873443        23.7676 
  53   0.0000       0.970175        26.3998 
  54   0.0000       0.970175        26.3998 
  55   0.0000       1.007223        27.4079 
  56   0.0000       1.017044        27.6752 
  57   0.0000       1.017044        27.6752 
  58   0.0000       1.137706        30.9586 
  59   0.0000       1.138892        30.9908 
  60   0.0000       1.141793        31.0698 
  61   0.0000       1.165049        31.7026 
  62   0.0000       1.165049        31.7026 
  63   0.0000       1.243251        33.8306 
  64   0.0000       1.262467        34.3535 
  65   0.0000       1.291932        35.1553 
  66   0.0000       1.536539        41.8114 
  67   0.0000       1.536539        41.8114 
  68   0.0000       1.724380        46.9228 
  69   0.0000       1.910150        51.9778 
  70   0.0000       1.954949        53.1969 
  71   0.0000       1.954949        53.1969 
  72   0.0000       1.987702        54.0881 
  73   0.0000       1.988270        54.1036 
  74   0.0000       2.153974        58.6126 
  75   0.0000       2.153974        58.6126 
  76   0.0000       2.222514        60.4777 
  77   0.0000       2.225310        60.5538 
  78   0.0000       2.368730        64.4564 
  79   0.0000       2.707999        73.6884 
  80   0.0000       2.707999        73.6884 
  81   0.0000       2.975924        80.9790 
  82   0.0000       3.177853        86.4738 
  83   0.0000       3.177853        86.4738 
  84   0.0000       3.186052        86.6969 
  85   0.0000       3.213820        87.4525 
  86   0.0000       3.245133        88.3046 
  87   0.0000       3.385085        92.1129 
  88   0.0000       3.385086        92.1129 
  89   0.0000       3.427186        93.2585 
  90   0.0000       3.427187        93.2585 
  91   0.0000       3.532598        96.1269 
  92   0.0000       3.875080       105.4463 
  93   0.0000       3.886329       105.7524 
  94   0.0000       3.886329       105.7524 
  95   0.0000       4.088303       111.2484 
  96   0.0000       4.088405       111.2512 
  97   0.0000       4.104762       111.6962 
  98   0.0000       4.104762       111.6962 
  99   0.0000       4.183027       113.8259 
 100   0.0000       4.325218       117.6952 
 101   0.0000       4.333036       117.9079 
 102   0.0000       4.639649       126.2513 
 103   0.0000       4.639649       126.2513 
 104   0.0000       5.091242       138.5397 
 105   0.0000       5.177106       140.8762 
 106   0.0000       5.224146       142.1562 
 107   0.0000       5.640526       153.4865 
 108   0.0000       5.640526       153.4865 
 109   0.0000       6.300164       171.4362 
 110   0.0000       6.300164       171.4362 
 111   0.0000       6.396096       174.0466 
 112   0.0000       6.397592       174.0873 
 113   0.0000       6.491014       176.6295 
 114   0.0000       6.635284       180.5553 
 115   0.0000       6.635284       180.5553 
 116   0.0000       6.739768       183.3984 
 117   0.0000       6.739850       183.4006 
 118   0.0000       7.030762       191.3168 
 119   0.0000       7.057446       192.0429 
 120   0.0000       7.057446       192.0429 
 121   0.0000       7.369579       200.5364 
 122   0.0000      10.471489       284.9437 
 123   0.0000      10.471489       284.9437 
 124   0.0000      10.487302       285.3740 
 125   0.0000      10.562962       287.4328 
 126   0.0000      10.607561       288.6464 
 127   0.0000      10.607561       288.6464 
 128   0.0000      10.827279       294.6252 
 129   0.0000      10.962547       298.3061 
 130   0.0000      11.572089       314.8925 
 131   0.0000      11.652685       317.0857 
 132   0.0000      11.652685       317.0857 
 133   0.0000      11.674017       317.6662 
 134   0.0000      11.759793       320.0002 
 135   0.0000      11.771622       320.3221 
 136   0.0000      12.036098       327.5189 
 137   0.0000      12.036098       327.5189 
 138   0.0000      12.407729       337.6315 

                    ********************************
                    * MULLIKEN POPULATION ANALYSIS *
                    ********************************

--------------------------------------------
MULLIKEN ATOMIC CHARGES AND SPIN POPULATIONS
--------------------------------------------
   0 Co:    0.534823    2.323723
   1 O :   -0.534823    0.676277
Sum of atomic charges         :   -0.0000000
Sum of atomic spin populations:    3.0000000

-----------------------------------------------------
MULLIKEN REDUCED ORBITAL CHARGES AND SPIN POPULATIONS
-----------------------------------------------------
CHARGE
  0 Cos       :     6.895459  s :     6.895459
      pz      :     4.045387  p :    12.182747
      px      :     4.068680
      py      :     4.068680
      dz2     :     1.616135  d :     7.366977
      dxz     :     1.376224
      dyz     :     1.376222
      dx2y2   :     0.999486
      dxy     :     1.998910
      f0      :     0.006899  f :     0.018399
      f+1     :     0.005505
      f-1     :     0.005505
      f+2     :     0.000142
      f-2     :     0.000172
      f+3     :     0.000088
      f-3     :     0.000088
      g0      :     0.000533  g :     0.001595
      g+1     :     0.000485
      g-1     :     0.000485
      g+2     :     0.000002
      g-2     :     0.000014
      g+3     :     0.000007
      g-3     :     0.000007
      g+4     :     0.000063
      g-4     :     0.000000
  1 O s       :     3.960357  s :     3.960357
      pz      :     1.467520  p :     4.544741
      px      :     1.538609
      py      :     1.538612
      dz2     :     0.005800  d :     0.024236
      dxz     :     0.008854
      dyz     :     0.008854
      dx2y2   :     0.000195
      dxy     :     0.000533
      f0      :     0.001847  f :     0.005490
      f+1     :     0.001547
      f-1     :     0.001547
      f+2     :     0.000176
      f-2     :     0.000372
      f+3     :     0.000000
      f-3     :     0.000000

SPIN
  0 Cos       :     0.119331  s :     0.119331
      pz      :    -0.002898  p :     0.054650
      px      :     0.028774
      py      :     0.028774
      dz2     :    -0.062131  d :     2.145356
      dxz     :     0.604105
      dyz     :     0.604108
      dx2y2   :     0.999485
      dxy     :    -0.000212
      f0      :    -0.000505  f :     0.004562
      f+1     :     0.002453
      f-1     :     0.002453
      f+2     :     0.000142
      f-2     :     0.000128
      f+3     :    -0.000054
      f-3     :    -0.000054
      g0      :    -0.000105  g :    -0.000177
      g+1     :    -0.000016
      g-1     :    -0.000016
      g+2     :     0.000002
      g-2     :     0.000004
      g+3     :    -0.000002
      g-3     :    -0.000002
      g+4     :    -0.000042
      g-4     :    -0.000000
  1 O s       :     0.012017  s :     0.012017
      pz      :    -0.065292  p :     0.673046
      px      :     0.369170
      py      :     0.369168
      dz2     :    -0.000225  d :    -0.006821
      dxz     :    -0.003419
      dyz     :    -0.003419
      dx2y2   :     0.000195
      dxy     :     0.000047
      f0      :    -0.000150  f :    -0.001964
      f+1     :    -0.001011
      f-1     :    -0.001011
      f+2     :     0.000176
      f-2     :     0.000033
      f+3     :    -0.000000
      f-3     :    -0.000000


                     *******************************
                     * LOEWDIN POPULATION ANALYSIS *
                     *******************************

-------------------------------------------
LOEWDIN ATOMIC CHARGES AND SPIN POPULATIONS
-------------------------------------------
   0 Co:    0.555431    2.369754
   1 O :   -0.555431    0.630246

----------------------------------------------------
LOEWDIN REDUCED ORBITAL CHARGES AND SPIN POPULATIONS
----------------------------------------------------
CHARGE
  0 Cos       :     6.609777  s :     6.609777
      pz      :     4.138271  p :    12.249760
      px      :     4.055744
      py      :     4.055744
      dz2     :     1.710590  d :     7.416448
      dxz     :     1.366138
      dyz     :     1.366135
      dx2y2   :     0.992059
      dxy     :     1.981526
      f0      :     0.069771  f :     0.158229
      f+1     :     0.043403
      f-1     :     0.043403
      f+2     :     0.000559
      f-2     :     0.000917
      f+3     :     0.000088
      f-3     :     0.000088
      g0      :     0.005226  g :     0.010355
      g+1     :     0.002484
      g-1     :     0.002484
      g+2     :     0.000017
      g-2     :     0.000067
      g+3     :     0.000007
      g-3     :     0.000007
      g+4     :     0.000063
      g-4     :     0.000000
  1 O s       :     3.591145  s :     3.591145
      pz      :     1.652990  p :     4.532620
      px      :     1.439814
      py      :     1.439816
      dz2     :     0.147304  d :     0.270183
      dxz     :     0.055502
      dyz     :     0.055502
      dx2y2   :     0.003380
      dxy     :     0.008496
      f0      :     0.074863  f :     0.161482
      f+1     :     0.036820
      f-1     :     0.036820
      f+2     :     0.003986
      f-2     :     0.008994
      f+3     :     0.000000
      f-3     :     0.000000

SPIN
  0 Cos       :     0.102834  s :     0.102834
      pz      :    -0.004069  p :     0.115435
      px      :     0.059752
      py      :     0.059752
      dz2     :    -0.062857  d :     2.108733
      dxz     :     0.589764
      dyz     :     0.589766
      dx2y2   :     0.992058
      dxy     :     0.000002
      f0      :     0.001144  f :     0.040620
      f+1     :     0.019352
      f-1     :     0.019352
      f+2     :     0.000559
      f-2     :     0.000323
      f+3     :    -0.000054
      f-3     :    -0.000054
      g0      :    -0.000123  g :     0.002132
      g+1     :     0.001155
      g-1     :     0.001155
      g+2     :     0.000017
      g-2     :    -0.000025
      g+3     :    -0.000002
      g-3     :    -0.000002
      g+4     :    -0.000042
      g-4     :    -0.000000
  1 O s       :     0.012972  s :     0.012972
      pz      :    -0.046374  p :     0.577647
      px      :     0.312012
      py      :     0.312009
      dz2     :    -0.001647  d :     0.017995
      dxz     :     0.008220
      dyz     :     0.008220
      dx2y2   :     0.003380
      dxy     :    -0.000178
      f0      :    -0.001837  f :     0.021632
      f+1     :     0.009803
      f-1     :     0.009803
      f+2     :     0.003986
      f-2     :    -0.000122
      f+3     :    -0.000000
      f-3     :    -0.000000


                      *****************************
                      * MAYER POPULATION ANALYSIS *
                      *****************************

  NA   - Mulliken gross atomic population
  ZA   - Total nuclear charge
  QA   - Mulliken gross atomic charge
  VA   - Mayer's total valence
  BVA  - Mayer's bonded valence
  FA   - Mayer's free valence

  ATOM       NA         ZA         QA         VA         BVA        FA
  0 Co    26.4652    27.0000     0.5348     4.0063     2.0643     1.9420
  1 O      8.5348     8.0000    -0.5348     2.3512     2.0643     0.2869

  Mayer bond orders larger than 0.100000
B(  0-Co,  1-O ) :   2.0643 

-------
TIMINGS
-------

Total SCF time: 0 days 0 hours 0 min 10 sec 

Total time                  ....      10.388 sec
Sum of individual times     ....      10.151 sec  ( 97.7%)

Fock matrix formation       ....       9.433 sec  ( 90.8%)
  Split-RI-J                ....       6.976 sec  ( 74.0% of F)
  XC integration            ....       2.188 sec  ( 23.2% of F)
    Basis function eval.    ....       0.273 sec  ( 12.5% of XC)
    Density eval.           ....       0.290 sec  ( 13.2% of XC)
    XC-Functional eval.     ....       0.059 sec  (  2.7% of XC)
    XC-Potential eval.      ....       0.866 sec  ( 39.6% of XC)
Diagonalization             ....       0.286 sec  (  2.8%)
Density matrix formation    ....       0.036 sec  (  0.3%)
Population analysis         ....       0.007 sec  (  0.1%)
Initial guess               ....       0.118 sec  (  1.1%)
Orbital Transformation      ....       0.000 sec  (  0.0%)
Orbital Orthonormalization  ....       0.000 sec  (  0.0%)
DIIS solution               ....       0.114 sec  (  1.1%)
Grid generation             ....       0.157 sec  (  1.5%)


-------------------------------------------------------------------------------
                          DFT DISPERSION CORRECTION                            
                                                                               
                              DFTD3 V3.1  Rev 1                                
                          USING Becke-Johnson damping                          
-------------------------------------------------------------------------------
The SCAN functional is recognized
Active option DFTDOPT                   ...         4   

molecular C6(AA) [au] = 328.680985 


            DFT-D V3
 parameters
 s6 scaling factor         :     1.0000 
 a1 scaling factor         :     0.5380 
 s8 scaling factor         :     0.0000 
 a2 scaling factor         :     5.4200 
 ad hoc parameters k1-k3   :    16.0000     1.3333    -4.0000 

 Edisp/kcal,au: -0.060096830711  -0.000095770386 
 E6   /kcal   :  -0.060096831 
 E8   /kcal   :  -0.000000000 
 % E8         :   0.000000000 

-------------------------   ----------------
Dispersion correction           -0.000095770
-------------------------   ----------------


-------------------------   --------------------
FINAL SINGLE POINT ENERGY     -1458.092291142088
-------------------------   --------------------


                            ***************************************
                            *     ORCA property calculations      *
                            ***************************************

                                    ---------------------
                                    Active property flags
                                    ---------------------
   (+) Dipole Moment


------------------------------------------------------------------------------
                       ORCA ELECTRIC PROPERTIES CALCULATION
------------------------------------------------------------------------------

Dipole Moment Calculation                       ... on
Quadrupole Moment Calculation                   ... off
Polarizability Calculation                      ... off
GBWName                                         ... 41_CoO.gbw
Electron density file                           ... 41_CoO.scfp
The origin for moment calculation is the CENTER OF MASS  = ( 0.000000,  0.000000  1.009712)

-------------
DIPOLE MOMENT
-------------
                                X             Y             Z
Electronic contribution:     -0.00000      -0.00000      -3.31677
Nuclear contribution   :      0.00000       0.00000       1.61802
                        -----------------------------------------
Total Dipole Moment    :     -0.00000      -0.00000      -1.69875
                        -----------------------------------------
Magnitude (a.u.)       :      1.69875
Magnitude (Debye)      :      4.31788



--------------------
Rotational spectrum 
--------------------
 
Rotational constants in cm-1:     0.000000     0.507011     0.507011 
Rotational constants in MHz :     0.000000 15199.819890 15199.819890 

 Dipole components along the rotational axes: 
x,y,z [a.u.] :    -1.698752    -0.000000    -0.000000 
x,y,z [Debye]:    -4.317884    -0.000001    -0.000001 

 

Timings for individual modules:

Sum of individual times         ...       13.391 sec (=   0.223 min)
GTO integral calculation        ...        2.664 sec (=   0.044 min)  19.9 %
SCF iterations                  ...       10.728 sec (=   0.179 min)  80.1 %
                             ****ORCA TERMINATED NORMALLY****
TOTAL RUN TIME: 0 days 0 hours 0 minutes 13 seconds 951 msec
