
                                 *****************
                                 * O   R   C   A *
                                 *****************

           --- An Ab Initio, DFT and Semiempirical electronic structure package ---

                  #######################################################
                  #                        -***-                        #
                  #          Department of theory and spectroscopy      #
                  #               Directorship: Frank Neese             #
                  #        Max Planck Institute fuer Kohlenforschung    #
                  #                Kaiser Wilhelm Platz 1               #
                  #                 D-45470 Muelheim/Ruhr               #
                  #                      Germany                        #
                  #                                                     #
                  #                  All rights reserved                #
                  #                        -***-                        #
                  #######################################################


                         Program Version 4.2.0 -  RELEASE  -


 With contributions from (in alphabetic order):
   Daniel Aravena         : Magnetic Suceptibility
   Michael Atanasov       : Ab Initio Ligand Field Theory (pilot matlab implementation)
   Alexander A. Auer      : GIAO ZORA, VPT2
   Ute Becker             : Parallelization
   Giovanni Bistoni       : ED, misc. LED, open-shell LED, HFLED
   Martin Brehm           : Molecular dynamics
   Dmytro Bykov           : SCF Hessian
   Vijay G. Chilkuri      : MRCI spin determinant printing, contributions to CSF-ICE
   Dipayan Datta          : RHF DLPNO-CCSD density
   Achintya Kumar Dutta   : EOM-CC, STEOM-CC
   Dmitry Ganyushin       : Spin-Orbit,Spin-Spin,Magnetic field MRCI
   Miquel Garcia          : C-PCM Hessian, Gaussian charge scheme
   Yang Guo               : DLPNO-NEVPT2, CIM, IAO-localization
   Andreas Hansen         : Spin unrestricted coupled pair/coupled cluster methods
   Benjamin Helmich-Paris : CASSCF linear response (MC-RPA)
   Lee Huntington         : MR-EOM, pCC
   Robert Izsak           : Overlap fitted RIJCOSX, COSX-SCS-MP3, EOM
   Christian Kollmar      : KDIIS, OOCD, Brueckner-CCSD(T), CCSD density
   Simone Kossmann        : Meta GGA functionals, TD-DFT gradient, OOMP2, MP2 Hessian
   Martin Krupicka        : AUTO-CI
   Lucas Lang             : DCDCAS
   Dagmar Lenk            : GEPOL surface, SMD
   Dimitrios Liakos       : Extrapolation schemes; Compound Job, initial MDCI parallelization
   Dimitrios Manganas     : Further ROCIS development; embedding schemes
   Dimitrios Pantazis     : SARC Basis sets
   Taras Petrenko         : DFT Hessian,TD-DFT gradient, ASA, ECA, R-Raman, ABS, FL, XAS/XES, NRVS
   Peter Pinski           : DLPNO-MP2, DLPNO-MP2 Gradient
   Christoph Reimann      : Effective Core Potentials
   Marius Retegan         : Local ZFS, SOC
   Christoph Riplinger    : Optimizer, TS searches, QM/MM, DLPNO-CCSD(T), (RO)-DLPNO pert. Triples
   Tobias Risthaus        : Range-separated hybrids, TD-DFT gradient, RPA, STAB
   Michael Roemelt        : Original ROCIS implementation
   Masaaki Saitow         : Open-shell DLPNO-CCSD energy and density
   Barbara Sandhoefer     : DKH picture change effects
   Avijit Sen             : IP-ROCIS
   Kantharuban Sivalingam : CASSCF convergence, NEVPT2, FIC-MRCI
   Bernardo de Souza      : ESD, SOC TD-DFT
   Georgi Stoychev        : AutoAux, RI-MP2 NMR
   Willem Van den Heuvel  : Paramagnetic NMR
   Boris Wezisla          : Elementary symmetry handling
   Frank Wennmohs         : Technical directorship


 We gratefully acknowledge several colleagues who have allowed us to
 interface, adapt or use parts of their codes:
   Stefan Grimme, W. Hujo, H. Kruse,             : VdW corrections, initial TS optimization,
                  C. Bannwarth                     DFT functionals, gCP, sTDA/sTD-DF
   Ed Valeev, F. Pavosevic, A. Kumar             : LibInt (2-el integral package), F12 methods
   Garnet Chan, S. Sharma, J. Yang, R. Olivares  : DMRG
   Ulf Ekstrom                                   : XCFun DFT Library
   Mihaly Kallay                                 : mrcc  (arbitrary order and MRCC methods)
   Andreas Klamt, Michael Diedenhofen            : otool_cosmo (COSMO solvation model)
   Jiri Pittner, Ondrej Demel                    : Mk-CCSD
   Frank Weinhold                                : gennbo (NPA and NBO analysis)
   Christopher J. Cramer and Donald G. Truhlar   : smd solvation model
   Lars Goerigk                                  : TD-DFT with DH, B97 family of functionals
   V. Asgeirsson, H. Jonsson                     : NEB implementation
   FAccTs GmbH                                   : IRC, NEB, NEB-TS, Multilevel, MM, QM/MM, CI optimization
   S Lehtola, MJT Oliveira, MAL Marques          : LibXC Library


 Your calculation uses the libint2 library for the computation of 2-el integrals
 For citations please refer to: http://libint.valeyev.net

 Your ORCA version has been built with support for libXC version: 4.2.3
 For citations please refer to: https://tddft.org/programs/libxc/

 This ORCA versions uses:
   CBLAS   interface :  Fast vector & matrix operations
   LAPACKE interface :  Fast linear algebra routines
   SCALAPACK package :  Parallel linear algebra routines


Your calculation utilizes the atom-pairwise dispersion correction
with the Becke-Johnson damping scheme (D3BJ)
Cite in your paper:
S.Grimme, S.Ehrlich, L.Goerigk, J Comput Chem, (2011), 32, 1456–1465 
S.Grimme, J.Antony, S.Ehrlich and H.Krieg, J.Chem.Phys., 132, (2010), 154104 
   

----- Orbital basis set information -----
Your calculation utilizes the basis: aug-cc-pVTZ 
    H, B-Ne : Obtained from the ccRepo (grant-hill.group.shef.ac.uk/ccrepo) Feb. 2017
              R. A. Kendall, T. H. Dunning, Jr., R. J. Harrison, J. Chem. Phys. 96, 6796 (1992)
         He : Obtained from the ccRepo (grant-hill.group.shef.ac.uk/ccrepo) Feb. 2017
              D. E. Woon, T. H. Dunning, Jr., J. Chem. Phys. 100, 2975 (1994)
  Li-Be, Na : Obtained from the ccRepo (grant-hill.group.shef.ac.uk/ccrepo) Feb. 2017
              B. P. Prascher, D. E. Woon, K. A. Peterson, T. H. Dunning, Jr., A. K. Wilson, Theor. Chem. Acc. 128, 69 (2011)
         Mg : Obtained from the Peterson Research Group Website (tyr0.chem.wsu.edu/~kipeters) Feb. 2017
              B. P. Prascher, D. E. Woon, K. A. Peterson, T. H. Dunning, Jr., A. K. Wilson, Theor. Chem. Acc. 128, 69 (2011)
      Al-Ar : Obtained from the ccRepo (grant-hill.group.shef.ac.uk/ccrepo) Feb. 2017
              D. E. Woon, T. H. Dunning, Jr., J. Chem. Phys. 98, 1358 (1993)
      Sc-Zn : Obtained from the ccRepo (grant-hill.group.shef.ac.uk/ccrepo) Feb. 2017
              N. B. Balabanov, K. A. Peterson, J. Chem. Phys. 123, 064107 (2005)
              N. B. Balabanov, K. A. Peterson, J. Chem. Phys. 125, 074110 (2006)
      Ga-Kr : Obtained from the ccRepo (grant-hill.group.shef.ac.uk/ccrepo) Feb. 2017
              A. K. Wilson, D. E. Woon, K. A. Peterson, T. H. Dunning, Jr., J. Chem. Phys. 110, 7667 (1999)
     Ag, Au : Obtained from the Peterson Research Group Website (tyr0.chem.wsu.edu/~kipeters) Feb. 2017
              K. A. Peterson, C. Puzzarini, Theor. Chem. Acc. 114, 283 (2005)

----- AuxJ basis set information -----
Your calculation utilizes the auxiliary basis: def2/J
   F. Weigend, Phys. Chem. Chem. Phys. 8, 1057 (2006).

================================================================================
                                        WARNINGS
                       Please study these warnings very carefully!
================================================================================


WARNING: your system is open-shell and RHF/RKS was chosen
  ===> : WILL SWITCH to UHF/UKS


WARNING: The SCAN functional is very grid-sensitive!
         Use at least GRID5 and a higher intacc

INFO   : the flag for use of LIBINT has been found!

================================================================================
                                       INPUT FILE
================================================================================
NAME = 42_CoS.in
|  1> #
|  2> # 42_CoS scanfunc/aug-cc-pvtz
|  3> #
|  4> ! scanfunc d3bj aug-cc-pvtz def2/j grid4 nofinalgrid
|  5> 
|  6> *xyz 0 4
|  7>   Co  0.00000000000000      0.00000000000000      0.00920129654260
|  8>   S   0.00000000000000      0.00000000000000      1.99079870345740
|  9> *
| 10> 
| 11> %pal
| 12> nprocs 24
| 13> end
| 14> 
| 15> 
| 16>                          ****END OF INPUT****
================================================================================

                       ****************************
                       * Single Point Calculation *
                       ****************************

---------------------------------
CARTESIAN COORDINATES (ANGSTROEM)
---------------------------------
  Co     0.000000    0.000000    0.009201
  S      0.000000    0.000000    1.990799

----------------------------
CARTESIAN COORDINATES (A.U.)
----------------------------
  NO LB      ZA    FRAG     MASS         X           Y           Z
   0 Co   27.0000    0    58.930    0.000000    0.000000    0.017388
   1 S    16.0000    0    32.060    0.000000    0.000000    3.762064

--------------------------------
INTERNAL COORDINATES (ANGSTROEM)
--------------------------------
 Co     0   0   0     0.000000000000     0.00000000     0.00000000
 S      1   0   0     1.981597406915     0.00000000     0.00000000

---------------------------
INTERNAL COORDINATES (A.U.)
---------------------------
 Co     0   0   0     0.000000000000     0.00000000     0.00000000
 S      1   0   0     3.744676406757     0.00000000     0.00000000

---------------------
BASIS SET INFORMATION
---------------------
There are 2 groups of distinct atoms

 Group   1 Type Co  : 116s77p23d3f2g contracted to 8s7p5d3f2g pattern {19191919191911/151515151511/77711/111/11}
 Group   2 Type S   : 42s17p3d2f contracted to 6s5p3d2f pattern {131313111/77111/111/11}

Atom   0Co   basis set group =>   1
Atom   1S    basis set group =>   2
---------------------------------
AUXILIARY/J BASIS SET INFORMATION
---------------------------------
There are 2 groups of distinct atoms

 Group   1 Type Co  : 19s5p5d3f3g contracted to 8s5p5d2f3g pattern {121111111/11111/11111/21/111}
 Group   2 Type S   : 14s5p5d2f1g contracted to 8s4p3d1f1g pattern {71111111/2111/311/2/1}

Atom   0Co   basis set group =>   1
Atom   1S    basis set group =>   2


           ************************************************************
           *        Program running with 24 parallel MPI-processes    *
           *              working on a common directory               *
           ************************************************************
------------------------------------------------------------------------------
                           ORCA GTO INTEGRAL CALCULATION
                           -- RI-GTO INTEGRALS CHOSEN --
------------------------------------------------------------------------------

                         BASIS SET STATISTICS AND STARTUP INFO

Gaussian basis set:
 # of primitive gaussian shells          ...  285
 # of primitive gaussian functions       ...  623
 # of contracted shells                  ...   41
 # of contracted basis functions         ...  143
 Highest angular momentum                ...    4
 Maximum contraction depth               ...   19
Auxiliary gaussian basis set:
 # of primitive gaussian shells          ...   62
 # of primitive gaussian functions       ...  184
 # of contracted shells                  ...   40
 # of contracted aux-basis functions     ...  140
 Highest angular momentum                ...    4
 Maximum contraction depth               ...   12
Ratio of auxiliary to basis functions    ...  0.98
Integral package used                  ... LIBINT
 One Electron integrals                  ... done
 Ordering auxiliary basis shells         ... done
 Integral threshhold             Thresh  ...  1.000e-10
 Primitive cut-off               TCut    ...  1.000e-11
 Pre-screening matrix                    ... done
 Shell pair data                         ... 
 Ordering of the shell pairs             ... done (   0.000 sec) 861 of 861 pairs
 Determination of significant pairs      ... done (   0.000 sec)
 Creation of shell pair data             ... done (   0.001 sec)
 Storage of shell pair data              ... done (   0.048 sec)
 Shell pair data done in (   0.049 sec)
 Computing two index integrals           ... done
 Cholesky decomposition of the V-matrix  ... done


Timings:
 Total evaluation time                   ...   2.647 sec (  0.044 min)
 One electron matrix time                ...   0.052 sec (  0.001 min) =  2.0%
 Schwartz matrix evaluation time         ...   2.518 sec (  0.042 min) = 95.1%
 Two index repulsion integral time       ...   0.001 sec (  0.000 min) =  0.0%
 Cholesky decomposition of V             ...   0.001 sec (  0.000 min) =  0.0%
 Three index repulsion integral time     ...   0.000 sec (  0.000 min) =  0.0%



           ************************************************************
           *        Program running with 24 parallel MPI-processes    *
           *              working on a common directory               *
           ************************************************************
-------------------------------------------------------------------------------
                                 ORCA SCF
-------------------------------------------------------------------------------

------------
SCF SETTINGS
------------
Hamiltonian:
 Density Functional     Method          .... DFT(GTOs)
 Exchange Functional    Exchange        .... SCAN
 Correlation Functional Correlation     .... SCAN
 Gradients option       PostSCFGGA      .... off
   Density functional embedding theory  .... OFF
   NL short-range parameter             ....  6.400000
 RI-approximation to the Coulomb term is turned on
   Number of auxiliary basis functions  .... 140


General Settings:
 Integral files         IntName         .... 42_CoS
 Hartree-Fock type      HFTyp           .... UHF
 Total Charge           Charge          ....    0
 Multiplicity           Mult            ....    4
 Number of Electrons    NEL             ....   43
 Basis Dimension        Dim             ....  143
 Nuclear Repulsion      ENuc            ....    115.3637732810 Eh

Convergence Acceleration:
 DIIS                   CNVDIIS         .... on
   Start iteration      DIISMaxIt       ....    12
   Startup error        DIISStart       ....  0.200000
   # of expansion vecs  DIISMaxEq       ....     5
   Bias factor          DIISBfac        ....   1.050
   Max. coefficient     DIISMaxC        ....  10.000
 Newton-Raphson         CNVNR           .... off
 SOSCF                  CNVSOSCF        .... off
 Level Shifting         CNVShift        .... on
   Level shift para.    LevelShift      ....    0.2500
   Turn off err/grad.   ShiftErr        ....    0.0010
 Zerner damping         CNVZerner       .... off
 Static damping         CNVDamp         .... on
   Fraction old density DampFac         ....    0.7000
   Max. Damping (<1)    DampMax         ....    0.9800
   Min. Damping (>=0)   DampMin         ....    0.0000
   Turn off err/grad.   DampErr         ....    0.1000
 Fernandez-Rico         CNVRico         .... off

SCF Procedure:
 Maximum # iterations   MaxIter         ....   125
 SCF integral mode      SCFMode         .... Direct
   Integral package                     .... LIBINT
 Reset frequency        DirectResetFreq ....    20
 Integral Threshold     Thresh          ....  1.000e-10 Eh
 Primitive CutOff       TCut            ....  1.000e-11 Eh

Convergence Tolerance:
 Convergence Check Mode ConvCheckMode   .... Total+1el-Energy
 Convergence forced     ConvForced      .... 0
 Energy Change          TolE            ....  1.000e-06 Eh
 1-El. energy change                    ....  1.000e-03 Eh
 DIIS Error             TolErr          ....  1.000e-06


Diagonalization of the overlap matrix:
Smallest eigenvalue                        ... 8.498e-05
Time for diagonalization                   ...    0.006 sec
Threshold for overlap eigenvalues          ... 1.000e-08
Number of eigenvalues below threshold      ... 0
Time for construction of square roots      ...    0.002 sec
Total time needed                          ...    0.009 sec

-------------------
DFT GRID GENERATION
-------------------

General Integration Accuracy     IntAcc      ...  4.670
Radial Grid Type                 RadialGrid  ... Gauss-Chebyshev
Angular Grid (max. acc.)         AngularGrid ... Lebedev-302
Angular grid pruning method      GridPruning ... 3 (G Style)
Weight generation scheme         WeightScheme... Becke
Basis function cutoff            BFCut       ...    1.0000e-10
Integration weight cutoff        WCut        ...    1.0000e-14
Grids for H and He will be reduced by one unit

# of grid points (after initial pruning)     ...  16486 (   0.0 sec)
# of grid points (after weights+screening)   ...  16457 (   0.0 sec)
nearest neighbour list constructed           ...    0.0 sec
Grid point re-assignment to atoms done       ...    0.0 sec
Grid point division into batches done        ...    0.1 sec
Reduced shell lists constructed in    0.1 sec

Total number of grid points                  ...    16457
Total number of batches                      ...      258
Average number of points per batch           ...       63
Average number of grid points per atom       ...     8228
Average number of shells per batch           ...    13.75 (33.54%)
Average number of basis functions per batch  ...    33.92 (23.72%)
Average number of large shells per batch     ...     7.42 (53.94%)
Average number of large basis fcns per batch ...    19.08 (56.27%)
Maximum spatial batch extension              ...  24.49, 24.19, 17.54 au
Average spatial batch extension              ...   0.85,  0.83,  0.64 au

Time for grid setup =    0.164 sec

------------------------------
INITIAL GUESS: MODEL POTENTIAL
------------------------------
Loading Hartree-Fock densities                     ... done
Calculating cut-offs                               ... done
Setting up the integral package                    ... done
Initializing the effective Hamiltonian             ... done
Starting the Coulomb interaction                   ... done (   0.0 sec)
Reading the grid                                   ... done
Mapping shells                                     ... done
Starting the XC term evaluation                    ... done (   0.0 sec)
  promolecular density results
     # of electrons  =     43.000037366
     EX              =    -93.399654663
     EC              =     -0.757409338
     EX+EC           =    -94.157064001
Transforming the Hamiltonian                       ... done (   0.0 sec)
Diagonalizing the Hamiltonian                      ... done (   0.0 sec)
Back transforming the eigenvectors                 ... done (   0.0 sec)
Now organizing SCF variables                       ... done
                      ------------------
                      INITIAL GUESS DONE (   0.3 sec)
                      ------------------
--------------
SCF ITERATIONS
--------------
ITER       Energy         Delta-E        Max-DP      RMS-DP      [F,P]     Damp
               ***  Starting incremental Fock matrix formation  ***
  0  -1779.1957385382   0.00000000000012.88808650  0.10593716  1.4248643 0.7000
  1  -1779.8709976616  -0.675259123436 3.85376463  0.03167924  0.3140923 0.7000
  2  -1780.2917644780  -0.420766816357 2.70855411  0.02236328  0.4112374 0.7000
  3  -1780.5532386899  -0.261474211940 1.89796537  0.01567318  0.2107857 0.7000
                               ***Turning on DIIS***
  4  -1780.7242572067  -0.171018516791 1.32957079  0.01095311  0.1209359 0.7000
  5  -1780.8456844199  -0.121427213174 3.10177219  0.02557460  0.0808924 0.0000
  6  -1781.1386119179  -0.292927498033 0.05999311  0.00068827  0.0256702 0.0000
  7  -1781.1391951888  -0.000583270921 0.02732025  0.00029355  0.0690747 0.0000
  8  -1781.1395211781  -0.000325989316 0.01380632  0.00015175  0.0686059 0.0000
  9  -1781.1401086647  -0.000587486525 0.00748955  0.00009267  0.0676019 0.0000
 10  -1781.1410202498  -0.000911585152 0.00399794  0.00007517  0.0637504 0.0000
 11  -1781.1427062023  -0.001685952448 0.04952058  0.00060637  0.0534095 0.0000
 12  -1781.1358741138   0.006832088501 0.00250868  0.00005795  0.1067252 0.7000
 13  -1781.1381173170  -0.002243203261 0.00771442  0.00018372  0.0906907 0.0000
 14  -1781.1444540443  -0.006336727304 0.01080431  0.00013246  0.0381985 0.0000
 15  -1781.1466653081  -0.002211263789 0.00863373  0.00008244  0.0172840 0.0000
 16  -1781.1472507901  -0.000585481988 0.00521409  0.00004566  0.0043788 0.0000
 17  -1781.1473218494  -0.000071059301 0.00286716  0.00002631  0.0014354 0.0000
 18  -1781.1473349410  -0.000013091550 0.00178144  0.00001898  0.0022823 0.0000
 19  -1781.1473447662  -0.000009825212 0.00159377  0.00001643  0.0022728 0.0000
               *** Restarting incremental Fock matrix formation ***
                                   *** Resetting DIIS ***
 20  -1781.1473510795  -0.000006313325 0.00354844  0.00004742  0.0019709 0.0000
 21  -1781.1473082724   0.000042807108 0.00178426  0.00002336  0.0076158 0.0000
 22  -1781.1473552149  -0.000046942507 0.00192929  0.00001780  0.0028251 0.0000
 23  -1781.1473753121  -0.000020097211 0.55785379  0.00488173  0.0009095 0.0000
 24  -1781.1544599475  -0.007084635374 0.00001798  0.00000029  0.1569881 0.7000
 25  -1781.1544613341  -0.000001386608 0.00010741  0.00000182  0.1569839 0.7000
 26  -1781.1544457258   0.000015608280 0.00013470  0.00000174  0.1570157 0.7000
 27  -1781.1544287227   0.000017003137 0.00020371  0.00000219  0.1570515 0.7000
 28  -1781.1543975951   0.000031127554 0.07272610  0.00075485  0.1571111 0.7000
 29  -1781.1662399716  -0.011842376526 0.13137416  0.00121323  0.0603445 0.0000
 30  -1781.1371919758   0.029047995828 0.01748538  0.00015748  0.1865938 0.7000
 31  -1781.1523695631  -0.015177587321 0.02487262  0.00021395  0.1539105 0.7000
 32  -1781.1680810256  -0.015711462491 0.02591314  0.00022017  0.1127162 0.7000
 33  -1781.1790480705  -0.010967044924 0.07156538  0.00060894  0.0714221 0.0000
 34  -1781.1875645479  -0.008516477313 0.00775344  0.00015310  0.0396404 0.0000
 35  -1781.1885728186  -0.001008270741 0.00878078  0.00009613  0.0217832 0.0000
 36  -1781.1892932848  -0.000720466214 0.00833094  0.00007561  0.0145462 0.0000
 37  -1781.1896606397  -0.000367354931 0.00767840  0.00006470  0.0060471 0.0000
 38  -1781.1898101088  -0.000149469010 0.00536093  0.00004645  0.0024470 0.0000
 39  -1781.1898727473  -0.000062638543 0.00404754  0.00003650  0.0012062 0.0000
               *** Restarting incremental Fock matrix formation ***
                                   *** Resetting DIIS ***
 40  -1781.1898806283  -0.000007880974 0.00837666  0.00009846  0.0008192 0.0000
 41  -1781.1899390071  -0.000058378786 0.00112735  0.00001031  0.0015910 0.0000
 42  -1781.1899463102  -0.000007303194 0.00088423  0.00000972  0.0011672 0.0000
 43  -1781.1899492628  -0.000002952527 0.00408920  0.00004717  0.0006875 0.0000
 44  -1781.1899623290  -0.000013066246 0.00242627  0.00001959  0.0005495 0.0000
 45  -1781.1899638048  -0.000001475787 0.00190858  0.00001683  0.0008517 0.0000
 46  -1781.1899687168  -0.000004911944 0.00216170  0.00001776  0.0003868 0.0000
 47  -1781.1899718998  -0.000003183021 0.00121138  0.00001014  0.0003907 0.0000
 48  -1781.1899737059  -0.000001806145 0.00168064  0.00001366  0.0004903 0.0000
 49  -1781.1899760672  -0.000002361319 0.00506189  0.00004081  0.0003988 0.0000
 50  -1781.1899826358  -0.000006568521 0.00522669  0.00004135  0.0003958 0.0000
 51  -1781.1899890430  -0.000006407202 0.00976965  0.00007686  0.0004034 0.0000
 52  -1781.1900011609  -0.000012117976 0.00239998  0.00001875  0.0004432 0.0000
 53  -1781.1900041348  -0.000002973850 0.00419155  0.00003269  0.0004665 0.0000
 54  -1781.1900095759  -0.000005441147 0.00294165  0.00002391  0.0004894 0.0000
 55  -1781.1900050845   0.000004491481 0.00037290  0.00000285  0.0004524 0.0000
 56  -1781.1900047528   0.000000331607 0.00449528  0.00003511  0.0004490 0.0000
 57  -1781.1900104872  -0.000005734378 0.00319654  0.00002493  0.0004752 0.0000
 58  -1781.1900063645   0.000004122675 0.00059775  0.00000474  0.0004407 0.0000
 59  -1781.1900067530  -0.000000388435 0.00153941  0.00001277  0.0004468 0.0000
               *** Restarting incremental Fock matrix formation ***
                                   *** Resetting DIIS ***
 60  -1781.1899950908   0.000011662182 0.00315910  0.00003023  0.0004454 0.0000
 61  -1781.1899881262   0.000006964566 0.00049876  0.00000504  0.0028819 0.0000
 62  -1781.1899944661  -0.000006339880 0.00037753  0.00000316  0.0015980 0.0000
 63  -1781.1899970844  -0.000002618304 0.00030062  0.00000343  0.0010275 0.0000
 64  -1781.1899988098  -0.000001725372 0.00186884  0.00001494  0.0006049 0.0000
 65  -1781.1900018360  -0.000003026249 0.00261308  0.00002020  0.0004307 0.0000
 66  -1781.1900050553  -0.000003219242 0.00041727  0.00000323  0.0004582 0.0000
                 **** Energy Check signals convergence ****

               *****************************************************
               *                     SUCCESS                       *
               *           SCF CONVERGED AFTER  67 CYCLES          *
               *****************************************************


----------------
TOTAL SCF ENERGY
----------------

Total Energy       :        -1781.19000445 Eh          -48468.64412 eV

Components:
Nuclear Repulsion  :          115.36377328 Eh            3139.20787 eV
Electronic Energy  :        -1896.55377773 Eh          -51607.85198 eV
One Electron Energy:        -2696.28428408 Eh          -73369.62541 eV
Two Electron Energy:          799.73050635 Eh           21761.77342 eV

Virial components:
Potential Energy   :        -3559.75262042 Eh          -96865.79336 eV
Kinetic Energy     :         1778.56261596 Eh           48397.14924 eV
Virial Ratio       :            2.00147725


DFT components:
N(Alpha)           :       23.000011484863 electrons
N(Beta)            :       20.000011085241 electrons
N(Total)           :       43.000022570105 electrons
E(X)               :      -83.371612964199 Eh       
E(C)               :       -1.839556187485 Eh       
E(XC)              :      -85.211169151685 Eh       
DFET-embed. en.    :        0.000000000000 Eh       

---------------
SCF CONVERGENCE
---------------

  Last Energy change         ...    6.0148e-07  Tolerance :   1.0000e-06
  Last MAX-Density change    ...    3.0185e-04  Tolerance :   1.0000e-05
  Last RMS-Density change    ...    2.3223e-06  Tolerance :   1.0000e-06
  Last DIIS Error            ...    4.5381e-04  Tolerance :   1.0000e-06

             **** THE GBW FILE WAS UPDATED (42_CoS.gbw) ****
             **** DENSITY FILE WAS UPDATED (42_CoS.scfp) ****
             **** ENERGY FILE WAS UPDATED (42_CoS.en.tmp) ****
----------------------
UHF SPIN CONTAMINATION
----------------------

Warning: in a DFT calculation there is little theoretical justification to 
         calculate <S**2> as in Hartree-Fock theory. We will do it anyways
         but you should keep in mind that the values have only limited relevance

Expectation value of <S**2>     :     3.788968
Ideal value S*(S+1) for S=1.5   :     3.750000
Deviation                       :     0.038968

             **** THE GBW FILE WAS UPDATED (42_CoS.gbw) ****
             **** DENSITY FILE WAS UPDATED (42_CoS.scfp) ****
----------------
ORBITAL ENERGIES
----------------
                 SPIN UP ORBITALS
  NO   OCC          E(Eh)            E(eV) 
   0   1.0000    -277.112980     -7540.6275 
   1   1.0000     -88.642878     -2412.0954 
   2   1.0000     -32.659315      -888.7051 
   3   1.0000     -28.327694      -770.8358 
   4   1.0000     -28.322111      -770.6838 
   5   1.0000     -28.319279      -770.6068 
   6   1.0000      -7.849734      -213.6021 
   7   1.0000      -5.790290      -157.5618 
   8   1.0000      -5.784464      -157.4033 
   9   1.0000      -5.783205      -157.3690 
  10   1.0000      -3.790472      -103.1440 
  11   1.0000      -2.467974       -67.1570 
  12   1.0000      -2.459120       -66.9161 
  13   1.0000      -2.454301       -66.7849 
  14   1.0000      -0.627006       -17.0617 
  15   1.0000      -0.343950        -9.3594 
  16   1.0000      -0.334702        -9.1077 
  17   1.0000      -0.333849        -9.0845 
  18   1.0000      -0.312121        -8.4932 
  19   1.0000      -0.268751        -7.3131 
  20   1.0000      -0.237614        -6.4658 
  21   1.0000      -0.225433        -6.1343 
  22   1.0000      -0.216314        -5.8862 
  23   0.0000      -0.137405        -3.7390 
  24   0.0000      -0.026450        -0.7198 
  25   0.0000      -0.022092        -0.6012 
  26   0.0000       0.013498         0.3673 
  27   0.0000       0.019382         0.5274 
  28   0.0000       0.035115         0.9555 
  29   0.0000       0.036480         0.9927 
  30   0.0000       0.071424         1.9435 
  31   0.0000       0.081534         2.2187 
  32   0.0000       0.082863         2.2548 
  33   0.0000       0.084540         2.3005 
  34   0.0000       0.097896         2.6639 
  35   0.0000       0.099985         2.7207 
  36   0.0000       0.113850         3.0980 
  37   0.0000       0.115243         3.1359 
  38   0.0000       0.115564         3.1447 
  39   0.0000       0.144841         3.9413 
  40   0.0000       0.202546         5.5115 
  41   0.0000       0.206623         5.6225 
  42   0.0000       0.209656         5.7050 
  43   0.0000       0.210656         5.7323 
  44   0.0000       0.225946         6.1483 
  45   0.0000       0.246002         6.6941 
  46   0.0000       0.278352         7.5743 
  47   0.0000       0.282722         7.6932 
  48   0.0000       0.312039         8.4910 
  49   0.0000       0.316831         8.6214 
  50   0.0000       0.329283         8.9602 
  51   0.0000       0.376445        10.2436 
  52   0.0000       0.379745        10.3334 
  53   0.0000       0.500355        13.6154 
  54   0.0000       0.510083        13.8801 
  55   0.0000       0.516681        14.0596 
  56   0.0000       0.523754        14.2521 
  57   0.0000       0.599373        16.3098 
  58   0.0000       0.600044        16.3280 
  59   0.0000       0.631509        17.1842 
  60   0.0000       0.634247        17.2587 
  61   0.0000       0.637827        17.3562 
  62   0.0000       0.729429        19.8488 
  63   0.0000       0.729575        19.8528 
  64   0.0000       0.732374        19.9289 
  65   0.0000       0.768461        20.9109 
  66   0.0000       0.769021        20.9261 
  67   0.0000       0.819389        22.2967 
  68   0.0000       0.826315        22.4852 
  69   0.0000       0.896071        24.3833 
  70   0.0000       0.965030        26.2598 
  71   0.0000       0.970757        26.4157 
  72   0.0000       1.033143        28.1132 
  73   0.0000       1.033564        28.1247 
  74   0.0000       1.096002        29.8237 
  75   0.0000       1.187370        32.3100 
  76   0.0000       1.189525        32.3686 
  77   0.0000       1.225452        33.3462 
  78   0.0000       1.229632        33.4600 
  79   0.0000       1.268210        34.5097 
  80   0.0000       1.268734        34.5240 
  81   0.0000       1.276313        34.7302 
  82   0.0000       1.409975        38.3674 
  83   0.0000       1.577999        42.9395 
  84   0.0000       1.583401        43.0865 
  85   0.0000       1.818167        49.4748 
  86   0.0000       1.818585        49.4862 
  87   0.0000       1.929103        52.4936 
  88   0.0000       1.935439        52.6660 
  89   0.0000       1.939671        52.7811 
  90   0.0000       2.126620        57.8683 
  91   0.0000       2.135576        58.1120 
  92   0.0000       2.135713        58.1157 
  93   0.0000       2.138885        58.2020 
  94   0.0000       2.142809        58.3088 
  95   0.0000       2.157232        58.7013 
  96   0.0000       2.158372        58.7323 
  97   0.0000       2.242414        61.0192 
  98   0.0000       2.370276        64.4985 
  99   0.0000       2.382482        64.8306 
 100   0.0000       2.954799        80.4042 
 101   0.0000       3.135594        85.3239 
 102   0.0000       3.136270        85.3422 
 103   0.0000       3.189392        86.7878 
 104   0.0000       3.205786        87.2339 
 105   0.0000       3.237052        88.0847 
 106   0.0000       3.312465        90.1368 
 107   0.0000       3.312953        90.1500 
 108   0.0000       3.370642        91.7198 
 109   0.0000       3.383270        92.0635 
 110   0.0000       3.465361        94.2973 
 111   0.0000       3.969878       108.0259 
 112   0.0000       4.028609       109.6240 
 113   0.0000       4.028652       109.6252 
 114   0.0000       4.035857       109.8213 
 115   0.0000       4.036895       109.8495 
 116   0.0000       4.073278       110.8395 
 117   0.0000       4.080018       111.0229 
 118   0.0000       4.244561       115.5004 
 119   0.0000       4.300420       117.0204 
 120   0.0000       4.304477       117.1308 
 121   0.0000       5.059990       137.6893 
 122   0.0000       5.107032       138.9694 
 123   0.0000       5.397764       146.8806 
 124   0.0000       5.403828       147.0456 
 125   0.0000       5.446875       148.2170 
 126   0.0000       6.645095       180.8222 
 127   0.0000      10.410096       283.2731 
 128   0.0000      10.415085       283.4089 
 129   0.0000      10.417906       283.4856 
 130   0.0000      10.450253       284.3658 
 131   0.0000      10.511333       286.0279 
 132   0.0000      10.521119       286.2942 
 133   0.0000      10.579706       287.8884 
 134   0.0000      11.590948       315.4057 
 135   0.0000      11.593070       315.4635 
 136   0.0000      11.600708       315.6713 
 137   0.0000      11.611790       315.9729 
 138   0.0000      11.618521       316.1560 
 139   0.0000      11.638308       316.6945 
 140   0.0000      11.752306       319.7965 
 141   0.0000      11.756355       319.9067 
 142   0.0000      11.870198       323.0045 

                 SPIN DOWN ORBITALS
  NO   OCC          E(Eh)            E(eV) 
   0   1.0000    -277.108132     -7540.4956 
   1   1.0000     -88.639203     -2411.9953 
   2   1.0000     -32.602483      -887.1587 
   3   1.0000     -28.284939      -769.6723 
   4   1.0000     -28.284292      -769.6547 
   5   1.0000     -28.279137      -769.5144 
   6   1.0000      -7.841933      -213.3898 
   7   1.0000      -5.783201      -157.3689 
   8   1.0000      -5.777668      -157.2183 
   9   1.0000      -5.776250      -157.1798 
  10   1.0000      -3.643147       -99.1351 
  11   1.0000      -2.341429       -63.7135 
  12   1.0000      -2.317679       -63.0672 
  13   1.0000      -2.314263       -62.9743 
  14   1.0000      -0.611597       -16.6424 
  15   1.0000      -0.304194        -8.2775 
  16   1.0000      -0.253317        -6.8931 
  17   1.0000      -0.248662        -6.7664 
  18   1.0000      -0.236918        -6.4469 
  19   1.0000      -0.215115        -5.8536 
  20   0.0000      -0.156319        -4.2537 
  21   0.0000      -0.131121        -3.5680 
  22   0.0000      -0.124266        -3.3814 
  23   0.0000      -0.105356        -2.8669 
  24   0.0000      -0.005830        -0.1586 
  25   0.0000      -0.004049        -0.1102 
  26   0.0000       0.016433         0.4472 
  27   0.0000       0.021704         0.5906 
  28   0.0000       0.041522         1.1299 
  29   0.0000       0.042357         1.1526 
  30   0.0000       0.074412         2.0249 
  31   0.0000       0.081546         2.2190 
  32   0.0000       0.082342         2.2406 
  33   0.0000       0.088482         2.4077 
  34   0.0000       0.097399         2.6504 
  35   0.0000       0.099309         2.7023 
  36   0.0000       0.114892         3.1264 
  37   0.0000       0.117119         3.1870 
  38   0.0000       0.123718         3.3665 
  39   0.0000       0.142804         3.8859 
  40   0.0000       0.206695         5.6245 
  41   0.0000       0.211861         5.7650 
  42   0.0000       0.225187         6.1276 
  43   0.0000       0.228243         6.2108 
  44   0.0000       0.239340         6.5128 
  45   0.0000       0.253093         6.8870 
  46   0.0000       0.296368         8.0646 
  47   0.0000       0.303532         8.2595 
  48   0.0000       0.318942         8.6789 
  49   0.0000       0.332987         9.0610 
  50   0.0000       0.336823         9.1654 
  51   0.0000       0.386223        10.5097 
  52   0.0000       0.389510        10.5991 
  53   0.0000       0.508289        13.8312 
  54   0.0000       0.519629        14.1398 
  55   0.0000       0.525925        14.3111 
  56   0.0000       0.544760        14.8237 
  57   0.0000       0.618744        16.8369 
  58   0.0000       0.625249        17.0139 
  59   0.0000       0.641718        17.4620 
  60   0.0000       0.648441        17.6450 
  61   0.0000       0.655140        17.8273 
  62   0.0000       0.743990        20.2450 
  63   0.0000       0.747099        20.3296 
  64   0.0000       0.748219        20.3601 
  65   0.0000       0.781017        21.2526 
  66   0.0000       0.784019        21.3342 
  67   0.0000       0.841241        22.8913 
  68   0.0000       0.847063        23.0498 
  69   0.0000       0.913828        24.8665 
  70   0.0000       0.985649        26.8209 
  71   0.0000       0.994175        27.0529 
  72   0.0000       1.045696        28.4548 
  73   0.0000       1.052204        28.6319 
  74   0.0000       1.108602        30.1666 
  75   0.0000       1.216213        33.0948 
  76   0.0000       1.232730        33.5443 
  77   0.0000       1.248785        33.9812 
  78   0.0000       1.260367        34.2963 
  79   0.0000       1.278096        34.7788 
  80   0.0000       1.287283        35.0287 
  81   0.0000       1.323771        36.0216 
  82   0.0000       1.431382        38.9499 
  83   0.0000       1.610058        43.8119 
  84   0.0000       1.624427        44.2029 
  85   0.0000       1.856487        50.5176 
  86   0.0000       1.857348        50.5410 
  87   0.0000       1.951555        53.1045 
  88   0.0000       1.954947        53.1968 
  89   0.0000       1.962721        53.4084 
  90   0.0000       2.143920        58.3390 
  91   0.0000       2.153628        58.6032 
  92   0.0000       2.153685        58.6047 
  93   0.0000       2.180637        59.3381 
  94   0.0000       2.184821        59.4520 
  95   0.0000       2.187210        59.5170 
  96   0.0000       2.191607        59.6366 
  97   0.0000       2.258091        61.4458 
  98   0.0000       2.402132        65.3653 
  99   0.0000       2.403249        65.3957 
 100   0.0000       2.983895        81.1959 
 101   0.0000       3.183433        86.6256 
 102   0.0000       3.183522        86.6280 
 103   0.0000       3.259377        88.6921 
 104   0.0000       3.269041        88.9551 
 105   0.0000       3.290301        89.5336 
 106   0.0000       3.354366        91.2769 
 107   0.0000       3.367611        91.6374 
 108   0.0000       3.412042        92.8464 
 109   0.0000       3.416245        92.9608 
 110   0.0000       3.496633        95.1482 
 111   0.0000       4.010989       109.1446 
 112   0.0000       4.085418       111.1699 
 113   0.0000       4.085943       111.1842 
 114   0.0000       4.087042       111.2141 
 115   0.0000       4.090225       111.3007 
 116   0.0000       4.130826       112.4055 
 117   0.0000       4.134530       112.5063 
 118   0.0000       4.274757       116.3221 
 119   0.0000       4.352124       118.4273 
 120   0.0000       4.364664       118.7686 
 121   0.0000       5.090267       138.5132 
 122   0.0000       5.174997       140.8188 
 123   0.0000       5.462372       148.6387 
 124   0.0000       5.497571       149.5965 
 125   0.0000       5.512703       150.0083 
 126   0.0000       6.668624       181.4625 
 127   0.0000      10.470866       284.9267 
 128   0.0000      10.502156       285.7782 
 129   0.0000      10.521484       286.3041 
 130   0.0000      10.593954       288.2761 
 131   0.0000      10.596755       288.3524 
 132   0.0000      10.599109       288.4164 
 133   0.0000      10.649057       289.7756 
 134   0.0000      11.601581       315.6951 
 135   0.0000      11.648436       316.9701 
 136   0.0000      11.661019       317.3125 
 137   0.0000      11.676967       317.7464 
 138   0.0000      11.683094       317.9132 
 139   0.0000      11.689757       318.0945 
 140   0.0000      11.772426       320.3440 
 141   0.0000      11.788331       320.7768 
 142   0.0000      11.907637       324.0233 

                    ********************************
                    * MULLIKEN POPULATION ANALYSIS *
                    ********************************

--------------------------------------------
MULLIKEN ATOMIC CHARGES AND SPIN POPULATIONS
--------------------------------------------
   0 Co:    0.259917    2.452427
   1 S :   -0.259917    0.547573
Sum of atomic charges         :   -0.0000000
Sum of atomic spin populations:    3.0000000

-----------------------------------------------------
MULLIKEN REDUCED ORBITAL CHARGES AND SPIN POPULATIONS
-----------------------------------------------------
CHARGE
  0 Cos       :     6.871919  s :     6.871919
      pz      :     4.092218  p :    12.282451
      px      :     4.103066
      py      :     4.087166
      dz2     :     1.778527  d :     7.573432
      dxz     :     1.256323
      dyz     :     1.490665
      dx2y2   :     1.312757
      dxy     :     1.735159
      f0      :     0.003164  f :     0.011524
      f+1     :     0.004263
      f-1     :     0.003771
      f+2     :     0.000088
      f-2     :     0.000082
      f+3     :     0.000082
      f-3     :     0.000075
      g0      :     0.000279  g :     0.000758
      g+1     :     0.000182
      g-1     :     0.000208
      g+2     :     0.000013
      g-2     :     0.000013
      g+3     :     0.000006
      g-3     :     0.000006
      g+4     :     0.000011
      g-4     :     0.000040
  1 S s       :     5.912107  s :     5.912107
      pz      :     3.285002  p :    10.300608
      px      :     3.618631
      py      :     3.396975
      dz2     :     0.004587  d :     0.040077
      dxz     :     0.015172
      dyz     :     0.017954
      dx2y2   :     0.000941
      dxy     :     0.001423
      f0      :     0.000255  f :     0.007125
      f+1     :     0.002241
      f-1     :     0.003148
      f+2     :     0.000559
      f-2     :     0.000857
      f+3     :     0.000035
      f-3     :     0.000032

SPIN
  0 Cos       :     0.212489  s :     0.212489
      pz      :    -0.001170  p :     0.072764
      px      :     0.031774
      py      :     0.042161
      dz2     :     0.003323  d :     2.165699
      dxz     :     0.726894
      dyz     :     0.489123
      dx2y2   :     0.684448
      dxy     :     0.261911
      f0      :     0.000563  f :     0.001617
      f+1     :     0.000335
      f-1     :     0.000694
      f+2     :     0.000051
      f-2     :     0.000059
      f+3     :    -0.000043
      f-3     :    -0.000041
      g0      :    -0.000037  g :    -0.000144
      g+1     :    -0.000022
      g-1     :    -0.000060
      g+2     :    -0.000001
      g-2     :     0.000004
      g+3     :    -0.000002
      g-3     :    -0.000002
      g+4     :    -0.000003
      g-4     :    -0.000020
  1 S s       :    -0.018422  s :    -0.018422
      pz      :    -0.140312  p :     0.580431
      px      :     0.245681
      py      :     0.475062
      dz2     :    -0.003789  d :    -0.011338
      dxz     :    -0.003249
      dyz     :    -0.004728
      dx2y2   :     0.000326
      dxy     :     0.000102
      f0      :     0.000042  f :    -0.003098
      f+1     :    -0.001374
      f-1     :    -0.002253
      f+2     :     0.000300
      f-2     :     0.000138
      f+3     :     0.000025
      f-3     :     0.000024


                     *******************************
                     * LOEWDIN POPULATION ANALYSIS *
                     *******************************

-------------------------------------------
LOEWDIN ATOMIC CHARGES AND SPIN POPULATIONS
-------------------------------------------
   0 Co:    0.043546    2.437546
   1 S :   -0.043546    0.562454

----------------------------------------------------
LOEWDIN REDUCED ORBITAL CHARGES AND SPIN POPULATIONS
----------------------------------------------------
CHARGE
  0 Cos       :     6.608230  s :     6.608230
      pz      :     4.238832  p :    12.479143
      px      :     4.133672
      py      :     4.106639
      dz2     :     1.896614  d :     7.771503
      dxz     :     1.319447
      dyz     :     1.530449
      dx2y2   :     1.303255
      dxy     :     1.721738
      f0      :     0.036990  f :     0.095039
      f+1     :     0.030726
      f-1     :     0.026446
      f+2     :     0.000333
      f-2     :     0.000387
      f+3     :     0.000082
      f-3     :     0.000075
      g0      :     0.001082  g :     0.002540
      g+1     :     0.000717
      g-1     :     0.000651
      g+2     :     0.000012
      g-2     :     0.000014
      g+3     :     0.000006
      g-3     :     0.000006
      g+4     :     0.000011
      g-4     :     0.000040
  1 S s       :     5.481164  s :     5.481164
      pz      :     3.457220  p :    10.141817
      px      :     3.437939
      py      :     3.246658
      dz2     :     0.138376  d :     0.234835
      dxz     :     0.040271
      dyz     :     0.047531
      dx2y2   :     0.003507
      dxy     :     0.005150
      f0      :     0.089549  f :     0.185730
      f+1     :     0.037106
      f-1     :     0.041512
      f+2     :     0.007250
      f-2     :     0.010246
      f+3     :     0.000035
      f-3     :     0.000032

SPIN
  0 Cos       :     0.124175  s :     0.124175
      pz      :    -0.014750  p :     0.136556
      px      :     0.064283
      py      :     0.087022
      dz2     :    -0.000647  d :     2.157839
      dxz     :     0.716664
      dyz     :     0.501423
      dx2y2   :     0.680120
      dxy     :     0.260279
      f0      :     0.000378  f :     0.018815
      f+1     :     0.006710
      f-1     :     0.011374
      f+2     :     0.000227
      f-2     :     0.000211
      f+3     :    -0.000043
      f-3     :    -0.000041
      g0      :    -0.000081  g :     0.000161
      g+1     :     0.000102
      g-1     :     0.000175
      g+2     :    -0.000005
      g-2     :    -0.000004
      g+3     :    -0.000002
      g-3     :    -0.000002
      g+4     :    -0.000003
      g-4     :    -0.000020
  1 S s       :     0.005379  s :     0.005379
      pz      :    -0.063348  p :     0.526446
      px      :     0.196508
      py      :     0.393286
      dz2     :     0.002833  d :     0.015854
      dxz     :     0.008202
      dyz     :     0.002928
      dx2y2   :     0.001403
      dxy     :     0.000488
      f0      :    -0.001253  f :     0.014775
      f+1     :     0.007571
      f-1     :     0.003790
      f+2     :     0.003378
      f-2     :     0.001240
      f+3     :     0.000025
      f-3     :     0.000024


                      *****************************
                      * MAYER POPULATION ANALYSIS *
                      *****************************

  NA   - Mulliken gross atomic population
  ZA   - Total nuclear charge
  QA   - Mulliken gross atomic charge
  VA   - Mayer's total valence
  BVA  - Mayer's bonded valence
  FA   - Mayer's free valence

  ATOM       NA         ZA         QA         VA         BVA        FA
  0 Co    26.7401    27.0000     0.2599     4.3464     2.3602     1.9862
  1 S     16.2599    16.0000    -0.2599     2.6895     2.3602     0.3292

  Mayer bond orders larger than 0.100000
B(  0-Co,  1-S ) :   2.3602 

-------
TIMINGS
-------

Total SCF time: 0 days 0 hours 0 min 12 sec 

Total time                  ....      12.785 sec
Sum of individual times     ....      12.531 sec  ( 98.0%)

Fock matrix formation       ....      11.718 sec  ( 91.7%)
  Split-RI-J                ....       8.704 sec  ( 74.3% of F)
  XC integration            ....       2.468 sec  ( 21.1% of F)
    Basis function eval.    ....       0.329 sec  ( 13.3% of XC)
    Density eval.           ....       0.350 sec  ( 14.2% of XC)
    XC-Functional eval.     ....       0.069 sec  (  2.8% of XC)
    XC-Potential eval.      ....       0.997 sec  ( 40.4% of XC)
Diagonalization             ....       0.346 sec  (  2.7%)
Density matrix formation    ....       0.041 sec  (  0.3%)
Population analysis         ....       0.007 sec  (  0.1%)
Initial guess               ....       0.128 sec  (  1.0%)
Orbital Transformation      ....       0.000 sec  (  0.0%)
Orbital Orthonormalization  ....       0.000 sec  (  0.0%)
DIIS solution               ....       0.126 sec  (  1.0%)
Grid generation             ....       0.164 sec  (  1.3%)


-------------------------------------------------------------------------------
                          DFT DISPERSION CORRECTION                            
                                                                               
                              DFTD3 V3.1  Rev 1                                
                          USING Becke-Johnson damping                          
-------------------------------------------------------------------------------
The SCAN functional is recognized
Active option DFTDOPT                   ...         4   

molecular C6(AA) [au] = 682.766983 


            DFT-D V3
 parameters
 s6 scaling factor         :     1.0000 
 a1 scaling factor         :     0.5380 
 s8 scaling factor         :     0.0000 
 a2 scaling factor         :     5.4200 
 ad hoc parameters k1-k3   :    16.0000     1.3333    -4.0000 

 Edisp/kcal,au: -0.118993220928  -0.000189627748 
 E6   /kcal   :  -0.118993221 
 E8   /kcal   :  -0.000000000 
 % E8         :   0.000000000 

-------------------------   ----------------
Dispersion correction           -0.000189628
-------------------------   ----------------


-------------------------   --------------------
FINAL SINGLE POINT ENERGY     -1781.190194081545
-------------------------   --------------------


                            ***************************************
                            *     ORCA property calculations      *
                            ***************************************

                                    ---------------------
                                    Active property flags
                                    ---------------------
   (+) Dipole Moment


------------------------------------------------------------------------------
                       ORCA ELECTRIC PROPERTIES CALCULATION
------------------------------------------------------------------------------

Dipole Moment Calculation                       ... on
Quadrupole Moment Calculation                   ... off
Polarizability Calculation                      ... off
GBWName                                         ... 42_CoS.gbw
Electron density file                           ... 42_CoS.scfp
The origin for moment calculation is the CENTER OF MASS  = ( 0.000000,  0.000000  1.336811)

-------------
DIPOLE MOMENT
-------------
                                X             Y             Z
Electronic contribution:     -0.00000      -0.00000      -4.91622
Nuclear contribution   :      0.00000       0.00000       3.17962
                        -----------------------------------------
Total Dipole Moment    :     -0.00000      -0.00000      -1.73660
                        -----------------------------------------
Magnitude (a.u.)       :      1.73660
Magnitude (Debye)      :      4.41409



--------------------
Rotational spectrum 
--------------------
 
Rotational constants in cm-1:     0.000000     0.206757     0.206757 
Rotational constants in MHz :     0.000000  6198.412278  6198.412278 

 Dipole components along the rotational axes: 
x,y,z [a.u.] :    -1.736601    -0.000000    -0.000000 
x,y,z [Debye]:    -4.414090    -0.000000    -0.000000 

 

Timings for individual modules:

Sum of individual times         ...       16.242 sec (=   0.271 min)
GTO integral calculation        ...        3.085 sec (=   0.051 min)  19.0 %
SCF iterations                  ...       13.157 sec (=   0.219 min)  81.0 %
                             ****ORCA TERMINATED NORMALLY****
TOTAL RUN TIME: 0 days 0 hours 0 minutes 16 seconds 815 msec
