
                                 *****************
                                 * O   R   C   A *
                                 *****************

           --- An Ab Initio, DFT and Semiempirical electronic structure package ---

                  #######################################################
                  #                        -***-                        #
                  #          Department of theory and spectroscopy      #
                  #               Directorship: Frank Neese             #
                  #        Max Planck Institute fuer Kohlenforschung    #
                  #                Kaiser Wilhelm Platz 1               #
                  #                 D-45470 Muelheim/Ruhr               #
                  #                      Germany                        #
                  #                                                     #
                  #                  All rights reserved                #
                  #                        -***-                        #
                  #######################################################


                         Program Version 4.2.0 -  RELEASE  -


 With contributions from (in alphabetic order):
   Daniel Aravena         : Magnetic Suceptibility
   Michael Atanasov       : Ab Initio Ligand Field Theory (pilot matlab implementation)
   Alexander A. Auer      : GIAO ZORA, VPT2
   Ute Becker             : Parallelization
   Giovanni Bistoni       : ED, misc. LED, open-shell LED, HFLED
   Martin Brehm           : Molecular dynamics
   Dmytro Bykov           : SCF Hessian
   Vijay G. Chilkuri      : MRCI spin determinant printing, contributions to CSF-ICE
   Dipayan Datta          : RHF DLPNO-CCSD density
   Achintya Kumar Dutta   : EOM-CC, STEOM-CC
   Dmitry Ganyushin       : Spin-Orbit,Spin-Spin,Magnetic field MRCI
   Miquel Garcia          : C-PCM Hessian, Gaussian charge scheme
   Yang Guo               : DLPNO-NEVPT2, CIM, IAO-localization
   Andreas Hansen         : Spin unrestricted coupled pair/coupled cluster methods
   Benjamin Helmich-Paris : CASSCF linear response (MC-RPA)
   Lee Huntington         : MR-EOM, pCC
   Robert Izsak           : Overlap fitted RIJCOSX, COSX-SCS-MP3, EOM
   Christian Kollmar      : KDIIS, OOCD, Brueckner-CCSD(T), CCSD density
   Simone Kossmann        : Meta GGA functionals, TD-DFT gradient, OOMP2, MP2 Hessian
   Martin Krupicka        : AUTO-CI
   Lucas Lang             : DCDCAS
   Dagmar Lenk            : GEPOL surface, SMD
   Dimitrios Liakos       : Extrapolation schemes; Compound Job, initial MDCI parallelization
   Dimitrios Manganas     : Further ROCIS development; embedding schemes
   Dimitrios Pantazis     : SARC Basis sets
   Taras Petrenko         : DFT Hessian,TD-DFT gradient, ASA, ECA, R-Raman, ABS, FL, XAS/XES, NRVS
   Peter Pinski           : DLPNO-MP2, DLPNO-MP2 Gradient
   Christoph Reimann      : Effective Core Potentials
   Marius Retegan         : Local ZFS, SOC
   Christoph Riplinger    : Optimizer, TS searches, QM/MM, DLPNO-CCSD(T), (RO)-DLPNO pert. Triples
   Tobias Risthaus        : Range-separated hybrids, TD-DFT gradient, RPA, STAB
   Michael Roemelt        : Original ROCIS implementation
   Masaaki Saitow         : Open-shell DLPNO-CCSD energy and density
   Barbara Sandhoefer     : DKH picture change effects
   Avijit Sen             : IP-ROCIS
   Kantharuban Sivalingam : CASSCF convergence, NEVPT2, FIC-MRCI
   Bernardo de Souza      : ESD, SOC TD-DFT
   Georgi Stoychev        : AutoAux, RI-MP2 NMR
   Willem Van den Heuvel  : Paramagnetic NMR
   Boris Wezisla          : Elementary symmetry handling
   Frank Wennmohs         : Technical directorship


 We gratefully acknowledge several colleagues who have allowed us to
 interface, adapt or use parts of their codes:
   Stefan Grimme, W. Hujo, H. Kruse,             : VdW corrections, initial TS optimization,
                  C. Bannwarth                     DFT functionals, gCP, sTDA/sTD-DF
   Ed Valeev, F. Pavosevic, A. Kumar             : LibInt (2-el integral package), F12 methods
   Garnet Chan, S. Sharma, J. Yang, R. Olivares  : DMRG
   Ulf Ekstrom                                   : XCFun DFT Library
   Mihaly Kallay                                 : mrcc  (arbitrary order and MRCC methods)
   Andreas Klamt, Michael Diedenhofen            : otool_cosmo (COSMO solvation model)
   Jiri Pittner, Ondrej Demel                    : Mk-CCSD
   Frank Weinhold                                : gennbo (NPA and NBO analysis)
   Christopher J. Cramer and Donald G. Truhlar   : smd solvation model
   Lars Goerigk                                  : TD-DFT with DH, B97 family of functionals
   V. Asgeirsson, H. Jonsson                     : NEB implementation
   FAccTs GmbH                                   : IRC, NEB, NEB-TS, Multilevel, MM, QM/MM, CI optimization
   S Lehtola, MJT Oliveira, MAL Marques          : LibXC Library


 Your calculation uses the libint2 library for the computation of 2-el integrals
 For citations please refer to: http://libint.valeyev.net

 Your ORCA version has been built with support for libXC version: 4.2.3
 For citations please refer to: https://tddft.org/programs/libxc/

 This ORCA versions uses:
   CBLAS   interface :  Fast vector & matrix operations
   LAPACKE interface :  Fast linear algebra routines
   SCALAPACK package :  Parallel linear algebra routines


Your calculation utilizes the atom-pairwise dispersion correction
with the Becke-Johnson damping scheme (D3BJ)
Cite in your paper:
S.Grimme, S.Ehrlich, L.Goerigk, J Comput Chem, (2011), 32, 1456–1465 
S.Grimme, J.Antony, S.Ehrlich and H.Krieg, J.Chem.Phys., 132, (2010), 154104 
   

----- Orbital basis set information -----
Your calculation utilizes the basis: aug-cc-pVTZ 
    H, B-Ne : Obtained from the ccRepo (grant-hill.group.shef.ac.uk/ccrepo) Feb. 2017
              R. A. Kendall, T. H. Dunning, Jr., R. J. Harrison, J. Chem. Phys. 96, 6796 (1992)
         He : Obtained from the ccRepo (grant-hill.group.shef.ac.uk/ccrepo) Feb. 2017
              D. E. Woon, T. H. Dunning, Jr., J. Chem. Phys. 100, 2975 (1994)
  Li-Be, Na : Obtained from the ccRepo (grant-hill.group.shef.ac.uk/ccrepo) Feb. 2017
              B. P. Prascher, D. E. Woon, K. A. Peterson, T. H. Dunning, Jr., A. K. Wilson, Theor. Chem. Acc. 128, 69 (2011)
         Mg : Obtained from the Peterson Research Group Website (tyr0.chem.wsu.edu/~kipeters) Feb. 2017
              B. P. Prascher, D. E. Woon, K. A. Peterson, T. H. Dunning, Jr., A. K. Wilson, Theor. Chem. Acc. 128, 69 (2011)
      Al-Ar : Obtained from the ccRepo (grant-hill.group.shef.ac.uk/ccrepo) Feb. 2017
              D. E. Woon, T. H. Dunning, Jr., J. Chem. Phys. 98, 1358 (1993)
      Sc-Zn : Obtained from the ccRepo (grant-hill.group.shef.ac.uk/ccrepo) Feb. 2017
              N. B. Balabanov, K. A. Peterson, J. Chem. Phys. 123, 064107 (2005)
              N. B. Balabanov, K. A. Peterson, J. Chem. Phys. 125, 074110 (2006)
      Ga-Kr : Obtained from the ccRepo (grant-hill.group.shef.ac.uk/ccrepo) Feb. 2017
              A. K. Wilson, D. E. Woon, K. A. Peterson, T. H. Dunning, Jr., J. Chem. Phys. 110, 7667 (1999)
     Ag, Au : Obtained from the Peterson Research Group Website (tyr0.chem.wsu.edu/~kipeters) Feb. 2017
              K. A. Peterson, C. Puzzarini, Theor. Chem. Acc. 114, 283 (2005)

----- AuxJ basis set information -----
Your calculation utilizes the auxiliary basis: def2/J
   F. Weigend, Phys. Chem. Chem. Phys. 8, 1057 (2006).

================================================================================
                                        WARNINGS
                       Please study these warnings very carefully!
================================================================================


WARNING: your system is open-shell and RHF/RKS was chosen
  ===> : WILL SWITCH to UHF/UKS


WARNING: The SCAN functional is very grid-sensitive!
         Use at least GRID5 and a higher intacc

INFO   : the flag for use of LIBINT has been found!

================================================================================
                                       INPUT FILE
================================================================================
NAME = 44_NiF.in
|  1> #
|  2> # 44_NiF scanfunc/aug-cc-pvtz
|  3> #
|  4> ! scanfunc d3bj aug-cc-pvtz def2/j grid4 nofinalgrid
|  5> 
|  6> *xyz 0 2
|  7>   Ni  0.00000000000000      0.00000000000000      0.12374716283349
|  8>   F   0.00000000000000      0.00000000000000      1.87625283716651
|  9> *
| 10> 
| 11> %pal
| 12> nprocs 24
| 13> end
| 14> 
| 15> 
| 16>                          ****END OF INPUT****
================================================================================

                       ****************************
                       * Single Point Calculation *
                       ****************************

---------------------------------
CARTESIAN COORDINATES (ANGSTROEM)
---------------------------------
  Ni     0.000000    0.000000    0.123747
  F      0.000000    0.000000    1.876253

----------------------------
CARTESIAN COORDINATES (A.U.)
----------------------------
  NO LB      ZA    FRAG     MASS         X           Y           Z
   0 Ni   28.0000    0    58.700    0.000000    0.000000    0.233848
   1 F     9.0000    0    18.998    0.000000    0.000000    3.545604

--------------------------------
INTERNAL COORDINATES (ANGSTROEM)
--------------------------------
 Ni     0   0   0     0.000000000000     0.00000000     0.00000000
 F      1   0   0     1.752505674333     0.00000000     0.00000000

---------------------------
INTERNAL COORDINATES (A.U.)
---------------------------
 Ni     0   0   0     0.000000000000     0.00000000     0.00000000
 F      1   0   0     3.311755772632     0.00000000     0.00000000

---------------------
BASIS SET INFORMATION
---------------------
There are 2 groups of distinct atoms

 Group   1 Type Ni  : 116s77p23d3f2g contracted to 8s7p5d3f2g pattern {19191919191911/151515151511/77711/111/11}
 Group   2 Type F   : 19s6p3d2f contracted to 5s4p3d2f pattern {88111/3111/111/11}

Atom   0Ni   basis set group =>   1
Atom   1F    basis set group =>   2
---------------------------------
AUXILIARY/J BASIS SET INFORMATION
---------------------------------
There are 2 groups of distinct atoms

 Group   1 Type Ni  : 19s5p5d3f3g contracted to 8s5p5d2f3g pattern {121111111/11111/11111/21/111}
 Group   2 Type F   : 12s5p4d2f1g contracted to 6s4p3d1f1g pattern {711111/2111/211/2/1}

Atom   0Ni   basis set group =>   1
Atom   1F    basis set group =>   2


           ************************************************************
           *        Program running with 24 parallel MPI-processes    *
           *              working on a common directory               *
           ************************************************************
------------------------------------------------------------------------------
                           ORCA GTO INTEGRAL CALCULATION
                           -- RI-GTO INTEGRALS CHOSEN --
------------------------------------------------------------------------------

                         BASIS SET STATISTICS AND STARTUP INFO

Gaussian basis set:
 # of primitive gaussian shells          ...  251
 # of primitive gaussian functions       ...  567
 # of contracted shells                  ...   39
 # of contracted basis functions         ...  139
 Highest angular momentum                ...    4
 Maximum contraction depth               ...   19
Auxiliary gaussian basis set:
 # of primitive gaussian shells          ...   59
 # of primitive gaussian functions       ...  177
 # of contracted shells                  ...   38
 # of contracted aux-basis functions     ...  138
 Highest angular momentum                ...    4
 Maximum contraction depth               ...   12
Ratio of auxiliary to basis functions    ...  0.99
Integral package used                  ... LIBINT
 One Electron integrals                  ... done
 Ordering auxiliary basis shells         ... done
 Integral threshhold             Thresh  ...  1.000e-10
 Primitive cut-off               TCut    ...  1.000e-11
 Pre-screening matrix                    ... done
 Shell pair data                         ... 
 Ordering of the shell pairs             ... done (   0.000 sec) 780 of 780 pairs
 Determination of significant pairs      ... done (   0.000 sec)
 Creation of shell pair data             ... done (   0.001 sec)
 Storage of shell pair data              ... done (   0.014 sec)
 Shell pair data done in (   0.015 sec)
 Computing two index integrals           ... done
 Cholesky decomposition of the V-matrix  ... done


Timings:
 Total evaluation time                   ...   2.240 sec (  0.037 min)
 One electron matrix time                ...   0.038 sec (  0.001 min) =  1.7%
 Schwartz matrix evaluation time         ...   2.156 sec (  0.036 min) = 96.3%
 Two index repulsion integral time       ...   0.001 sec (  0.000 min) =  0.0%
 Cholesky decomposition of V             ...   0.001 sec (  0.000 min) =  0.0%
 Three index repulsion integral time     ...   0.000 sec (  0.000 min) =  0.0%



           ************************************************************
           *        Program running with 24 parallel MPI-processes    *
           *              working on a common directory               *
           ************************************************************
-------------------------------------------------------------------------------
                                 ORCA SCF
-------------------------------------------------------------------------------

------------
SCF SETTINGS
------------
Hamiltonian:
 Density Functional     Method          .... DFT(GTOs)
 Exchange Functional    Exchange        .... SCAN
 Correlation Functional Correlation     .... SCAN
 Gradients option       PostSCFGGA      .... off
   Density functional embedding theory  .... OFF
   NL short-range parameter             ....  6.400000
 RI-approximation to the Coulomb term is turned on
   Number of auxiliary basis functions  .... 138


General Settings:
 Integral files         IntName         .... 44_NiF
 Hartree-Fock type      HFTyp           .... UHF
 Total Charge           Charge          ....    0
 Multiplicity           Mult            ....    2
 Number of Electrons    NEL             ....   37
 Basis Dimension        Dim             ....  139
 Nuclear Repulsion      ENuc            ....     76.0925675989 Eh

Convergence Acceleration:
 DIIS                   CNVDIIS         .... on
   Start iteration      DIISMaxIt       ....    12
   Startup error        DIISStart       ....  0.200000
   # of expansion vecs  DIISMaxEq       ....     5
   Bias factor          DIISBfac        ....   1.050
   Max. coefficient     DIISMaxC        ....  10.000
 Newton-Raphson         CNVNR           .... off
 SOSCF                  CNVSOSCF        .... off
 Level Shifting         CNVShift        .... on
   Level shift para.    LevelShift      ....    0.2500
   Turn off err/grad.   ShiftErr        ....    0.0010
 Zerner damping         CNVZerner       .... off
 Static damping         CNVDamp         .... on
   Fraction old density DampFac         ....    0.7000
   Max. Damping (<1)    DampMax         ....    0.9800
   Min. Damping (>=0)   DampMin         ....    0.0000
   Turn off err/grad.   DampErr         ....    0.1000
 Fernandez-Rico         CNVRico         .... off

SCF Procedure:
 Maximum # iterations   MaxIter         ....   125
 SCF integral mode      SCFMode         .... Direct
   Integral package                     .... LIBINT
 Reset frequency        DirectResetFreq ....    20
 Integral Threshold     Thresh          ....  1.000e-10 Eh
 Primitive CutOff       TCut            ....  1.000e-11 Eh

Convergence Tolerance:
 Convergence Check Mode ConvCheckMode   .... Total+1el-Energy
 Convergence forced     ConvForced      .... 0
 Energy Change          TolE            ....  1.000e-06 Eh
 1-El. energy change                    ....  1.000e-03 Eh
 DIIS Error             TolErr          ....  1.000e-06


Diagonalization of the overlap matrix:
Smallest eigenvalue                        ... 2.518e-04
Time for diagonalization                   ...    0.004 sec
Threshold for overlap eigenvalues          ... 1.000e-08
Number of eigenvalues below threshold      ... 0
Time for construction of square roots      ...    0.002 sec
Total time needed                          ...    0.006 sec

-------------------
DFT GRID GENERATION
-------------------

General Integration Accuracy     IntAcc      ...  4.670
Radial Grid Type                 RadialGrid  ... Gauss-Chebyshev
Angular Grid (max. acc.)         AngularGrid ... Lebedev-302
Angular grid pruning method      GridPruning ... 3 (G Style)
Weight generation scheme         WeightScheme... Becke
Basis function cutoff            BFCut       ...    1.0000e-10
Integration weight cutoff        WCut        ...    1.0000e-14
Grids for H and He will be reduced by one unit

# of grid points (after initial pruning)     ...  15936 (   0.0 sec)
# of grid points (after weights+screening)   ...  15888 (   0.0 sec)
nearest neighbour list constructed           ...    0.0 sec
Grid point re-assignment to atoms done       ...    0.0 sec
Grid point division into batches done        ...    0.1 sec
Reduced shell lists constructed in    0.1 sec

Total number of grid points                  ...    15888
Total number of batches                      ...      249
Average number of points per batch           ...       63
Average number of grid points per atom       ...     7944
Average number of shells per batch           ...    14.83 (38.03%)
Average number of basis functions per batch  ...    34.83 (25.06%)
Average number of large shells per batch     ...     7.75 (52.25%)
Average number of large basis fcns per batch ...    17.75 (50.96%)
Maximum spatial batch extension              ...  22.45, 22.17, 15.82 au
Average spatial batch extension              ...   0.80,  0.79,  0.61 au

Time for grid setup =    0.160 sec

------------------------------
INITIAL GUESS: MODEL POTENTIAL
------------------------------
Loading Hartree-Fock densities                     ... done
Calculating cut-offs                               ... done
Setting up the integral package                    ... done
Initializing the effective Hamiltonian             ... done
Starting the Coulomb interaction                   ... done (   0.0 sec)
Reading the grid                                   ... done
Mapping shells                                     ... done
Starting the XC term evaluation                    ... done (   0.0 sec)
  promolecular density results
     # of electrons  =     37.000032960
     EX              =    -80.871071524
     EC              =     -0.652782185
     EX+EC           =    -81.523853709
Transforming the Hamiltonian                       ... done (   0.0 sec)
Diagonalizing the Hamiltonian                      ... done (   0.0 sec)
Back transforming the eigenvectors                 ... done (   0.0 sec)
Now organizing SCF variables                       ... done
                      ------------------
                      INITIAL GUESS DONE (   0.3 sec)
                      ------------------
--------------
SCF ITERATIONS
--------------
ITER       Energy         Delta-E        Max-DP      RMS-DP      [F,P]     Damp
               ***  Starting incremental Fock matrix formation  ***
  0  -1607.6228923925   0.000000000000 1.37861824  0.01493892  0.9934164 0.7000
  1  -1606.7252478395   0.897644553070 0.39348363  0.00461257  0.3971960 0.7000
  2  -1607.3440605169  -0.618812677438 0.29482545  0.00346335  0.3839578 0.7000
  3  -1607.6824671287  -0.338406611836 0.20722693  0.00245483  0.3293116 0.7000
                               ***Turning on DIIS***
  4  -1607.8870535220  -0.204586393283 0.14508061  0.00168693  0.1856539 0.7000
  5  -1608.0162943996  -0.129240877607 0.10145123  0.00119639  0.1007804 0.7000
  6  -1608.1044485540  -0.088154154369 0.23613775  0.00292711  0.0787009 0.0000
  7  -1608.3048919829  -0.200443428929 0.00847423  0.00024703  0.0326099 0.0000
  8  -1608.3050922806  -0.000200297715 0.00927972  0.00014792  0.0292398 0.0000
  9  -1608.3061431674  -0.001050886766 0.00585123  0.00007264  0.0061717 0.0000
 10  -1608.3062418200  -0.000098652568 0.00318133  0.00005819  0.0065364 0.0000
 11  -1608.3063508599  -0.000109039911 0.00284872  0.00003267  0.0016557 0.0000
 12  -1608.3063984438  -0.000047583870 0.00272072  0.00002902  0.0013248 0.0000
 13  -1608.3064324311  -0.000033987341 0.00218736  0.00002241  0.0011793 0.0000
 14  -1608.3064517833  -0.000019352226 0.00728634  0.00007132  0.0008263 0.0000
 15  -1608.3064735165  -0.000021733167 0.00061663  0.00000765  0.0006205 0.0000
 16  -1608.3064758705  -0.000002353977 0.00098473  0.00000824  0.0001316 0.0000
 17  -1608.3064768502  -0.000000979768 0.00080676  0.00000622  0.0001097 0.0000
                 **** Energy Check signals convergence ****

               *****************************************************
               *                     SUCCESS                       *
               *           SCF CONVERGED AFTER  18 CYCLES          *
               *****************************************************


----------------
TOTAL SCF ENERGY
----------------

Total Energy       :        -1608.30647696 Eh          -43764.24417 eV

Components:
Nuclear Repulsion  :           76.09256760 Eh            2070.58403 eV
Electronic Energy  :        -1684.39904456 Eh          -45834.82820 eV
One Electron Energy:        -2389.79496879 Eh          -65029.62714 eV
Two Electron Energy:          705.39592423 Eh           19194.79894 eV

Virial components:
Potential Energy   :        -3213.87889570 Eh          -87454.09083 eV
Kinetic Energy     :         1605.57241873 Eh           43689.84666 eV
Virial Ratio       :            2.00170286


DFT components:
N(Alpha)           :       19.000018073248 electrons
N(Beta)            :       18.000017909789 electrons
N(Total)           :       37.000035983037 electrons
E(X)               :      -72.181063529639 Eh       
E(C)               :       -1.618769138980 Eh       
E(XC)              :      -73.799832668618 Eh       
DFET-embed. en.    :        0.000000000000 Eh       

---------------
SCF CONVERGENCE
---------------

  Last Energy change         ...   -1.1468e-07  Tolerance :   1.0000e-06
  Last MAX-Density change    ...    1.2548e-03  Tolerance :   1.0000e-05
  Last RMS-Density change    ...    9.6501e-06  Tolerance :   1.0000e-06
  Last DIIS Error            ...    1.2904e-04  Tolerance :   1.0000e-06

             **** THE GBW FILE WAS UPDATED (44_NiF.gbw) ****
             **** DENSITY FILE WAS UPDATED (44_NiF.scfp) ****
             **** ENERGY FILE WAS UPDATED (44_NiF.en.tmp) ****
----------------------
UHF SPIN CONTAMINATION
----------------------

Warning: in a DFT calculation there is little theoretical justification to 
         calculate <S**2> as in Hartree-Fock theory. We will do it anyways
         but you should keep in mind that the values have only limited relevance

Expectation value of <S**2>     :     0.755320
Ideal value S*(S+1) for S=0.5   :     0.750000
Deviation                       :     0.005320

             **** THE GBW FILE WAS UPDATED (44_NiF.gbw) ****
             **** DENSITY FILE WAS UPDATED (44_NiF.scfp) ****
----------------
ORBITAL ENERGIES
----------------
                 SPIN UP ORBITALS
  NO   OCC          E(Eh)            E(eV) 
   0   1.0000    -299.222315     -8142.2531 
   1   1.0000     -35.546443      -967.2679 
   2   1.0000     -30.938796      -841.8874 
   3   1.0000     -30.920474      -841.3889 
   4   1.0000     -30.920169      -841.3806 
   5   1.0000     -24.416459      -664.4056 
   6   1.0000      -3.940474      -107.2258 
   7   1.0000      -2.564939       -69.7956 
   8   1.0000      -2.495912       -67.9172 
   9   1.0000      -2.495081       -67.8946 
  10   1.0000      -1.024841       -27.8873 
  11   1.0000      -0.350627        -9.5411 
  12   1.0000      -0.307559        -8.3691 
  13   1.0000      -0.307480        -8.3669 
  14   1.0000      -0.230793        -6.2802 
  15   1.0000      -0.194285        -5.2868 
  16   1.0000      -0.194010        -5.2793 
  17   1.0000      -0.191515        -5.2114 
  18   1.0000      -0.191498        -5.2109 
  19   0.0000      -0.132630        -3.6090 
  20   0.0000      -0.012340        -0.3358 
  21   0.0000      -0.012117        -0.3297 
  22   0.0000       0.014332         0.3900 
  23   0.0000       0.024060         0.6547 
  24   0.0000       0.045283         1.2322 
  25   0.0000       0.045391         1.2352 
  26   0.0000       0.075535         2.0554 
  27   0.0000       0.093496         2.5442 
  28   0.0000       0.093500         2.5443 
  29   0.0000       0.097166         2.6440 
  30   0.0000       0.097198         2.6449 
  31   0.0000       0.111337         3.0296 
  32   0.0000       0.134949         3.6722 
  33   0.0000       0.212337         5.7780 
  34   0.0000       0.212628         5.7859 
  35   0.0000       0.241400         6.5688 
  36   0.0000       0.275655         7.5010 
  37   0.0000       0.275687         7.5018 
  38   0.0000       0.279844         7.6150 
  39   0.0000       0.359011         9.7692 
  40   0.0000       0.359046         9.7701 
  41   0.0000       0.378313        10.2944 
  42   0.0000       0.378514        10.2999 
  43   0.0000       0.404975        11.0199 
  44   0.0000       0.534382        14.5413 
  45   0.0000       0.654445        17.8083 
  46   0.0000       0.796657        21.6781 
  47   0.0000       0.797024        21.6881 
  48   0.0000       0.869809        23.6687 
  49   0.0000       0.870249        23.6807 
  50   0.0000       0.910436        24.7742 
  51   0.0000       0.981794        26.7160 
  52   0.0000       0.982088        26.7240 
  53   0.0000       1.086282        29.5592 
  54   0.0000       1.098095        29.8807 
  55   0.0000       1.098219        29.8840 
  56   0.0000       1.261082        34.3158 
  57   0.0000       1.261082        34.3158 
  58   0.0000       1.345969        36.6257 
  59   0.0000       1.356332        36.9077 
  60   0.0000       1.356607        36.9152 
  61   0.0000       1.384304        37.6688 
  62   0.0000       1.384742        37.6807 
  63   0.0000       1.413948        38.4755 
  64   0.0000       1.414023        38.4775 
  65   0.0000       1.529765        41.6270 
  66   0.0000       1.687449        45.9178 
  67   0.0000       1.759860        47.8882 
  68   0.0000       1.760215        47.8979 
  69   0.0000       2.365830        64.3775 
  70   0.0000       2.649870        72.1066 
  71   0.0000       2.651409        72.1485 
  72   0.0000       2.734582        74.4118 
  73   0.0000       2.734685        74.4146 
  74   0.0000       2.791169        75.9516 
  75   0.0000       2.791169        75.9516 
  76   0.0000       2.915403        79.3321 
  77   0.0000       2.915950        79.3470 
  78   0.0000       2.985158        81.2303 
  79   0.0000       3.358396        91.3866 
  80   0.0000       3.358619        91.3927 
  81   0.0000       3.589704        97.6808 
  82   0.0000       3.672068        99.9221 
  83   0.0000       3.888709       105.8172 
  84   0.0000       3.888710       105.8172 
  85   0.0000       3.930987       106.9676 
  86   0.0000       3.931071       106.9699 
  87   0.0000       3.994919       108.7073 
  88   0.0000       3.995628       108.7266 
  89   0.0000       4.020214       109.3956 
  90   0.0000       4.020717       109.4093 
  91   0.0000       4.315582       117.4329 
  92   0.0000       4.419118       120.2503 
  93   0.0000       4.913083       133.6918 
  94   0.0000       4.919258       133.8598 
  95   0.0000       4.919298       133.8609 
  96   0.0000       5.089382       138.4891 
  97   0.0000       5.089382       138.4891 
  98   0.0000       5.092963       138.5866 
  99   0.0000       5.093001       138.5876 
 100   0.0000       5.169181       140.6606 
 101   0.0000       5.169215       140.6615 
 102   0.0000       5.370052       146.1266 
 103   0.0000       5.370390       146.1357 
 104   0.0000       5.626528       153.1056 
 105   0.0000       5.685138       154.7005 
 106   0.0000       5.685148       154.7008 
 107   0.0000       6.019832       163.8080 
 108   0.0000       6.020361       163.8224 
 109   0.0000       7.018058       190.9711 
 110   0.0000       8.579742       233.4666 
 111   0.0000       8.579742       233.4667 
 112   0.0000       8.663731       235.7521 
 113   0.0000       8.664421       235.7709 
 114   0.0000       8.900535       242.1959 
 115   0.0000       8.902307       242.2441 
 116   0.0000       8.967831       244.0271 
 117   0.0000       9.000415       244.9137 
 118   0.0000       9.000437       244.9143 
 119   0.0000       9.032237       245.7797 
 120   0.0000       9.032282       245.7809 
 121   0.0000       9.353368       254.5181 
 122   0.0000      12.539331       341.2125 
 123   0.0000      12.539334       341.2126 
 124   0.0000      12.546279       341.4016 
 125   0.0000      12.546474       341.4069 
 126   0.0000      12.571764       342.0951 
 127   0.0000      12.572050       342.1029 
 128   0.0000      12.573970       342.1551 
 129   0.0000      13.613851       370.4517 
 130   0.0000      14.225543       387.0967 
 131   0.0000      14.225545       387.0968 
 132   0.0000      14.232319       387.2811 
 133   0.0000      14.232335       387.2815 
 134   0.0000      14.242956       387.5705 
 135   0.0000      14.242963       387.5707 
 136   0.0000      14.417434       392.3183 
 137   0.0000      14.417799       392.3282 
 138   0.0000      14.709213       400.2580 

                 SPIN DOWN ORBITALS
  NO   OCC          E(Eh)            E(eV) 
   0   1.0000    -299.220707     -8142.2094 
   1   1.0000     -35.544076      -967.2035 
   2   1.0000     -30.932992      -841.7295 
   3   1.0000     -30.911607      -841.1476 
   4   1.0000     -30.911311      -841.1395 
   5   1.0000     -24.417339      -664.4296 
   6   1.0000      -3.898036      -106.0710 
   7   1.0000      -2.478513       -67.4438 
   8   1.0000      -2.477927       -67.4278 
   9   1.0000      -2.474529       -67.3354 
  10   1.0000      -1.026596       -27.9351 
  11   1.0000      -0.337472        -9.1831 
  12   1.0000      -0.308540        -8.3958 
  13   1.0000      -0.308380        -8.3915 
  14   1.0000      -0.198689        -5.4066 
  15   1.0000      -0.197883        -5.3847 
  16   1.0000      -0.159841        -4.3495 
  17   1.0000      -0.159832        -4.3492 
  18   0.0000      -0.133301        -3.6273 
  19   0.0000      -0.087005        -2.3675 
  20   0.0000      -0.002343        -0.0637 
  21   0.0000      -0.002093        -0.0569 
  22   0.0000       0.017122         0.4659 
  23   0.0000       0.026967         0.7338 
  24   0.0000       0.050851         1.3837 
  25   0.0000       0.050997         1.3877 
  26   0.0000       0.083810         2.2806 
  27   0.0000       0.095160         2.5894 
  28   0.0000       0.095167         2.5896 
  29   0.0000       0.098987         2.6936 
  30   0.0000       0.099082         2.6962 
  31   0.0000       0.112567         3.0631 
  32   0.0000       0.138689         3.7739 
  33   0.0000       0.222431         6.0526 
  34   0.0000       0.222709         6.0602 
  35   0.0000       0.246640         6.7114 
  36   0.0000       0.277278         7.5451 
  37   0.0000       0.277322         7.5463 
  38   0.0000       0.289869         7.8877 
  39   0.0000       0.366887         9.9835 
  40   0.0000       0.366934         9.9848 
  41   0.0000       0.381050        10.3689 
  42   0.0000       0.381071        10.3695 
  43   0.0000       0.410191        11.1619 
  44   0.0000       0.539468        14.6797 
  45   0.0000       0.664944        18.0941 
  46   0.0000       0.799207        21.7475 
  47   0.0000       0.799552        21.7569 
  48   0.0000       0.873809        23.7775 
  49   0.0000       0.873854        23.7788 
  50   0.0000       0.916194        24.9309 
  51   0.0000       0.990991        26.9662 
  52   0.0000       0.991007        26.9667 
  53   0.0000       1.096080        29.8258 
  54   0.0000       1.102473        29.9998 
  55   0.0000       1.102496        30.0004 
  56   0.0000       1.276553        34.7368 
  57   0.0000       1.276553        34.7368 
  58   0.0000       1.357467        36.9386 
  59   0.0000       1.357699        36.9449 
  60   0.0000       1.366662        37.1888 
  61   0.0000       1.387482        37.7553 
  62   0.0000       1.387744        37.7624 
  63   0.0000       1.433013        38.9943 
  64   0.0000       1.433109        38.9969 
  65   0.0000       1.553672        42.2776 
  66   0.0000       1.698783        46.2262 
  67   0.0000       1.765510        48.0420 
  68   0.0000       1.765802        48.0499 
  69   0.0000       2.374603        64.6162 
  70   0.0000       2.650846        72.1332 
  71   0.0000       2.652755        72.1851 
  72   0.0000       2.735875        74.4469 
  73   0.0000       2.735932        74.4485 
  74   0.0000       2.793512        76.0153 
  75   0.0000       2.793531        76.0158 
  76   0.0000       2.918531        79.4173 
  77   0.0000       2.918638        79.4202 
  78   0.0000       2.992462        81.4290 
  79   0.0000       3.362157        91.4889 
  80   0.0000       3.362339        91.4939 
  81   0.0000       3.599713        97.9532 
  82   0.0000       3.678123       100.0868 
  83   0.0000       3.901390       106.1622 
  84   0.0000       3.901409       106.1627 
  85   0.0000       3.931915       106.9928 
  86   0.0000       3.932322       107.0039 
  87   0.0000       3.984199       108.4156 
  88   0.0000       3.985499       108.4509 
  89   0.0000       4.048754       110.1722 
  90   0.0000       4.049417       110.1902 
  91   0.0000       4.346865       118.2842 
  92   0.0000       4.444466       120.9401 
  93   0.0000       4.919916       133.8777 
  94   0.0000       4.919923       133.8779 
  95   0.0000       4.924866       134.0124 
  96   0.0000       5.108651       139.0134 
  97   0.0000       5.108665       139.0139 
  98   0.0000       5.115038       139.1873 
  99   0.0000       5.115067       139.1881 
 100   0.0000       5.194220       141.3419 
 101   0.0000       5.194922       141.3610 
 102   0.0000       5.395303       146.8137 
 103   0.0000       5.395804       146.8273 
 104   0.0000       5.697765       155.0441 
 105   0.0000       5.704882       155.2377 
 106   0.0000       5.704915       155.2386 
 107   0.0000       6.012874       163.6186 
 108   0.0000       6.013945       163.6478 
 109   0.0000       7.073983       192.4929 
 110   0.0000       8.579456       233.4589 
 111   0.0000       8.579458       233.4589 
 112   0.0000       8.661931       235.7031 
 113   0.0000       8.663342       235.7415 
 114   0.0000       8.899337       242.1633 
 115   0.0000       8.901144       242.2124 
 116   0.0000       8.973526       244.1821 
 117   0.0000       9.000889       244.9266 
 118   0.0000       9.000913       244.9273 
 119   0.0000       9.030174       245.7235 
 120   0.0000       9.030230       245.7250 
 121   0.0000       9.353892       254.5323 
 122   0.0000      12.559645       341.7653 
 123   0.0000      12.560527       341.7893 
 124   0.0000      12.562851       341.8526 
 125   0.0000      12.562859       341.8528 
 126   0.0000      12.622539       343.4767 
 127   0.0000      12.623417       343.5006 
 128   0.0000      12.686067       345.2054 
 129   0.0000      13.627265       370.8167 
 130   0.0000      14.223577       387.0432 
 131   0.0000      14.223605       387.0440 
 132   0.0000      14.254382       387.8814 
 133   0.0000      14.254770       387.8920 
 134   0.0000      14.260972       388.0608 
 135   0.0000      14.261397       388.0724 
 136   0.0000      14.437886       392.8749 
 137   0.0000      14.439227       392.9113 
 138   0.0000      14.763940       401.7472 

                    ********************************
                    * MULLIKEN POPULATION ANALYSIS *
                    ********************************

--------------------------------------------
MULLIKEN ATOMIC CHARGES AND SPIN POPULATIONS
--------------------------------------------
   0 Ni:    0.630564    0.995255
   1 F :   -0.630564    0.004745
Sum of atomic charges         :    0.0000000
Sum of atomic spin populations:    1.0000000

-----------------------------------------------------
MULLIKEN REDUCED ORBITAL CHARGES AND SPIN POPULATIONS
-----------------------------------------------------
CHARGE
  0 Nis       :     6.279424  s :     6.279424
      pz      :     4.022090  p :    12.117600
      px      :     4.047717
      py      :     4.047793
      dz2     :     0.979916  d :     8.958319
      dxz     :     1.989831
      dyz     :     1.989738
      dx2y2   :     1.999451
      dxy     :     1.999382
      f0      :     0.005846  f :     0.013507
      f+1     :     0.003700
      f-1     :     0.003701
      f+2     :     0.000130
      f-2     :     0.000130
      f+3     :     0.000000
      f-3     :     0.000000
      g0      :     0.000299  g :     0.000586
      g+1     :     0.000128
      g-1     :     0.000128
      g+2     :     0.000016
      g-2     :     0.000016
      g+3     :     0.000000
      g-3     :     0.000000
      g+4     :     0.000000
      g-4     :     0.000000
  1 F s       :     4.001312  s :     4.001312
      pz      :     1.707513  p :     5.616778
      px      :     1.954624
      py      :     1.954641
      dz2     :     0.003139  d :     0.010764
      dxz     :     0.003588
      dyz     :     0.003586
      dx2y2   :     0.000223
      dxy     :     0.000227
      f0      :     0.000652  f :     0.001710
      f+1     :     0.000412
      f-1     :     0.000413
      f+2     :     0.000116
      f-2     :     0.000117
      f+3     :     0.000000
      f-3     :     0.000000

SPIN
  0 Nis       :     0.185319  s :     0.185319
      pz      :    -0.000471  p :     0.011654
      px      :     0.006183
      py      :     0.005942
      dz2     :     0.801532  d :     0.798760
      dxz     :    -0.001728
      dyz     :    -0.001600
      dx2y2   :     0.000248
      dxy     :     0.000309
      f0      :     0.000160  f :    -0.000512
      f+1     :    -0.000338
      f-1     :    -0.000336
      f+2     :     0.000001
      f-2     :     0.000001
      f+3     :     0.000000
      f-3     :     0.000000
      g0      :     0.000054  g :     0.000033
      g+1     :     0.000005
      g-1     :     0.000005
      g+2     :    -0.000015
      g-2     :    -0.000016
      g+3     :     0.000000
      g-3     :     0.000000
      g+4     :     0.000000
      g-4     :     0.000000
  1 F s       :     0.006318  s :     0.006318
      pz      :     0.005033  p :    -0.003479
      px      :    -0.004307
      py      :    -0.004204
      dz2     :     0.001600  d :     0.001657
      dxz     :     0.000167
      dyz     :     0.000174
      dx2y2   :    -0.000142
      dxy     :    -0.000142
      f0      :     0.000266  f :     0.000249
      f+1     :     0.000017
      f-1     :     0.000019
      f+2     :    -0.000027
      f-2     :    -0.000027
      f+3     :     0.000000
      f-3     :     0.000000


                     *******************************
                     * LOEWDIN POPULATION ANALYSIS *
                     *******************************

-------------------------------------------
LOEWDIN ATOMIC CHARGES AND SPIN POPULATIONS
-------------------------------------------
   0 Ni:    0.443077    0.980454
   1 F :   -0.443077    0.019546

----------------------------------------------------
LOEWDIN REDUCED ORBITAL CHARGES AND SPIN POPULATIONS
----------------------------------------------------
CHARGE
  0 Nis       :     6.204363  s :     6.204363
      pz      :     4.088835  p :    12.232563
      px      :     4.071810
      py      :     4.071917
      dz2     :     1.068936  d :     9.013833
      dxz     :     1.977784
      dyz     :     1.977652
      dx2y2   :     1.994764
      dxy     :     1.994697
      f0      :     0.046494  f :     0.103384
      f+1     :     0.028171
      f-1     :     0.028173
      f+2     :     0.000273
      f-2     :     0.000273
      f+3     :     0.000000
      f-3     :     0.000000
      g0      :     0.001389  g :     0.002781
      g+1     :     0.000684
      g-1     :     0.000684
      g+2     :     0.000012
      g-2     :     0.000013
      g+3     :     0.000000
      g-3     :     0.000000
      g+4     :     0.000000
      g-4     :     0.000000
  1 F s       :     3.732698  s :     3.732698
      pz      :     1.764391  p :     5.501147
      px      :     1.868367
      py      :     1.868389
      dz2     :     0.076856  d :     0.164838
      dxz     :     0.040455
      dyz     :     0.040457
      dx2y2   :     0.003533
      dxy     :     0.003537
      f0      :     0.016228  f :     0.044393
      f+1     :     0.012729
      f-1     :     0.012728
      f+2     :     0.001353
      f-2     :     0.001354
      f+3     :     0.000000
      f-3     :     0.000000

SPIN
  0 Nis       :     0.184278  s :     0.184278
      pz      :     0.002539  p :     0.015593
      px      :     0.006670
      py      :     0.006383
      dz2     :     0.784781  d :     0.780630
      dxz     :    -0.002403
      dyz     :    -0.002211
      dx2y2   :     0.000200
      dxy     :     0.000262
      f0      :     0.000739  f :    -0.000096
      f+1     :    -0.000421
      f-1     :    -0.000418
      f+2     :     0.000002
      f-2     :     0.000002
      f+3     :     0.000000
      f-3     :     0.000000
      g0      :     0.000079  g :     0.000050
      g+1     :    -0.000004
      g-1     :    -0.000005
      g+2     :    -0.000010
      g-2     :    -0.000010
      g+3     :     0.000000
      g-3     :     0.000000
      g+4     :     0.000000
      g-4     :     0.000000
  1 F s       :     0.006308  s :     0.006308
      pz      :     0.015033  p :     0.007623
      px      :    -0.003746
      py      :    -0.003664
      dz2     :     0.002912  d :     0.002551
      dxz     :    -0.000069
      dyz     :    -0.000062
      dx2y2   :    -0.000115
      dxy     :    -0.000115
      f0      :     0.003141  f :     0.003064
      f+1     :    -0.000026
      f-1     :    -0.000024
      f+2     :    -0.000014
      f-2     :    -0.000013
      f+3     :     0.000000
      f-3     :     0.000000


                      *****************************
                      * MAYER POPULATION ANALYSIS *
                      *****************************

  NA   - Mulliken gross atomic population
  ZA   - Total nuclear charge
  QA   - Mulliken gross atomic charge
  VA   - Mayer's total valence
  BVA  - Mayer's bonded valence
  FA   - Mayer's free valence

  ATOM       NA         ZA         QA         VA         BVA        FA
  0 Ni    27.3694    28.0000     0.6306     1.6036     0.6874     0.9162
  1 F      9.6306     9.0000    -0.6306     0.6887     0.6874     0.0013

  Mayer bond orders larger than 0.100000
B(  0-Ni,  1-F ) :   0.6874 

-------
TIMINGS
-------

Total SCF time: 0 days 0 hours 0 min 3 sec 

Total time                  ....       3.483 sec
Sum of individual times     ....       3.338 sec  ( 95.8%)

Fock matrix formation       ....       2.937 sec  ( 84.3%)
  Split-RI-J                ....       2.259 sec  ( 76.9% of F)
  XC integration            ....       0.605 sec  ( 20.6% of F)
    Basis function eval.    ....       0.088 sec  ( 14.5% of XC)
    Density eval.           ....       0.093 sec  ( 15.3% of XC)
    XC-Functional eval.     ....       0.019 sec  (  3.2% of XC)
    XC-Potential eval.      ....       0.265 sec  ( 43.7% of XC)
Diagonalization             ....       0.092 sec  (  2.6%)
Density matrix formation    ....       0.012 sec  (  0.3%)
Population analysis         ....       0.007 sec  (  0.2%)
Initial guess               ....       0.100 sec  (  2.9%)
Orbital Transformation      ....       0.000 sec  (  0.0%)
Orbital Orthonormalization  ....       0.000 sec  (  0.0%)
DIIS solution               ....       0.030 sec  (  0.8%)
Grid generation             ....       0.160 sec  (  4.6%)


-------------------------------------------------------------------------------
                          DFT DISPERSION CORRECTION                            
                                                                               
                              DFTD3 V3.1  Rev 1                                
                          USING Becke-Johnson damping                          
-------------------------------------------------------------------------------
The SCAN functional is recognized
Active option DFTDOPT                   ...         4   

molecular C6(AA) [au] = 322.665914 


            DFT-D V3
 parameters
 s6 scaling factor         :     1.0000 
 a1 scaling factor         :     0.5380 
 s8 scaling factor         :     0.0000 
 a2 scaling factor         :     5.4200 
 ad hoc parameters k1-k3   :    16.0000     1.3333    -4.0000 

 Edisp/kcal,au: -0.048105906001  -0.000076661633 
 E6   /kcal   :  -0.048105906 
 E8   /kcal   :  -0.000000000 
 % E8         :   0.000000000 

-------------------------   ----------------
Dispersion correction           -0.000076662
-------------------------   ----------------


-------------------------   --------------------
FINAL SINGLE POINT ENERGY     -1608.306553626551
-------------------------   --------------------


                            ***************************************
                            *     ORCA property calculations      *
                            ***************************************

                                    ---------------------
                                    Active property flags
                                    ---------------------
   (+) Dipole Moment


------------------------------------------------------------------------------
                       ORCA ELECTRIC PROPERTIES CALCULATION
------------------------------------------------------------------------------

Dipole Moment Calculation                       ... on
Quadrupole Moment Calculation                   ... off
Polarizability Calculation                      ... off
GBWName                                         ... 44_NiF.gbw
Electron density file                           ... 44_NiF.scfp
The origin for moment calculation is the CENTER OF MASS  = ( 0.000000,  0.000000  1.043608)

-------------
DIPOLE MOMENT
-------------
                                X             Y             Z
Electronic contribution:      0.00000      -0.00000      -1.66404
Nuclear contribution   :      0.00000       0.00000      -0.15532
                        -----------------------------------------
Total Dipole Moment    :      0.00000      -0.00000      -1.81936
                        -----------------------------------------
Magnitude (a.u.)       :      1.81936
Magnitude (Debye)      :      4.62445



--------------------
Rotational spectrum 
--------------------
 
Rotational constants in cm-1:     0.000000     0.382421     0.382421 
Rotational constants in MHz :     0.000000 11464.697327 11464.697327 

 Dipole components along the rotational axes: 
x,y,z [a.u.] :    -1.819360    -0.000000     0.000000 
x,y,z [Debye]:    -4.624446    -0.000000     0.000000 

 

Timings for individual modules:

Sum of individual times         ...        6.442 sec (=   0.107 min)
GTO integral calculation        ...        2.633 sec (=   0.044 min)  40.9 %
SCF iterations                  ...        3.809 sec (=   0.063 min)  59.1 %
                             ****ORCA TERMINATED NORMALLY****
TOTAL RUN TIME: 0 days 0 hours 0 minutes 7 seconds 16 msec
