
                                 *****************
                                 * O   R   C   A *
                                 *****************

           --- An Ab Initio, DFT and Semiempirical electronic structure package ---

                  #######################################################
                  #                        -***-                        #
                  #          Department of theory and spectroscopy      #
                  #               Directorship: Frank Neese             #
                  #        Max Planck Institute fuer Kohlenforschung    #
                  #                Kaiser Wilhelm Platz 1               #
                  #                 D-45470 Muelheim/Ruhr               #
                  #                      Germany                        #
                  #                                                     #
                  #                  All rights reserved                #
                  #                        -***-                        #
                  #######################################################


                         Program Version 4.2.0 -  RELEASE  -


 With contributions from (in alphabetic order):
   Daniel Aravena         : Magnetic Suceptibility
   Michael Atanasov       : Ab Initio Ligand Field Theory (pilot matlab implementation)
   Alexander A. Auer      : GIAO ZORA, VPT2
   Ute Becker             : Parallelization
   Giovanni Bistoni       : ED, misc. LED, open-shell LED, HFLED
   Martin Brehm           : Molecular dynamics
   Dmytro Bykov           : SCF Hessian
   Vijay G. Chilkuri      : MRCI spin determinant printing, contributions to CSF-ICE
   Dipayan Datta          : RHF DLPNO-CCSD density
   Achintya Kumar Dutta   : EOM-CC, STEOM-CC
   Dmitry Ganyushin       : Spin-Orbit,Spin-Spin,Magnetic field MRCI
   Miquel Garcia          : C-PCM Hessian, Gaussian charge scheme
   Yang Guo               : DLPNO-NEVPT2, CIM, IAO-localization
   Andreas Hansen         : Spin unrestricted coupled pair/coupled cluster methods
   Benjamin Helmich-Paris : CASSCF linear response (MC-RPA)
   Lee Huntington         : MR-EOM, pCC
   Robert Izsak           : Overlap fitted RIJCOSX, COSX-SCS-MP3, EOM
   Christian Kollmar      : KDIIS, OOCD, Brueckner-CCSD(T), CCSD density
   Simone Kossmann        : Meta GGA functionals, TD-DFT gradient, OOMP2, MP2 Hessian
   Martin Krupicka        : AUTO-CI
   Lucas Lang             : DCDCAS
   Dagmar Lenk            : GEPOL surface, SMD
   Dimitrios Liakos       : Extrapolation schemes; Compound Job, initial MDCI parallelization
   Dimitrios Manganas     : Further ROCIS development; embedding schemes
   Dimitrios Pantazis     : SARC Basis sets
   Taras Petrenko         : DFT Hessian,TD-DFT gradient, ASA, ECA, R-Raman, ABS, FL, XAS/XES, NRVS
   Peter Pinski           : DLPNO-MP2, DLPNO-MP2 Gradient
   Christoph Reimann      : Effective Core Potentials
   Marius Retegan         : Local ZFS, SOC
   Christoph Riplinger    : Optimizer, TS searches, QM/MM, DLPNO-CCSD(T), (RO)-DLPNO pert. Triples
   Tobias Risthaus        : Range-separated hybrids, TD-DFT gradient, RPA, STAB
   Michael Roemelt        : Original ROCIS implementation
   Masaaki Saitow         : Open-shell DLPNO-CCSD energy and density
   Barbara Sandhoefer     : DKH picture change effects
   Avijit Sen             : IP-ROCIS
   Kantharuban Sivalingam : CASSCF convergence, NEVPT2, FIC-MRCI
   Bernardo de Souza      : ESD, SOC TD-DFT
   Georgi Stoychev        : AutoAux, RI-MP2 NMR
   Willem Van den Heuvel  : Paramagnetic NMR
   Boris Wezisla          : Elementary symmetry handling
   Frank Wennmohs         : Technical directorship


 We gratefully acknowledge several colleagues who have allowed us to
 interface, adapt or use parts of their codes:
   Stefan Grimme, W. Hujo, H. Kruse,             : VdW corrections, initial TS optimization,
                  C. Bannwarth                     DFT functionals, gCP, sTDA/sTD-DF
   Ed Valeev, F. Pavosevic, A. Kumar             : LibInt (2-el integral package), F12 methods
   Garnet Chan, S. Sharma, J. Yang, R. Olivares  : DMRG
   Ulf Ekstrom                                   : XCFun DFT Library
   Mihaly Kallay                                 : mrcc  (arbitrary order and MRCC methods)
   Andreas Klamt, Michael Diedenhofen            : otool_cosmo (COSMO solvation model)
   Jiri Pittner, Ondrej Demel                    : Mk-CCSD
   Frank Weinhold                                : gennbo (NPA and NBO analysis)
   Christopher J. Cramer and Donald G. Truhlar   : smd solvation model
   Lars Goerigk                                  : TD-DFT with DH, B97 family of functionals
   V. Asgeirsson, H. Jonsson                     : NEB implementation
   FAccTs GmbH                                   : IRC, NEB, NEB-TS, Multilevel, MM, QM/MM, CI optimization
   S Lehtola, MJT Oliveira, MAL Marques          : LibXC Library


 Your calculation uses the libint2 library for the computation of 2-el integrals
 For citations please refer to: http://libint.valeyev.net

 Your ORCA version has been built with support for libXC version: 4.2.3
 For citations please refer to: https://tddft.org/programs/libxc/

 This ORCA versions uses:
   CBLAS   interface :  Fast vector & matrix operations
   LAPACKE interface :  Fast linear algebra routines
   SCALAPACK package :  Parallel linear algebra routines


Your calculation utilizes the atom-pairwise dispersion correction
with the Becke-Johnson damping scheme (D3BJ)
Cite in your paper:
S.Grimme, S.Ehrlich, L.Goerigk, J Comput Chem, (2011), 32, 1456–1465 
S.Grimme, J.Antony, S.Ehrlich and H.Krieg, J.Chem.Phys., 132, (2010), 154104 
   

----- Orbital basis set information -----
Your calculation utilizes the basis: aug-cc-pVTZ 
    H, B-Ne : Obtained from the ccRepo (grant-hill.group.shef.ac.uk/ccrepo) Feb. 2017
              R. A. Kendall, T. H. Dunning, Jr., R. J. Harrison, J. Chem. Phys. 96, 6796 (1992)
         He : Obtained from the ccRepo (grant-hill.group.shef.ac.uk/ccrepo) Feb. 2017
              D. E. Woon, T. H. Dunning, Jr., J. Chem. Phys. 100, 2975 (1994)
  Li-Be, Na : Obtained from the ccRepo (grant-hill.group.shef.ac.uk/ccrepo) Feb. 2017
              B. P. Prascher, D. E. Woon, K. A. Peterson, T. H. Dunning, Jr., A. K. Wilson, Theor. Chem. Acc. 128, 69 (2011)
         Mg : Obtained from the Peterson Research Group Website (tyr0.chem.wsu.edu/~kipeters) Feb. 2017
              B. P. Prascher, D. E. Woon, K. A. Peterson, T. H. Dunning, Jr., A. K. Wilson, Theor. Chem. Acc. 128, 69 (2011)
      Al-Ar : Obtained from the ccRepo (grant-hill.group.shef.ac.uk/ccrepo) Feb. 2017
              D. E. Woon, T. H. Dunning, Jr., J. Chem. Phys. 98, 1358 (1993)
      Sc-Zn : Obtained from the ccRepo (grant-hill.group.shef.ac.uk/ccrepo) Feb. 2017
              N. B. Balabanov, K. A. Peterson, J. Chem. Phys. 123, 064107 (2005)
              N. B. Balabanov, K. A. Peterson, J. Chem. Phys. 125, 074110 (2006)
      Ga-Kr : Obtained from the ccRepo (grant-hill.group.shef.ac.uk/ccrepo) Feb. 2017
              A. K. Wilson, D. E. Woon, K. A. Peterson, T. H. Dunning, Jr., J. Chem. Phys. 110, 7667 (1999)
     Ag, Au : Obtained from the Peterson Research Group Website (tyr0.chem.wsu.edu/~kipeters) Feb. 2017
              K. A. Peterson, C. Puzzarini, Theor. Chem. Acc. 114, 283 (2005)

----- AuxJ basis set information -----
Your calculation utilizes the auxiliary basis: def2/J
   F. Weigend, Phys. Chem. Chem. Phys. 8, 1057 (2006).

================================================================================
                                        WARNINGS
                       Please study these warnings very carefully!
================================================================================


WARNING: your system is open-shell and RHF/RKS was chosen
  ===> : WILL SWITCH to UHF/UKS


WARNING: The SCAN functional is very grid-sensitive!
         Use at least GRID5 and a higher intacc

INFO   : the flag for use of LIBINT has been found!

================================================================================
                                       INPUT FILE
================================================================================
NAME = 45_NiCl.in
|  1> #
|  2> # 45_NiCl scanfunc/aug-cc-pvtz
|  3> #
|  4> ! scanfunc d3bj aug-cc-pvtz def2/j grid4 nofinalgrid
|  5> 
|  6> *xyz 0 2
|  7>   Ni  0.00000000000000      0.00000000000000     -0.04672403924217
|  8>   Cl  0.00000000000000      0.00000000000000      2.04672403924217
|  9> *
| 10> 
| 11> %pal
| 12> nprocs 24
| 13> end
| 14> 
| 15> 
| 16>                          ****END OF INPUT****
================================================================================

                       ****************************
                       * Single Point Calculation *
                       ****************************

---------------------------------
CARTESIAN COORDINATES (ANGSTROEM)
---------------------------------
  Ni     0.000000    0.000000   -0.046724
  Cl     0.000000    0.000000    2.046724

----------------------------
CARTESIAN COORDINATES (A.U.)
----------------------------
  NO LB      ZA    FRAG     MASS         X           Y           Z
   0 Ni   28.0000    0    58.700    0.000000    0.000000   -0.088296
   1 Cl   17.0000    0    35.453    0.000000    0.000000    3.867748

--------------------------------
INTERNAL COORDINATES (ANGSTROEM)
--------------------------------
 Ni     0   0   0     0.000000000000     0.00000000     0.00000000
 Cl     1   0   0     2.093448078484     0.00000000     0.00000000

---------------------------
INTERNAL COORDINATES (A.U.)
---------------------------
 Ni     0   0   0     0.000000000000     0.00000000     0.00000000
 Cl     1   0   0     3.956043543919     0.00000000     0.00000000

---------------------
BASIS SET INFORMATION
---------------------
There are 2 groups of distinct atoms

 Group   1 Type Ni  : 116s77p23d3f2g contracted to 8s7p5d3f2g pattern {19191919191911/151515151511/77711/111/11}
 Group   2 Type Cl  : 42s17p3d2f contracted to 6s5p3d2f pattern {131313111/77111/111/11}

Atom   0Ni   basis set group =>   1
Atom   1Cl   basis set group =>   2
---------------------------------
AUXILIARY/J BASIS SET INFORMATION
---------------------------------
There are 2 groups of distinct atoms

 Group   1 Type Ni  : 19s5p5d3f3g contracted to 8s5p5d2f3g pattern {121111111/11111/11111/21/111}
 Group   2 Type Cl  : 14s5p5d2f1g contracted to 8s4p3d1f1g pattern {71111111/2111/311/2/1}

Atom   0Ni   basis set group =>   1
Atom   1Cl   basis set group =>   2


           ************************************************************
           *        Program running with 24 parallel MPI-processes    *
           *              working on a common directory               *
           ************************************************************
------------------------------------------------------------------------------
                           ORCA GTO INTEGRAL CALCULATION
                           -- RI-GTO INTEGRALS CHOSEN --
------------------------------------------------------------------------------

                         BASIS SET STATISTICS AND STARTUP INFO

Gaussian basis set:
 # of primitive gaussian shells          ...  285
 # of primitive gaussian functions       ...  623
 # of contracted shells                  ...   41
 # of contracted basis functions         ...  143
 Highest angular momentum                ...    4
 Maximum contraction depth               ...   19
Auxiliary gaussian basis set:
 # of primitive gaussian shells          ...   62
 # of primitive gaussian functions       ...  184
 # of contracted shells                  ...   40
 # of contracted aux-basis functions     ...  140
 Highest angular momentum                ...    4
 Maximum contraction depth               ...   12
Ratio of auxiliary to basis functions    ...  0.98
Integral package used                  ... LIBINT
 One Electron integrals                  ... done
 Ordering auxiliary basis shells         ... done
 Integral threshhold             Thresh  ...  1.000e-10
 Primitive cut-off               TCut    ...  1.000e-11
 Pre-screening matrix                    ... done
 Shell pair data                         ... 
 Ordering of the shell pairs             ... done (   0.000 sec) 861 of 861 pairs
 Determination of significant pairs      ... done (   0.000 sec)
 Creation of shell pair data             ... done (   0.001 sec)
 Storage of shell pair data              ... done (   0.011 sec)
 Shell pair data done in (   0.013 sec)
 Computing two index integrals           ... done
 Cholesky decomposition of the V-matrix  ... done


Timings:
 Total evaluation time                   ...   2.653 sec (  0.044 min)
 One electron matrix time                ...   0.055 sec (  0.001 min) =  2.1%
 Schwartz matrix evaluation time         ...   2.558 sec (  0.043 min) = 96.4%
 Two index repulsion integral time       ...   0.001 sec (  0.000 min) =  0.1%
 Cholesky decomposition of V             ...   0.001 sec (  0.000 min) =  0.0%
 Three index repulsion integral time     ...   0.000 sec (  0.000 min) =  0.0%



           ************************************************************
           *        Program running with 24 parallel MPI-processes    *
           *              working on a common directory               *
           ************************************************************
-------------------------------------------------------------------------------
                                 ORCA SCF
-------------------------------------------------------------------------------

------------
SCF SETTINGS
------------
Hamiltonian:
 Density Functional     Method          .... DFT(GTOs)
 Exchange Functional    Exchange        .... SCAN
 Correlation Functional Correlation     .... SCAN
 Gradients option       PostSCFGGA      .... off
   Density functional embedding theory  .... OFF
   NL short-range parameter             ....  6.400000
 RI-approximation to the Coulomb term is turned on
   Number of auxiliary basis functions  .... 140


General Settings:
 Integral files         IntName         .... 45_NiCl
 Hartree-Fock type      HFTyp           .... UHF
 Total Charge           Charge          ....    0
 Multiplicity           Mult            ....    2
 Number of Electrons    NEL             ....   45
 Basis Dimension        Dim             ....  143
 Nuclear Repulsion      ENuc            ....    120.3222347569 Eh

Convergence Acceleration:
 DIIS                   CNVDIIS         .... on
   Start iteration      DIISMaxIt       ....    12
   Startup error        DIISStart       ....  0.200000
   # of expansion vecs  DIISMaxEq       ....     5
   Bias factor          DIISBfac        ....   1.050
   Max. coefficient     DIISMaxC        ....  10.000
 Newton-Raphson         CNVNR           .... off
 SOSCF                  CNVSOSCF        .... off
 Level Shifting         CNVShift        .... on
   Level shift para.    LevelShift      ....    0.2500
   Turn off err/grad.   ShiftErr        ....    0.0010
 Zerner damping         CNVZerner       .... off
 Static damping         CNVDamp         .... on
   Fraction old density DampFac         ....    0.7000
   Max. Damping (<1)    DampMax         ....    0.9800
   Min. Damping (>=0)   DampMin         ....    0.0000
   Turn off err/grad.   DampErr         ....    0.1000
 Fernandez-Rico         CNVRico         .... off

SCF Procedure:
 Maximum # iterations   MaxIter         ....   125
 SCF integral mode      SCFMode         .... Direct
   Integral package                     .... LIBINT
 Reset frequency        DirectResetFreq ....    20
 Integral Threshold     Thresh          ....  1.000e-10 Eh
 Primitive CutOff       TCut            ....  1.000e-11 Eh

Convergence Tolerance:
 Convergence Check Mode ConvCheckMode   .... Total+1el-Energy
 Convergence forced     ConvForced      .... 0
 Energy Change          TolE            ....  1.000e-06 Eh
 1-El. energy change                    ....  1.000e-03 Eh
 DIIS Error             TolErr          ....  1.000e-06


Diagonalization of the overlap matrix:
Smallest eigenvalue                        ... 2.313e-04
Time for diagonalization                   ...    0.005 sec
Threshold for overlap eigenvalues          ... 1.000e-08
Number of eigenvalues below threshold      ... 0
Time for construction of square roots      ...    0.003 sec
Total time needed                          ...    0.008 sec

-------------------
DFT GRID GENERATION
-------------------

General Integration Accuracy     IntAcc      ...  4.670
Radial Grid Type                 RadialGrid  ... Gauss-Chebyshev
Angular Grid (max. acc.)         AngularGrid ... Lebedev-302
Angular grid pruning method      GridPruning ... 3 (G Style)
Weight generation scheme         WeightScheme... Becke
Basis function cutoff            BFCut       ...    1.0000e-10
Integration weight cutoff        WCut        ...    1.0000e-14
Grids for H and He will be reduced by one unit

# of grid points (after initial pruning)     ...  16402 (   0.0 sec)
# of grid points (after weights+screening)   ...  16374 (   0.0 sec)
nearest neighbour list constructed           ...    0.0 sec
Grid point re-assignment to atoms done       ...    0.0 sec
Grid point division into batches done        ...    0.1 sec
Reduced shell lists constructed in    0.1 sec

Total number of grid points                  ...    16374
Total number of batches                      ...      256
Average number of points per batch           ...       63
Average number of grid points per atom       ...     8187
Average number of shells per batch           ...    15.25 (37.20%)
Average number of basis functions per batch  ...    36.92 (25.82%)
Average number of large shells per batch     ...     7.92 (51.91%)
Average number of large basis fcns per batch ...    19.25 (52.14%)
Maximum spatial batch extension              ...  23.02, 23.02, 16.62 au
Average spatial batch extension              ...   0.79,  0.79,  0.61 au

Time for grid setup =    0.176 sec

------------------------------
INITIAL GUESS: MODEL POTENTIAL
------------------------------
Loading Hartree-Fock densities                     ... done
Calculating cut-offs                               ... done
Setting up the integral package                    ... done
Initializing the effective Hamiltonian             ... done
Starting the Coulomb interaction                   ... done (   0.0 sec)
Reading the grid                                   ... done
Mapping shells                                     ... done
Starting the XC term evaluation                    ... done (   0.0 sec)
  promolecular density results
     # of electrons  =     45.000025637
     EX              =   -100.594624096
     EC              =     -0.797345833
     EX+EC           =   -101.391969928
Transforming the Hamiltonian                       ... done (   0.0 sec)
Diagonalizing the Hamiltonian                      ... done (   0.0 sec)
Back transforming the eigenvectors                 ... done (   0.0 sec)
Now organizing SCF variables                       ... done
                      ------------------
                      INITIAL GUESS DONE (   0.3 sec)
                      ------------------
--------------
SCF ITERATIONS
--------------
ITER       Energy         Delta-E        Max-DP      RMS-DP      [F,P]     Damp
               ***  Starting incremental Fock matrix formation  ***
  0  -1967.3759604426   0.000000000000 9.44572303  0.06430019  1.3299567 0.7000
  1  -1966.9029883464   0.472972096136 2.71175690  0.01859293  0.4017185 0.7000
  2  -1967.7003818550  -0.797393508589 2.01314746  0.01376162  0.3862804 0.7000
  3  -1967.9548707016  -0.254488846581 1.41692281  0.00972851  0.3984254 0.7000
                               ***Turning on DIIS***
  4  -1968.1928127436  -0.237942041964 0.99166025  0.00679084  0.1175459 0.7000
  5  -1968.3385246588  -0.145711915245 2.31393062  0.01582841  0.0590113 0.0000
  6  -1968.6734979871  -0.334973328323 0.02776716  0.00054227  0.0689700 0.0000
  7  -1968.6867691012  -0.013271114102 0.03943187  0.00051058  0.0236122 0.0000
  8  -1968.6921473773  -0.005378276089 0.01766564  0.00023963  0.0253427 0.0000
  9  -1968.6947930913  -0.002645714024 0.01456335  0.00021304  0.0132024 0.0000
 10  -1968.6965030358  -0.001709944418 0.01185190  0.00014510  0.0059046 0.0000
 11  -1968.6972160318  -0.000712995988 0.01050025  0.00012385  0.0035603 0.0000
 12  -1968.6976697070  -0.000453675292 0.00959319  0.00011433  0.0023150 0.0000
 13  -1968.6979981119  -0.000328404895 0.00864210  0.00010086  0.0020469 0.0000
 14  -1968.6982452323  -0.000247120396 0.00755023  0.00008720  0.0016505 0.0000
 15  -1968.6984216689  -0.000176436543 0.00647046  0.00008021  0.0012791 0.0000
 16  -1968.6985621267  -0.000140457808 0.00625439  0.00009316  0.0011266 0.0000
 17  -1968.6986734582  -0.000111331468 0.00441068  0.00006069  0.0014762 0.0000
 18  -1968.6987557225  -0.000082264309 0.02073121  0.00026919  0.0008424 0.0000
 19  -1968.6989045501  -0.000148827619 0.00065739  0.00001245  0.0075867 0.0000
               *** Restarting incremental Fock matrix formation ***
                                   *** Resetting DIIS ***
 20  -1968.6988944482   0.000010101846 0.00392207  0.00008147  0.0078860 0.0000
 21  -1968.6986784081   0.000216040100 0.00166616  0.00003883  0.0211309 0.0000
 22  -1968.6989159463  -0.000237538148 0.00117298  0.00001865  0.0066243 0.0000
 23  -1968.6989561312  -0.000040184932 0.00106704  0.00001288  0.0016885 0.0000
 24  -1968.6989630072  -0.000006875970 0.00333592  0.00004407  0.0001788 0.0000
 25  -1968.6989684415  -0.000005434360 0.00003196  0.00000064  0.0020066 0.0000
                 **** Energy Check signals convergence ****

               *****************************************************
               *                     SUCCESS                       *
               *           SCF CONVERGED AFTER  26 CYCLES          *
               *****************************************************


----------------
TOTAL SCF ENERGY
----------------

Total Energy       :        -1968.69896894 Eh          -53571.02244 eV

Components:
Nuclear Repulsion  :          120.32223476 Eh            3274.13446 eV
Electronic Energy  :        -2089.02120370 Eh          -56845.15690 eV
One Electron Energy:        -2972.86214067 Eh          -80895.69151 eV
Two Electron Energy:          883.84093697 Eh           24050.53460 eV

Virial components:
Potential Energy   :        -3934.12991281 Eh         -107053.11740 eV
Kinetic Energy     :         1965.43094386 Eh           53482.09496 eV
Virial Ratio       :            2.00166275


DFT components:
N(Alpha)           :       22.999999695046 electrons
N(Beta)            :       21.999999464079 electrons
N(Total)           :       44.999999159125 electrons
E(X)               :      -89.612218363037 Eh       
E(C)               :       -1.965691287251 Eh       
E(XC)              :      -91.577909650288 Eh       
DFET-embed. en.    :        0.000000000000 Eh       

---------------
SCF CONVERGENCE
---------------

  Last Energy change         ...   -5.0257e-07  Tolerance :   1.0000e-06
  Last MAX-Density change    ...    9.9085e-06  Tolerance :   1.0000e-05
  Last RMS-Density change    ...    2.3609e-07  Tolerance :   1.0000e-06
  Last DIIS Error            ...    1.8923e-03  Tolerance :   1.0000e-06

             **** THE GBW FILE WAS UPDATED (45_NiCl.gbw) ****
             **** DENSITY FILE WAS UPDATED (45_NiCl.scfp) ****
             **** ENERGY FILE WAS UPDATED (45_NiCl.en.tmp) ****
----------------------
UHF SPIN CONTAMINATION
----------------------

Warning: in a DFT calculation there is little theoretical justification to 
         calculate <S**2> as in Hartree-Fock theory. We will do it anyways
         but you should keep in mind that the values have only limited relevance

Expectation value of <S**2>     :     0.873982
Ideal value S*(S+1) for S=0.5   :     0.750000
Deviation                       :     0.123982

             **** THE GBW FILE WAS UPDATED (45_NiCl.gbw) ****
             **** DENSITY FILE WAS UPDATED (45_NiCl.scfp) ****
----------------
ORBITAL ENERGIES
----------------
                 SPIN UP ORBITALS
  NO   OCC          E(Eh)            E(eV) 
   0   1.0000    -299.264152     -8143.3916 
   1   1.0000    -101.247994     -2755.0980 
   2   1.0000     -35.591877      -968.5042 
   3   1.0000     -30.983175      -843.0951 
   4   1.0000     -30.977197      -842.9324 
   5   1.0000     -30.959495      -842.4507 
   6   1.0000      -9.300238      -253.0724 
   7   1.0000      -7.057885      -192.0548 
   8   1.0000      -7.055004      -191.9764 
   9   1.0000      -7.053436      -191.9338 
  10   1.0000      -3.992526      -108.6422 
  11   1.0000      -2.594610       -70.6029 
  12   1.0000      -2.583115       -70.2901 
  13   1.0000      -2.532726       -68.9190 
  14   1.0000      -0.737310       -20.0632 
  15   1.0000      -0.339020        -9.2252 
  16   1.0000      -0.324783        -8.8378 
  17   1.0000      -0.288646        -7.8545 
  18   1.0000      -0.258297        -7.0286 
  19   1.0000      -0.244096        -6.6422 
  20   1.0000      -0.236929        -6.4472 
  21   1.0000      -0.229592        -6.2475 
  22   1.0000      -0.222222        -6.0470 
  23   0.0000      -0.134139        -3.6501 
  24   0.0000      -0.017746        -0.4829 
  25   0.0000      -0.008631        -0.2349 
  26   0.0000       0.013795         0.3754 
  27   0.0000       0.019998         0.5442 
  28   0.0000       0.039832         1.0839 
  29   0.0000       0.043503         1.1838 
  30   0.0000       0.077567         2.1107 
  31   0.0000       0.086204         2.3457 
  32   0.0000       0.086862         2.3636 
  33   0.0000       0.087049         2.3687 
  34   0.0000       0.104236         2.8364 
  35   0.0000       0.105124         2.8606 
  36   0.0000       0.124055         3.3757 
  37   0.0000       0.134452         3.6586 
  38   0.0000       0.135445         3.6856 
  39   0.0000       0.148543         4.0421 
  40   0.0000       0.204204         5.5567 
  41   0.0000       0.210937         5.7399 
  42   0.0000       0.236356         6.4316 
  43   0.0000       0.269590         7.3359 
  44   0.0000       0.269739         7.3400 
  45   0.0000       0.278624         7.5818 
  46   0.0000       0.316341         8.6081 
  47   0.0000       0.324455         8.8289 
  48   0.0000       0.362459         9.8630 
  49   0.0000       0.362922         9.8756 
  50   0.0000       0.370675        10.0866 
  51   0.0000       0.432510        11.7692 
  52   0.0000       0.437555        11.9065 
  53   0.0000       0.501562        13.6482 
  54   0.0000       0.588147        16.0043 
  55   0.0000       0.592262        16.1163 
  56   0.0000       0.593882        16.1603 
  57   0.0000       0.751642        20.4532 
  58   0.0000       0.772802        21.0290 
  59   0.0000       0.773256        21.0414 
  60   0.0000       0.792501        21.5651 
  61   0.0000       0.796800        21.6820 
  62   0.0000       0.841846        22.9078 
  63   0.0000       0.880765        23.9668 
  64   0.0000       0.898764        24.4566 
  65   0.0000       0.981693        26.7132 
  66   0.0000       1.007405        27.4129 
  67   0.0000       1.008137        27.4328 
  68   0.0000       1.043770        28.4024 
  69   0.0000       1.043843        28.4044 
  70   0.0000       1.161425        31.6040 
  71   0.0000       1.174946        31.9719 
  72   0.0000       1.220324        33.2067 
  73   0.0000       1.275352        34.7041 
  74   0.0000       1.275441        34.7065 
  75   0.0000       1.379857        37.5478 
  76   0.0000       1.387480        37.7553 
  77   0.0000       1.394013        37.9330 
  78   0.0000       1.417051        38.5599 
  79   0.0000       1.440998        39.2115 
  80   0.0000       1.466535        39.9064 
  81   0.0000       1.466896        39.9163 
  82   0.0000       1.633916        44.4611 
  83   0.0000       1.790959        48.7345 
  84   0.0000       1.806986        49.1706 
  85   0.0000       2.035382        55.3856 
  86   0.0000       2.281761        62.0899 
  87   0.0000       2.281883        62.0932 
  88   0.0000       2.395301        65.1795 
  89   0.0000       2.399910        65.3049 
  90   0.0000       2.481889        67.5356 
  91   0.0000       2.490336        67.7655 
  92   0.0000       2.497135        67.9505 
  93   0.0000       2.842136        77.3385 
  94   0.0000       2.842162        77.3392 
  95   0.0000       2.877649        78.3048 
  96   0.0000       2.878560        78.3296 
  97   0.0000       2.910057        79.1867 
  98   0.0000       2.951346        80.3102 
  99   0.0000       2.956771        80.4578 
 100   0.0000       3.163976        86.0962 
 101   0.0000       3.623556        98.6020 
 102   0.0000       3.852883       104.8423 
 103   0.0000       3.853910       104.8702 
 104   0.0000       3.882600       105.6509 
 105   0.0000       3.885748       105.7366 
 106   0.0000       3.930969       106.9671 
 107   0.0000       3.961640       107.8017 
 108   0.0000       3.996697       108.7556 
 109   0.0000       4.035034       109.7989 
 110   0.0000       4.081653       111.0674 
 111   0.0000       4.385447       119.3341 
 112   0.0000       5.051658       137.4626 
 113   0.0000       5.051772       137.4657 
 114   0.0000       5.062712       137.7634 
 115   0.0000       5.064747       137.8188 
 116   0.0000       5.073283       138.0511 
 117   0.0000       5.073528       138.0577 
 118   0.0000       5.126449       139.4978 
 119   0.0000       5.159676       140.4019 
 120   0.0000       5.160399       140.4216 
 121   0.0000       5.625930       153.0893 
 122   0.0000       5.627856       153.1417 
 123   0.0000       5.739530       156.1805 
 124   0.0000       5.797564       157.7597 
 125   0.0000       6.116914       166.4497 
 126   0.0000       6.731682       183.1784 
 127   0.0000      12.463589       339.1515 
 128   0.0000      12.469799       339.3205 
 129   0.0000      12.475902       339.4865 
 130   0.0000      12.476070       339.4911 
 131   0.0000      12.522462       340.7535 
 132   0.0000      12.577524       342.2518 
 133   0.0000      12.590907       342.6160 
 134   0.0000      14.142882       384.8474 
 135   0.0000      14.148305       384.9950 
 136   0.0000      14.149888       385.0380 
 137   0.0000      14.154097       385.1525 
 138   0.0000      14.178309       385.8114 
 139   0.0000      14.185759       386.0141 
 140   0.0000      14.185964       386.0197 
 141   0.0000      14.227479       387.1494 
 142   0.0000      14.293229       388.9385 

                 SPIN DOWN ORBITALS
  NO   OCC          E(Eh)            E(eV) 
   0   1.0000    -299.262953     -8143.3590 
   1   1.0000    -101.247439     -2755.0829 
   2   1.0000     -35.589565      -968.4413 
   3   1.0000     -30.966722      -842.6473 
   4   1.0000     -30.961598      -842.5079 
   5   1.0000     -30.961180      -842.4965 
   6   1.0000      -9.301666      -253.1112 
   7   1.0000      -7.058038      -192.0590 
   8   1.0000      -7.054379      -191.9594 
   9   1.0000      -7.053583      -191.9377 
  10   1.0000      -3.925548      -106.8196 
  11   1.0000      -2.510978       -68.3272 
  12   1.0000      -2.505777       -68.1857 
  13   1.0000      -2.500548       -68.0434 
  14   1.0000      -0.733971       -19.9724 
  15   1.0000      -0.338353        -9.2070 
  16   1.0000      -0.283065        -7.7026 
  17   1.0000      -0.276124        -7.5137 
  18   1.0000      -0.251920        -6.8551 
  19   1.0000      -0.211806        -5.7635 
  20   1.0000      -0.208976        -5.6865 
  21   1.0000      -0.184733        -5.0268 
  22   0.0000      -0.130897        -3.5619 
  23   0.0000      -0.129036        -3.5112 
  24   0.0000      -0.020784        -0.5656 
  25   0.0000      -0.011892        -0.3236 
  26   0.0000       0.016401         0.4463 
  27   0.0000       0.021123         0.5748 
  28   0.0000       0.041886         1.1398 
  29   0.0000       0.041946         1.1414 
  30   0.0000       0.079560         2.1649 
  31   0.0000       0.087663         2.3854 
  32   0.0000       0.092586         2.5194 
  33   0.0000       0.092608         2.5200 
  34   0.0000       0.107237         2.9181 
  35   0.0000       0.111887         3.0446 
  36   0.0000       0.130379         3.5478 
  37   0.0000       0.136926         3.7259 
  38   0.0000       0.139833         3.8051 
  39   0.0000       0.153686         4.1820 
  40   0.0000       0.213766         5.8169 
  41   0.0000       0.217626         5.9219 
  42   0.0000       0.245295         6.6748 
  43   0.0000       0.273646         7.4463 
  44   0.0000       0.274025         7.4566 
  45   0.0000       0.281624         7.6634 
  46   0.0000       0.329973         8.9790 
  47   0.0000       0.332984         9.0609 
  48   0.0000       0.364253         9.9118 
  49   0.0000       0.368403        10.0248 
  50   0.0000       0.375305        10.2126 
  51   0.0000       0.437990        11.9183 
  52   0.0000       0.443303        12.0629 
  53   0.0000       0.511937        13.9305 
  54   0.0000       0.593368        16.1464 
  55   0.0000       0.595168        16.1953 
  56   0.0000       0.610633        16.6162 
  57   0.0000       0.760735        20.7007 
  58   0.0000       0.777030        21.1441 
  59   0.0000       0.777161        21.1476 
  60   0.0000       0.798089        21.7171 
  61   0.0000       0.800897        21.7935 
  62   0.0000       0.846393        23.0315 
  63   0.0000       0.905186        24.6314 
  64   0.0000       0.908386        24.7184 
  65   0.0000       0.999225        27.1903 
  66   0.0000       1.014428        27.6040 
  67   0.0000       1.015356        27.6292 
  68   0.0000       1.047628        28.5074 
  69   0.0000       1.048264        28.5247 
  70   0.0000       1.178490        32.0683 
  71   0.0000       1.183270        32.1984 
  72   0.0000       1.225539        33.3486 
  73   0.0000       1.277677        34.7674 
  74   0.0000       1.282331        34.8940 
  75   0.0000       1.393006        37.9056 
  76   0.0000       1.407021        38.2870 
  77   0.0000       1.409231        38.3471 
  78   0.0000       1.452656        39.5288 
  79   0.0000       1.471888        40.0521 
  80   0.0000       1.481437        40.3120 
  81   0.0000       1.484469        40.3944 
  82   0.0000       1.647288        44.8250 
  83   0.0000       1.815783        49.4100 
  84   0.0000       1.824046        49.6348 
  85   0.0000       2.047237        55.7082 
  86   0.0000       2.289284        62.2946 
  87   0.0000       2.289596        62.3031 
  88   0.0000       2.403747        65.4093 
  89   0.0000       2.407431        65.5095 
  90   0.0000       2.486049        67.6488 
  91   0.0000       2.500594        68.0446 
  92   0.0000       2.501892        68.0799 
  93   0.0000       2.849859        77.5486 
  94   0.0000       2.850025        77.5531 
  95   0.0000       2.884602        78.4940 
  96   0.0000       2.885476        78.5178 
  97   0.0000       2.915097        79.3238 
  98   0.0000       2.960256        80.5527 
  99   0.0000       2.962465        80.6128 
 100   0.0000       3.177304        86.4588 
 101   0.0000       3.639763        99.0430 
 102   0.0000       3.878416       105.5371 
 103   0.0000       3.879205       105.5585 
 104   0.0000       3.935328       107.0857 
 105   0.0000       3.939944       107.2113 
 106   0.0000       3.946382       107.3865 
 107   0.0000       3.993751       108.6755 
 108   0.0000       4.059027       110.4517 
 109   0.0000       4.063470       110.5726 
 110   0.0000       4.107663       111.7752 
 111   0.0000       4.404287       119.8467 
 112   0.0000       5.086009       138.3974 
 113   0.0000       5.091808       138.5551 
 114   0.0000       5.093361       138.5974 
 115   0.0000       5.095290       138.6499 
 116   0.0000       5.104419       138.8983 
 117   0.0000       5.109998       139.0501 
 118   0.0000       5.180832       140.9776 
 119   0.0000       5.181057       140.9837 
 120   0.0000       5.181276       140.9897 
 121   0.0000       5.658674       153.9803 
 122   0.0000       5.662313       154.0794 
 123   0.0000       5.823398       158.4627 
 124   0.0000       5.859809       159.4535 
 125   0.0000       6.128099       166.7540 
 126   0.0000       6.753724       183.7782 
 127   0.0000      12.506544       340.3204 
 128   0.0000      12.511707       340.4609 
 129   0.0000      12.534593       341.0836 
 130   0.0000      12.569850       342.0430 
 131   0.0000      12.606042       343.0278 
 132   0.0000      12.630469       343.6925 
 133   0.0000      12.632963       343.7604 
 134   0.0000      14.139718       384.7613 
 135   0.0000      14.175228       385.7276 
 136   0.0000      14.182880       385.9358 
 137   0.0000      14.190587       386.1455 
 138   0.0000      14.200544       386.4165 
 139   0.0000      14.202096       386.4587 
 140   0.0000      14.214361       386.7924 
 141   0.0000      14.237636       387.4258 
 142   0.0000      14.318278       389.6202 

                    ********************************
                    * MULLIKEN POPULATION ANALYSIS *
                    ********************************

--------------------------------------------
MULLIKEN ATOMIC CHARGES AND SPIN POPULATIONS
--------------------------------------------
   0 Ni:    0.464500    0.937841
   1 Cl:   -0.464500    0.062159
Sum of atomic charges         :   -0.0000000
Sum of atomic spin populations:    1.0000000

-----------------------------------------------------
MULLIKEN REDUCED ORBITAL CHARGES AND SPIN POPULATIONS
-----------------------------------------------------
CHARGE
  0 Nis       :     6.535522  s :     6.535522
      pz      :     4.070789  p :    12.166530
      px      :     4.050525
      py      :     4.045216
      dz2     :     1.846400  d :     8.824088
      dxz     :     1.782862
      dyz     :     1.268283
      dx2y2   :     1.976287
      dxy     :     1.950256
      f0      :     0.003465  f :     0.009052
      f+1     :     0.002726
      f-1     :     0.002633
      f+2     :     0.000087
      f-2     :     0.000113
      f+3     :     0.000013
      f-3     :     0.000015
      g0      :     0.000122  g :     0.000308
      g+1     :     0.000054
      g-1     :     0.000046
      g+2     :     0.000016
      g-2     :     0.000025
      g+3     :     0.000012
      g-3     :     0.000011
      g+4     :     0.000011
      g-4     :     0.000011
  1 Cls       :     5.963050  s :     5.963050
      pz      :     3.641145  p :    11.466638
      px      :     3.930920
      py      :     3.894574
      dz2     :     0.009637  d :     0.030148
      dxz     :     0.010213
      dyz     :     0.008673
      dx2y2   :     0.000798
      dxy     :     0.000827
      f0      :     0.000578  f :     0.004665
      f+1     :     0.001732
      f-1     :     0.001487
      f+2     :     0.000425
      f-2     :     0.000438
      f+3     :     0.000002
      f-3     :     0.000002

SPIN
  0 Nis       :    -0.123522  s :    -0.123522
      pz      :    -0.004106  p :    -0.007822
      px      :    -0.006007
      py      :     0.002292
      dz2     :     0.068246  d :     1.068600
      dxz     :     0.208129
      dyz     :     0.725434
      dx2y2   :     0.021043
      dxy     :     0.045749
      f0      :     0.000108  f :     0.000585
      f+1     :     0.000220
      f-1     :     0.000274
      f+2     :    -0.000012
      f-2     :    -0.000017
      f+3     :     0.000009
      f-3     :     0.000002
      g0      :    -0.000041  g :     0.000000
      g+1     :    -0.000002
      g-1     :     0.000003
      g+2     :     0.000007
      g-2     :     0.000006
      g+3     :     0.000011
      g-3     :     0.000009
      g+4     :     0.000003
      g-4     :     0.000003
  1 Cls       :    -0.003615  s :    -0.003615
      pz      :    -0.005041  p :     0.063642
      px      :     0.018319
      py      :     0.050365
      dz2     :     0.000752  d :     0.001591
      dxz     :     0.000230
      dyz     :     0.000573
      dx2y2   :     0.000039
      dxy     :    -0.000003
      f0      :     0.000288  f :     0.000542
      f+1     :     0.000036
      f-1     :     0.000100
      f+2     :     0.000068
      f-2     :     0.000045
      f+3     :     0.000002
      f-3     :     0.000002


                     *******************************
                     * LOEWDIN POPULATION ANALYSIS *
                     *******************************

-------------------------------------------
LOEWDIN ATOMIC CHARGES AND SPIN POPULATIONS
-------------------------------------------
   0 Ni:    0.067191    0.935255
   1 Cl:   -0.067191    0.064745

----------------------------------------------------
LOEWDIN REDUCED ORBITAL CHARGES AND SPIN POPULATIONS
----------------------------------------------------
CHARGE
  0 Nis       :     6.479091  s :     6.479091
      pz      :     4.211749  p :    12.376516
      px      :     4.088002
      py      :     4.076764
      dz2     :     1.954290  d :     9.014361
      dxz     :     1.821834
      dyz     :     1.322609
      dx2y2   :     1.970792
      dxy     :     1.944837
      f0      :     0.028641  f :     0.061895
      f+1     :     0.016939
      f-1     :     0.015900
      f+2     :     0.000180
      f-2     :     0.000207
      f+3     :     0.000013
      f-3     :     0.000015
      g0      :     0.000488  g :     0.000946
      g+1     :     0.000193
      g-1     :     0.000182
      g+2     :     0.000015
      g-2     :     0.000023
      g+3     :     0.000012
      g-3     :     0.000011
      g+4     :     0.000011
      g-4     :     0.000011
  1 Cls       :     5.639800  s :     5.639800
      pz      :     3.618642  p :    11.176390
      px      :     3.794839
      py      :     3.762909
      dz2     :     0.094754  d :     0.158318
      dxz     :     0.032845
      dyz     :     0.024312
      dx2y2   :     0.003204
      dxy     :     0.003204
      f0      :     0.043252  f :     0.092682
      f+1     :     0.024381
      f-1     :     0.018236
      f+2     :     0.003421
      f-2     :     0.003388
      f+3     :     0.000002
      f-3     :     0.000002

SPIN
  0 Nis       :    -0.108853  s :    -0.108853
      pz      :    -0.006503  p :    -0.004642
      px      :    -0.005579
      py      :     0.007440
      dz2     :     0.063645  d :     1.047055
      dxz     :     0.205496
      dyz     :     0.710141
      dx2y2   :     0.021568
      dxy     :     0.046205
      f0      :    -0.000064  f :     0.001700
      f+1     :     0.000489
      f-1     :     0.001317
      f+2     :    -0.000024
      f-2     :    -0.000029
      f+3     :     0.000009
      f-3     :     0.000002
      g0      :    -0.000050  g :    -0.000004
      g+1     :     0.000000
      g-1     :     0.000011
      g+2     :     0.000004
      g-2     :     0.000004
      g+3     :     0.000011
      g-3     :     0.000009
      g+4     :     0.000003
      g-4     :     0.000003
  1 Cls       :    -0.004901  s :    -0.004901
      pz      :    -0.009872  p :     0.051426
      px      :     0.016106
      py      :     0.045192
      dz2     :    -0.000628  d :     0.008696
      dxz     :     0.002269
      dyz     :     0.007630
      dx2y2   :    -0.000278
      dxy     :    -0.000295
      f0      :     0.000295  f :     0.009523
      f+1     :     0.002143
      f-1     :     0.007310
      f+2     :    -0.000125
      f-2     :    -0.000104
      f+3     :     0.000002
      f-3     :     0.000002


                      *****************************
                      * MAYER POPULATION ANALYSIS *
                      *****************************

  NA   - Mulliken gross atomic population
  ZA   - Total nuclear charge
  QA   - Mulliken gross atomic charge
  VA   - Mayer's total valence
  BVA  - Mayer's bonded valence
  FA   - Mayer's free valence

  ATOM       NA         ZA         QA         VA         BVA        FA
  0 Ni    27.5355    28.0000     0.4645     2.2187     1.1046     1.1141
  1 Cl    17.4645    17.0000    -0.4645     1.1098     1.1046     0.0052

  Mayer bond orders larger than 0.100000
B(  0-Ni,  1-Cl) :   1.1046 

-------
TIMINGS
-------

Total SCF time: 0 days 0 hours 0 min 5 sec 

Total time                  ....       5.286 sec
Sum of individual times     ....       5.124 sec  ( 96.9%)

Fock matrix formation       ....       4.636 sec  ( 87.7%)
  Split-RI-J                ....       3.464 sec  ( 74.7% of F)
  XC integration            ....       1.023 sec  ( 22.1% of F)
    Basis function eval.    ....       0.130 sec  ( 12.7% of XC)
    Density eval.           ....       0.140 sec  ( 13.7% of XC)
    XC-Functional eval.     ....       0.027 sec  (  2.7% of XC)
    XC-Potential eval.      ....       0.416 sec  ( 40.7% of XC)
Diagonalization             ....       0.137 sec  (  2.6%)
Density matrix formation    ....       0.018 sec  (  0.3%)
Population analysis         ....       0.007 sec  (  0.1%)
Initial guess               ....       0.102 sec  (  1.9%)
Orbital Transformation      ....       0.000 sec  (  0.0%)
Orbital Orthonormalization  ....       0.000 sec  (  0.0%)
DIIS solution               ....       0.046 sec  (  0.9%)
Grid generation             ....       0.176 sec  (  3.3%)


-------------------------------------------------------------------------------
                          DFT DISPERSION CORRECTION                            
                                                                               
                              DFTD3 V3.1  Rev 1                                
                          USING Becke-Johnson damping                          
-------------------------------------------------------------------------------
The SCAN functional is recognized
Active option DFTDOPT                   ...         4   

molecular C6(AA) [au] = 613.888109 


            DFT-D V3
 parameters
 s6 scaling factor         :     1.0000 
 a1 scaling factor         :     0.5380 
 s8 scaling factor         :     0.0000 
 a2 scaling factor         :     5.4200 
 ad hoc parameters k1-k3   :    16.0000     1.3333    -4.0000 

 Edisp/kcal,au: -0.115081833489  -0.000183394556 
 E6   /kcal   :  -0.115081833 
 E8   /kcal   :  -0.000000000 
 % E8         :   0.000000000 

-------------------------   ----------------
Dispersion correction           -0.000183395
-------------------------   ----------------


-------------------------   --------------------
FINAL SINGLE POINT ENERGY     -1968.699152338670
-------------------------   --------------------


                            ***************************************
                            *     ORCA property calculations      *
                            ***************************************

                                    ---------------------
                                    Active property flags
                                    ---------------------
   (+) Dipole Moment


------------------------------------------------------------------------------
                       ORCA ELECTRIC PROPERTIES CALCULATION
------------------------------------------------------------------------------

Dipole Moment Calculation                       ... on
Quadrupole Moment Calculation                   ... off
Polarizability Calculation                      ... off
GBWName                                         ... 45_NiCl.gbw
Electron density file                           ... 45_NiCl.scfp
The origin for moment calculation is the CENTER OF MASS  = ( 0.000000,  0.000000  1.401339)

-------------
DIPOLE MOMENT
-------------
                                X             Y             Z
Electronic contribution:     -0.00000      -0.00000      -1.99131
Nuclear contribution   :      0.00000       0.00000       0.21916
                        -----------------------------------------
Total Dipole Moment    :     -0.00000      -0.00000      -1.77215
                        -----------------------------------------
Magnitude (a.u.)       :      1.77215
Magnitude (Debye)      :      4.50444



--------------------
Rotational spectrum 
--------------------
 
Rotational constants in cm-1:     0.000000     0.174027     0.174027 
Rotational constants in MHz :     0.000000  5217.185595  5217.185595 

 Dipole components along the rotational axes: 
x,y,z [a.u.] :    -1.772146    -0.000000    -0.000000 
x,y,z [Debye]:    -4.504438    -0.000000    -0.000000 

 

Timings for individual modules:

Sum of individual times         ...        8.710 sec (=   0.145 min)
GTO integral calculation        ...        3.049 sec (=   0.051 min)  35.0 %
SCF iterations                  ...        5.662 sec (=   0.094 min)  65.0 %
                             ****ORCA TERMINATED NORMALLY****
TOTAL RUN TIME: 0 days 0 hours 0 minutes 9 seconds 309 msec
